 Gaussian 16, Revision A.03,

 -----------------------------------------------------------
 # opt freq B3LYP/6-31G(d) empiricaldispersion=gd3bj scf=xqc
 -----------------------------------------------------------

 -------------------------------
 CID_150836192_JID_3611_neutraal
 -------------------------------
 Symbolic Z-matrix:
 Charge =  0 Multiplicity = 1

 SCF Done:  E(RB3LYP) =  -553.144090766     A.U. after   14 cycles
 SCF Done:  E(RB3LYP) =  -553.150419818     A.U. after   12 cycles
 SCF Done:  E(RB3LYP) =  -553.151092706     A.U. after   11 cycles
 SCF Done:  E(RB3LYP) =  -553.151256668     A.U. after   10 cycles
 SCF Done:  E(RB3LYP) =  -553.151303260     A.U. after   10 cycles
 SCF Done:  E(RB3LYP) =  -553.151310745     A.U. after   10 cycles
 SCF Done:  E(RB3LYP) =  -553.151313681     A.U. after    9 cycles
 SCF Done:  E(RB3LYP) =  -553.151314141     A.U. after    8 cycles
 SCF Done:  E(RB3LYP) =  -553.151314346     A.U. after    8 cycles
 SCF Done:  E(RB3LYP) =  -553.151314463     A.U. after    7 cycles
 Optimization completed.
    -- Stationary point found.
 Normal termination of Gaussian 16 at Wed Dec  9 23:44:13 2020.

 --------------------------------------------------------------------
 #N Geom=AllCheck Guess=TCheck SCRF=Check GenChk RB3LYP/6-31G(d) Freq
 --------------------------------------------------------------------

 Structure from the checkpoint file:  "JID_3611.chk"
 -------------------------------
 CID_150836192_JID_3611_neutraal
 -------------------------------
 Charge =  0 Multiplicity = 1

 SCF Done:  E(RB3LYP) =  -553.151314463     A.U. after    1 cycles

  Exact polarizability: 162.219 -11.178 109.740 -15.354 -11.187  85.614
 Approx polarizability: 221.277 -18.725 187.668 -28.576 -22.669 144.492

                      1                      2                      3
                      A                      A                      A
 Frequencies --     35.8841                48.4614                66.6584
 Red. masses --      3.4239                 4.7021                 4.1315
 Frc consts  --      0.0026                 0.0065                 0.0108
 IR Inten    --      0.7844                 0.0950                 0.6759

                      4                      5                      6
                      A                      A                      A
 Frequencies --    132.8762               162.2660               261.4608
 Red. masses --      3.1790                 4.4491                 4.3961
 Frc consts  --      0.0331                 0.0690                 0.1771
 IR Inten    --      1.7241                 3.7113                 0.9055

                      7                      8                      9
                      A                      A                      A
 Frequencies --    286.5241               302.6057               337.5758
 Red. masses --      1.0401                 2.8840                 3.9515
 Frc consts  --      0.0503                 0.1556                 0.2653
 IR Inten    --     22.5565                 0.6788                 1.8353

                     10                     11                     12
                      A                      A                      A
 Frequencies --    402.8704               413.8355               420.1122
 Red. masses --      2.9104                 2.3019                 3.0452
 Frc consts  --      0.2783                 0.2323                 0.3167
 IR Inten    --      1.4373                 0.3405                 0.3777

                     13                     14                     15
                      A                      A                      A
 Frequencies --    499.7468               539.3600               577.9955
 Red. masses --      3.3960                 3.2944                 3.5285
 Frc consts  --      0.4997                 0.5647                 0.6945
 IR Inten    --     10.5839                49.9578                 5.5277

                     16                     17                     18
                      A                      A                      A
 Frequencies --    628.8526               639.4420               661.3339
 Red. masses --      2.0282                 1.4588                 6.6317
 Frc consts  --      0.4726                 0.3514                 1.7089
 IR Inten    --    182.4931               225.7171                 0.1802

                     19                     20                     21
                      A                      A                      A
 Frequencies --    726.2182               756.9350               791.8842
 Red. masses --      3.4095                 2.3475                 2.8337
 Frc consts  --      1.0594                 0.7924                 1.0469
 IR Inten    --     33.7774                86.4740                 7.5394

                     22                     23                     24
                      A                      A                      A
 Frequencies --    816.2353               825.5359               829.8527
 Red. masses --      1.3839                 1.2676                 1.9795
 Frc consts  --      0.5432                 0.5090                 0.8032
 IR Inten    --     10.3225                 2.8870                85.1808

                     25                     26                     27
                      A                      A                      A
 Frequencies --    854.3357               868.1838               877.0950
 Red. masses --      4.9093                 4.2832                 2.0428
 Frc consts  --      2.1112                 1.9021                 0.9259
 IR Inten    --     12.7973                 6.4585                 1.2664

                     28                     29                     30
                      A                      A                      A
 Frequencies --    940.4350               942.8670               946.9446
 Red. masses --      1.7491                 1.3908                 1.3711
 Frc consts  --      0.9114                 0.7285                 0.7244
 IR Inten    --      4.5394                 0.8760                 1.4140

                     31                     32                     33
                      A                      A                      A
 Frequencies --   1009.2890              1023.9215              1036.2582
 Red. masses --      1.9205                 3.2866                 2.7536
 Frc consts  --      1.1527                 2.0301                 1.7421
 IR Inten    --      6.3773                 6.3793                 0.2469

                     34                     35                     36
                      A                      A                      A
 Frequencies --   1052.8507              1093.2424              1115.3834
 Red. masses --      2.0312                 2.0166                 1.7869
 Frc consts  --      1.3266                 1.4200                 1.3098
 IR Inten    --      3.8655                 3.3098                 1.7739

                     37                     38                     39
                      A                      A                      A
 Frequencies --   1122.2285              1165.3665              1191.1418
 Red. masses --      2.3053                 1.2206                 1.2354
 Frc consts  --      1.7106                 0.9767                 1.0328
 IR Inten    --      9.3083                 7.3447                 4.4212

                     40                     41                     42
                      A                      A                      A
 Frequencies --   1217.0328              1236.3094              1242.5148
 Red. masses --      1.1191                 1.4105                 2.5445
 Frc consts  --      0.9766                 1.2703                 2.3145
 IR Inten    --     11.0245                 2.4600                 0.8245

                     43                     44                     45
                      A                      A                      A
 Frequencies --   1277.1620              1312.2834              1322.7570
 Red. masses --      1.2829                 1.3244                 3.3280
 Frc consts  --      1.2330                 1.3438                 3.4308
 IR Inten    --      6.6787                 0.6933                78.1049

                     46                     47                     48
                      A                      A                      A
 Frequencies --   1336.3580              1362.1084              1372.4300
 Red. masses --      1.4099                 1.5399                 1.3943
 Frc consts  --      1.4834                 1.6833                 1.5474
 IR Inten    --      6.5721                 5.7991                 1.6029

                     49                     50                     51
                      A                      A                      A
 Frequencies --   1377.2597              1398.9838              1450.8526
 Red. masses --      3.0282                 1.5229                 1.3221
 Frc consts  --      3.3843                 1.7561                 1.6396
 IR Inten    --      3.9749                 9.6557                 8.3331

                     52                     53                     54
                      A                      A                      A
 Frequencies --   1489.6706              1517.5020              1533.3337
 Red. masses --      2.7383                 1.1025                 1.0984
 Frc consts  --      3.5802                 1.4958                 1.5215
 IR Inten    --      1.5074                 2.4323                 1.1612

                     55                     56                     57
                      A                      A                      A
 Frequencies --   1571.7096              1639.6391              1676.9302
 Red. masses --      2.6607                 5.9769                 6.0931
 Frc consts  --      3.8725                 9.4673                10.0953
 IR Inten    --     85.8278                 1.3409                16.5072

                     58                     59                     60
                      A                      A                      A
 Frequencies --   1679.5482              1697.5901              2986.0389
 Red. masses --      2.7667                 1.4978                 1.0735
 Frc consts  --      4.5983                 2.5432                 5.6396
 IR Inten    --      6.2303               122.6015                41.1935

                     61                     62                     63
                      A                      A                      A
 Frequencies --   3003.0634              3037.3773              3080.1844
 Red. masses --      1.0815                 1.0610                 1.1028
 Frc consts  --      5.7466                 5.7671                 6.1643
 IR Inten    --     26.7070                36.3312                23.9781

                     64                     65                     66
                      A                      A                      A
 Frequencies --   3134.8330              3167.3366              3169.8855
 Red. masses --      1.0920                 1.0863                 1.0865
 Frc consts  --      6.3229                 6.4210                 6.4325
 IR Inten    --     20.7381                21.4403                14.7210

                     67                     68                     69
                      A                      A                      A
 Frequencies --   3184.5244              3188.4382              3215.6879
 Red. masses --      1.0941                 1.0944                 1.0934
 Frc consts  --      6.5370                 6.5551                 6.6617
 IR Inten    --     40.9129                 4.4605                12.5010

                     70                     71                     72
                      A                      A                      A
 Frequencies --   3547.4171              3548.8809              3645.6026
 Red. masses --      1.0480                 1.0769                 1.0978
 Frc consts  --      7.7699                 7.9908                 8.5966
 IR Inten    --     12.2878                 3.0634                 7.6311

 - Thermochemistry -
 -------------------
 Temperature   298.150 Kelvin.  Pressure   1.00000 Atm.
 Atom     1 has atomic number  6 and mass  12.00000

 Molecular mass:   175.11095 amu.
 Principal axes and moments of inertia in atomic units:
                           1         2         3
     Eigenvalues --   773.001625023.754335224.83087
           X            0.99999  -0.00279  -0.00448
           Y            0.00248   0.99769  -0.06784
           Z            0.00466   0.06783   0.99769
 This molecule is an asymmetric top.
 Rotational symmetry number  1.
 Warning -- assumption of classical behavior for rotation
           may cause significant error
 Rotational temperatures (Kelvin)      0.11205     0.01724     0.01658
 Rotational constants (GHZ):           2.33472     0.35924     0.34542
 Zero-point vibrational energy     580340.2 (Joules/Mol)
                                  138.70465 (Kcal/Mol)
 Warning -- explicit consideration of  15 degrees of freedom as
           vibrations may cause significant error
 Vibrational temperatures:     51.63    69.73    95.91   191.18   233.46
          (Kelvin)            376.18   412.24   435.38   485.70   579.64
                              595.42   604.45   719.02   776.02   831.61
                              904.78   920.01   951.51  1044.87  1089.06
                             1139.34  1174.38  1187.76  1193.97  1229.20
                             1249.12  1261.94  1353.08  1356.58  1362.44
                             1452.14  1473.19  1490.94  1514.82  1572.93
                             1604.79  1614.64  1676.70  1713.79  1751.04
                             1778.77  1787.70  1837.55  1888.08  1903.15
                             1922.72  1959.77  1974.62  1981.57  2012.83
                             2087.45  2143.30  2183.35  2206.13  2261.34
                             2359.08  2412.73  2416.50  2442.45  4296.24
                             4320.74  4370.11  4431.70  4510.33  4557.09
                             4560.76  4581.82  4587.45  4626.66  5103.94
                             5106.05  5245.21

 Zero-point correction=                           0.221040 (Hartree/Particle)
 Thermal correction to Energy=                    0.232476
 Thermal correction to Enthalpy=                  0.233420
 Thermal correction to Gibbs Free Energy=         0.182440
 Sum of electronic and zero-point Energies=           -552.930275
 Sum of electronic and thermal Energies=              -552.918839
 Sum of electronic and thermal Enthalpies=            -552.917894
 Sum of electronic and thermal Free Energies=         -552.968875

                     E (Thermal)             CV                S
                      KCal/Mol        Cal/Mol-Kelvin    Cal/Mol-Kelvin
 Total                  145.881             44.781            107.297
 Electronic               0.000              0.000              0.000
 Translational            0.889              2.981             41.388
 Rotational               0.889              2.981             31.384
 Vibrational            144.103             38.819             34.525
 Vibration     1          0.594              1.982              5.474
 Vibration     2          0.595              1.978              4.879
 Vibration     3          0.598              1.970              4.250
 Vibration     4          0.613              1.920              2.904
 Vibration     5          0.622              1.889              2.523
 Vibration     6          0.669              1.743              1.652
 Vibration     7          0.684              1.699              1.494
 Vibration     8          0.694              1.669              1.402
 Vibration     9          0.718              1.600              1.224
 Vibration    10          0.768              1.464              0.952
 Vibration    11          0.777              1.440              0.913
 Vibration    12          0.783              1.427              0.892
 Vibration    13          0.855              1.251              0.659
 Vibration    14          0.894              1.163              0.567
 Vibration    15          0.935              1.079              0.489

 Optimization completed.
    -- Stationary point found.
 Normal termination of Gaussian 16 at Wed Dec  9 23:50:49 2020.

 ----------------------------------------------------------------------
 # B3LYP/6-311++G(d,p) empiricaldispersion=gd3bj scf=xqc pop=npa geom=c
 heck
 ----------------------------------------------------------------------

 ---------------------------------------
 CID_150836192_JID_3611_Energie_neutraal
 ---------------------------------------
 Structure from the checkpoint file:  "JID_3611.chk"
 Charge =  0 Multiplicity = 1

 SCF Done:  E(RB3LYP) =  -553.308949694     A.U. after   15 cycles
 Normal termination of Gaussian 16 at Wed Dec  9 23:53:52 2020.

 ----------------------------------------------------------------------
 # B3LYP/6-311++G(d,p) empiricaldispersion=gd3bj scf=xqc pop=npa geom=c
 heck
 ----------------------------------------------------------------------

 -------------------------------------
 CID_150836192_JID_3611_Energie_kation
 -------------------------------------
 Structure from the checkpoint file:  "JID_3611.chk"
 Charge =  1 Multiplicity = 2

 SCF Done:  E(UB3LYP) =  -553.035355653     A.U. after   24 cycles
 Normal termination of Gaussian 16 at Thu Dec 10 00:00:55 2020.
 Gaussian 16:  ES64L-G16RevA.03 25-Dec-2016

 ----------------------------------------------------------------------
 # B3LYP/6-311++G(d,p) empiricaldispersion=gd3bj scf=xqc pop=npa geom=c
 heck
 ----------------------------------------------------------------------

 ------------------------------------
 CID_150836192_JID_3611_Energie_anion
 ------------------------------------
 Structure from the checkpoint file:  "JID_3611.chk"
 Charge = -1 Multiplicity = 2

                         Standard orientation:
 ---------------------------------------------------------------------
 Center     Atomic      Atomic             Coordinates (Angstroms)
 Number     Number       Type             X           Y           Z
 ---------------------------------------------------------------------
      1          6           0       -1.968788   -1.004534   -0.410618
      2          6           0       -1.886798    0.515069   -0.163455
      3          6           0       -3.340788    0.784277    0.163645
      4          7           0       -4.136604   -0.168518   -0.158316
      5          7           0       -3.389613   -1.176488   -0.780873
      6          6           0       -0.876612    0.939654    0.916560
      7          6           0        0.542291    0.560488    0.562163
      8          6           0        1.262878    1.280492   -0.399497
      9          6           0        2.550522    0.911413   -0.772037
     10          6           0        3.169632   -0.206405   -0.188444
     11          6           0        2.456730   -0.931559    0.777834
     12          6           0        1.167760   -0.549186    1.140242
     13          7           0        4.441718   -0.616913   -0.601613
     14          1           0       -1.719779   -1.549275    0.515489
     15          1           0       -1.308623   -1.353719   -1.206748
     16          1           0       -1.627821    1.029539   -1.102503
     17          1           0       -3.731136    1.706495    0.582688
     18          1           0       -3.789820   -2.079702   -0.547689
     19          1           0       -0.954525    2.025185    1.062609
     20          1           0       -1.160711    0.473066    1.867746
     21          1           0        0.808996    2.153175   -0.864426
     22          1           0        3.086466    1.489338   -1.521529
     23          1           0        2.917346   -1.799295    1.244511
     24          1           0        0.639348   -1.124771    1.896721
     25          1           0        4.952889   -1.157041    0.085763
     26          1           0        5.017908    0.122177   -0.985382
 ---------------------------------------------------------------------

 SCF Done:  E(UB3LYP) =  -553.296964887     A.U. after   33 cycles
 SCF Done:  E(UB3LYP) =  -553.296964887     a.u. after    1 cycles

 The electronic state is 2-A.
 Alpha  occ. eigenvalues --  -14.25267 -14.25030 -14.20850 -10.11106 -10.11044
 Alpha  occ. eigenvalues --  -10.10984 -10.09948 -10.08581 -10.07358 -10.07305
 Alpha  occ. eigenvalues --  -10.07209 -10.06690 -10.06511  -0.92221  -0.81335
 Alpha  occ. eigenvalues --   -0.74944  -0.72419  -0.70763  -0.64562  -0.64268
 Alpha  occ. eigenvalues --   -0.58175  -0.52086  -0.51237  -0.49156  -0.47961
 Alpha  occ. eigenvalues --   -0.42410  -0.41949  -0.41022  -0.39670  -0.36634
 Alpha  occ. eigenvalues --   -0.35735  -0.34296  -0.32933  -0.32047  -0.31574
 Alpha  occ. eigenvalues --   -0.30661  -0.28331  -0.27610  -0.27280  -0.26170
 Alpha  occ. eigenvalues --   -0.25064  -0.23816  -0.20907  -0.19462  -0.15439
 Alpha  occ. eigenvalues --   -0.13756  -0.10435   0.04287
 Alpha virt. eigenvalues --    0.05975   0.06644   0.07429   0.07596   0.08260
 Alpha virt. eigenvalues --    0.08659   0.08782   0.09694   0.10691   0.10728
 Alpha virt. eigenvalues --    0.11063   0.11607   0.12137   0.13523   0.14214

  Beta  occ. eigenvalues --  -14.25266 -14.25016 -14.20778 -10.11091 -10.11039
  Beta  occ. eigenvalues --  -10.10972 -10.09945 -10.08570 -10.07352 -10.07296
  Beta  occ. eigenvalues --  -10.07198 -10.06671 -10.06489  -0.92208  -0.81253
  Beta  occ. eigenvalues --   -0.74909  -0.72397  -0.70735  -0.64529  -0.64221
  Beta  occ. eigenvalues --   -0.58124  -0.52042  -0.51190  -0.49134  -0.47909
  Beta  occ. eigenvalues --   -0.42377  -0.41871  -0.40970  -0.39627  -0.36582
  Beta  occ. eigenvalues --   -0.35700  -0.34252  -0.32885  -0.32012  -0.31537
  Beta  occ. eigenvalues --   -0.30626  -0.28298  -0.27585  -0.27254  -0.26139
  Beta  occ. eigenvalues --   -0.25030  -0.23787  -0.20864  -0.19443  -0.15417
  Beta  occ. eigenvalues --   -0.13738  -0.10373
  Beta virt. eigenvalues --    0.06317   0.07105   0.07516   0.07561   0.08063
  Beta virt. eigenvalues --    0.08740   0.08925   0.09310   0.10123   0.10708
  Beta virt. eigenvalues --    0.10971   0.11437   0.12042   0.12691   0.13809

 Mulliken charges and spin densities:
               1          2
     1  C   -0.006217  -0.802492
     2  C   -0.468210   0.806091
     3  C    0.178690  -0.499972
     4  N   -0.089735   0.014126
     5  N   -0.078652   0.004110
     6  C    2.004651  -3.064826
     7  C    0.946591   0.171237
     8  C   -1.013400   0.809918
     9  C   -0.133785   0.051696
    10  C    1.212341  -1.752475
    11  C    0.341408  -0.457252
    12  C   -1.201901   0.865437
    13  N   -0.281060  -0.006253
    14  H   -0.268956   0.448894
    15  H    0.180077   0.009177
    16  H    0.080133   0.105742
    17  H   -0.011457   0.181238
    18  H    0.101011   0.148218
    19  H   -0.006049   0.162442
    20  H    0.051481   0.126026
    21  H   -0.192252   0.341954
    22  H   -0.633607   0.804789
    23  H   -0.716570   0.895285
    24  H   -0.356601   0.500613
    25  H   -0.301610   0.551540
    26  H   -0.336324   0.584739
 Sum of Mulliken charges =  -1.00000   1.00000

 Dipole moment (field-independent basis, Debye):
    X=             -7.9721    Y=              1.8452    Z=              0.1774  Tot=              8.1848
 Quadrupole moment (field-independent basis, Debye-Ang):
   XX=           -189.8899   YY=           -110.5676   ZZ=           -109.6402
   XY=              2.4811   XZ=              2.0431   YZ=              4.7646

 Summary of Natural Population Analysis:

                                       Natural Population
                Natural  -----------------------------------------------
    Atom  No    Charge         Core      Valence    Rydberg      Total
 -----------------------------------------------------------------------
      C    1   -0.09602      0.99962     2.08569    0.01071     3.09602
      C    2   -0.13842      0.99959     2.12991    0.00891     3.13842
      C    3    0.02116      0.99963     1.96375    0.01546     2.97884
      N    4   -0.13204      0.99970     2.61849    0.01385     3.63204
      N    5   -0.24017      0.99974     2.72645    0.01397     3.74017
      C    6   -0.18899      0.99958     2.18016    0.00925     3.18899
      C    7   -0.04486      0.99950     2.03414    0.01122     3.04486
      C    8   -0.09232      0.99952     2.08310    0.00971     3.09232
      C    9   -0.12007      0.99952     2.11001    0.01055     3.12007
      C   10    0.08669      0.99949     1.90196    0.01186     2.91331
      C   11   -0.12046      0.99952     2.11029    0.01065     3.12046
      C   12   -0.09158      0.99952     2.08198    0.01007     3.09158
      N   13   -0.39439      0.99972     2.88393    0.01074     3.89439
      H   14    0.08929      0.00000     0.40914    0.00156     0.41071
      H   15    0.10416      0.00000     0.39455    0.00129     0.39584
      H   16    0.10479      0.00000     0.39388    0.00133     0.39521
      H   17    0.09424      0.00000     0.40451    0.00124     0.40576
      H   18    0.17933      0.00000     0.31838    0.00230     0.32067
      H   19    0.10169      0.00000     0.39713    0.00118     0.39831
      H   20    0.10096      0.00000     0.39739    0.00165     0.39904
      H   21    0.09708      0.00000     0.40186    0.00106     0.40292
      H   22    0.10135      0.00000     0.39732    0.00133     0.39865
      H   23    0.10230      0.00000     0.39613    0.00157     0.39770
      H   24    0.09886      0.00000     0.39980    0.00134     0.40114
      H   25    0.18895      0.00000     0.30371    0.00734     0.31105
      H   26    0.18847      0.00000     0.30414    0.00739     0.31153
 =======================================================================
   * Total *   -0.00000     12.99465    33.82780    0.17755    47.00000

 Normal termination of Gaussian 16 at Thu Dec 10 00:10:42 2020.
