 Gaussian 16, Revision A.03,

 -----------------------------------------------------------
 # opt freq B3LYP/6-31G(d) empiricaldispersion=gd3bj scf=xqc
 -----------------------------------------------------------

 -------------------------------
 CID_123768287_JID_5186_neutraal
 -------------------------------
 Symbolic Z-matrix:
 Charge =  0 Multiplicity = 1

 SCF Done:  E(RB3LYP) =  -888.153810956     A.U. after   15 cycles
 SCF Done:  E(RB3LYP) =  -888.167595234     A.U. after   13 cycles
 SCF Done:  E(RB3LYP) =  -888.169706778     A.U. after   13 cycles
 SCF Done:  E(RB3LYP) =  -888.169316228     A.U. after   14 cycles
 SCF Done:  E(RB3LYP) =  -888.170704525     A.U. after   13 cycles
 SCF Done:  E(RB3LYP) =  -888.171000535     A.U. after   13 cycles
 SCF Done:  E(RB3LYP) =  -888.170557773     A.U. after   13 cycles
 SCF Done:  E(RB3LYP) =  -888.171325505     A.U. after   12 cycles
 SCF Done:  E(RB3LYP) =  -888.171410344     A.U. after   12 cycles
 SCF Done:  E(RB3LYP) =  -888.171436894     A.U. after   11 cycles
 SCF Done:  E(RB3LYP) =  -888.171446182     A.U. after    9 cycles
 SCF Done:  E(RB3LYP) =  -888.171447382     A.U. after    9 cycles
 SCF Done:  E(RB3LYP) =  -888.171448438     A.U. after    9 cycles
 SCF Done:  E(RB3LYP) =  -888.171448818     A.U. after    9 cycles
 SCF Done:  E(RB3LYP) =  -888.171448926     A.U. after    7 cycles
 Optimization completed.
    -- Stationary point found.
 Normal termination of Gaussian 16 at Thu Dec 10 14:48:40 2020.

 --------------------------------------------------------------------
 #N Geom=AllCheck Guess=TCheck SCRF=Check GenChk RB3LYP/6-31G(d) Freq
 --------------------------------------------------------------------

 Structure from the checkpoint file:  "JID_5186.chk"
 -------------------------------
 CID_123768287_JID_5186_neutraal
 -------------------------------
 Charge =  0 Multiplicity = 1

 SCF Done:  E(RB3LYP) =  -888.171448926     A.U. after    1 cycles

  Exact polarizability: 109.302  -0.358  82.775   1.549   2.109  72.280
 Approx polarizability: 132.070  -4.210 139.064   4.436   3.724 133.092

                      1                      2                      3
                      A                      A                      A
 Frequencies --     26.0241                33.2779                42.6341
 Red. masses --      9.0288                 8.5868                11.0998
 Frc consts  --      0.0036                 0.0056                 0.0119
 IR Inten    --      1.4522                 0.8885                 0.6312

                      4                      5                      6
                      A                      A                      A
 Frequencies --     56.4272                65.2129               100.3748
 Red. masses --     10.2878                 6.0831                 9.5504
 Frc consts  --      0.0193                 0.0152                 0.0567
 IR Inten    --      1.9172                 1.9968                 4.5479

                      7                      8                      9
                      A                      A                      A
 Frequencies --    185.0474               222.5134               293.3115
 Red. masses --     11.1889                 4.8200                 6.1794
 Frc consts  --      0.2257                 0.1406                 0.3132
 IR Inten    --      0.3624                 7.5403                 8.4598

                     10                     11                     12
                      A                      A                      A
 Frequencies --    298.9371               306.8096               320.7412
 Red. masses --      8.0839                 1.9551                 3.3300
 Frc consts  --      0.4256                 0.1084                 0.2018
 IR Inten    --      6.0344                50.1769                18.2367

                     13                     14                     15
                      A                      A                      A
 Frequencies --    373.2690               384.3706               400.9843
 Red. masses --      4.1449                 4.0464                 4.5289
 Frc consts  --      0.3403                 0.3522                 0.4290
 IR Inten    --      5.7723                41.4819                 3.7953

                     16                     17                     18
                      A                      A                      A
 Frequencies --    441.8916               463.7118               499.3951
 Red. masses --      3.7641                 4.0322                 5.1937
 Frc consts  --      0.4331                 0.5108                 0.7632
 IR Inten    --     18.2093                 0.5936                25.4644

                     19                     20                     21
                      A                      A                      A
 Frequencies --    524.8803               562.8122               599.4462
 Red. masses --      1.8441                 3.6817                 8.5310
 Frc consts  --      0.2993                 0.6871                 1.8061
 IR Inten    --    109.6922                22.1666                32.4729

                     22                     23                     24
                      A                      A                      A
 Frequencies --    633.7030               661.7720               672.1637
 Red. masses --      4.7422                 1.4574                 3.8605
 Frc consts  --      1.1220                 0.3761                 1.0276
 IR Inten    --     57.8486               115.0305                78.2312

                     25                     26                     27
                      A                      A                      A
 Frequencies --    689.5602               731.6646               752.6518
 Red. masses --      3.7914                 5.8684                 9.7973
 Frc consts  --      1.0622                 1.8509                 3.2700
 IR Inten    --     22.8452                53.4605                19.6786

                     28                     29                     30
                      A                      A                      A
 Frequencies --    803.0217               884.0810               920.9253
 Red. masses --     11.2026                12.2553                 2.3901
 Frc consts  --      4.2562                 5.6436                 1.1943
 IR Inten    --      1.8369                26.6931                13.6070

                     31                     32                     33
                      A                      A                      A
 Frequencies --    941.0047              1042.5814              1085.9300
 Red. masses --      5.2223                 4.2750                 4.1609
 Frc consts  --      2.7245                 2.7378                 2.8909
 IR Inten    --     74.2032                37.5164                43.9555

                     34                     35                     36
                      A                      A                      A
 Frequencies --   1110.0120              1122.9183              1142.5905
 Red. masses --      2.5840                 4.7391                 3.6569
 Frc consts  --      1.8758                 3.5208                 2.8128
 IR Inten    --    104.6206               664.8776               155.3794

                     37                     38                     39
                      A                      A                      A
 Frequencies --   1231.3812              1234.1546              1249.2918
 Red. masses --      2.2166                 3.1348                 2.3823
 Frc consts  --      1.9803                 2.8132                 2.1906
 IR Inten    --     15.8476               136.1737                63.2934

                     40                     41                     42
                      A                      A                      A
 Frequencies --   1284.3214              1373.0235              1404.1547
 Red. masses --      1.5539                 5.6867                 2.1673
 Frc consts  --      1.5102                 6.3164                 2.5177
 IR Inten    --     70.5216                50.0211                 9.5225

                     43                     44                     45
                      A                      A                      A
 Frequencies --   1409.9804              1418.1553              1471.7246
 Red. masses --      2.9004                 1.8160                 1.1092
 Frc consts  --      3.3973                 2.1518                 1.4156
 IR Inten    --      3.4057               109.2912                 3.4152

                     46                     47                     48
                      A                      A                      A
 Frequencies --   1854.2822              1862.4211              1882.9380
 Red. masses --     12.9519                11.5982                12.9527
 Frc consts  --     26.2382                23.7027                27.0572
 IR Inten    --    615.4590               302.9569                82.5608

                     49                     50                     51
                      A                      A                      A
 Frequencies --   1916.8216              3100.1846              3155.7096
 Red. masses --     12.8738                 1.0603                 1.1058
 Frc consts  --     27.8690                 6.0044                 6.4883
 IR Inten    --     31.6932                 0.8634                 1.0684

                     52                     53                     54
                      A                      A                      A
 Frequencies --   3687.8646              3688.5062              3713.7978
 Red. masses --      1.0651                 1.0642                 1.0654
 Frc consts  --      8.5346                 8.5309                 8.6576
 IR Inten    --     39.7018                87.9415                34.4230

 - Thermochemistry -
 -------------------
 Temperature   298.150 Kelvin.  Pressure   1.00000 Atm.
 Atom     1 has atomic number  6 and mass  12.00000

 Molecular mass:   219.00152 amu.
 Principal axes and moments of inertia in atomic units:
                           1         2         3
     Eigenvalues --  1402.896454995.140145386.27611
           X            0.99999   0.00475   0.00057
           Y           -0.00476   0.99997   0.00677
           Z           -0.00054  -0.00677   0.99998
 This molecule is an asymmetric top.
 Rotational symmetry number  1.
 Warning -- assumption of classical behavior for rotation
           may cause significant error
 Rotational temperatures (Kelvin)      0.06174     0.01734     0.01608
 Rotational constants (GHZ):           1.28644     0.36130     0.33506
 Zero-point vibrational energy     336960.3 (Joules/Mol)
                                   80.53545 (Kcal/Mol)
 Warning -- explicit consideration of  21 degrees of freedom as
           vibrations may cause significant error
 Vibrational temperatures:     37.44    47.88    61.34    81.19    93.83
          (Kelvin)            144.42   266.24   320.15   422.01   430.10
                              441.43   461.48   537.05   553.02   576.93
                              635.78   667.18   718.52   755.19   809.76
                              862.47   911.76   952.14   967.09   992.12
                             1052.70  1082.90  1155.37  1272.00  1325.01
                             1353.90  1500.04  1562.41  1597.06  1615.63
                             1643.93  1771.68  1775.67  1797.45  1847.85
                             1975.47  2020.27  2028.65  2040.41  2117.48
                             2667.90  2679.61  2709.13  2757.88  4460.47
                             4540.36  5306.01  5306.94  5343.33

 Zero-point correction=                           0.128341 (Hartree/Particle)
 Thermal correction to Energy=                    0.142330
 Thermal correction to Enthalpy=                  0.143274
 Thermal correction to Gibbs Free Energy=         0.084859
 Sum of electronic and zero-point Energies=           -888.043108
 Sum of electronic and thermal Energies=              -888.029119
 Sum of electronic and thermal Enthalpies=            -888.028175
 Sum of electronic and thermal Free Energies=         -888.086590

                     E (Thermal)             CV                S
                      KCal/Mol        Cal/Mol-Kelvin    Cal/Mol-Kelvin
 Total                   89.313             49.796            122.945
 Electronic               0.000              0.000              0.000
 Translational            0.889              2.981             42.055
 Rotational               0.889              2.981             32.001
 Vibrational             87.536             43.834             48.889
 Vibration     1          0.593              1.985              6.112
 Vibration     2          0.594              1.983              5.624
 Vibration     3          0.595              1.980              5.133
 Vibration     4          0.596              1.975              4.578
 Vibration     5          0.597              1.971              4.293
 Vibration     6          0.604              1.949              3.447
 Vibration     7          0.631              1.860              2.277
 Vibration     8          0.648              1.807              1.939
 Vibration     9          0.688              1.686              1.455
 Vibration    10          0.692              1.676              1.423
 Vibration    11          0.697              1.661              1.379
 Vibration    12          0.706              1.634              1.306
 Vibration    13          0.745              1.527              1.066
 Vibration    14          0.753              1.504              1.022
 Vibration    15          0.767              1.468              0.959
 Vibration    16          0.802              1.379              0.821
 Vibration    17          0.821              1.331              0.755
 Vibration    18          0.855              1.251              0.660
 Vibration    19          0.880              1.195              0.599
 Vibration    20          0.919              1.112              0.518
 Vibration    21          0.958              1.033              0.451

                           ! Non-Optimized Parameters !
 Normal termination of Gaussian 16 at Thu Dec 10 14:53:50 2020.

 ----------------------------------------------------------------------
 # B3LYP/6-311++G(d,p) empiricaldispersion=gd3bj scf=xqc pop=npa geom=c
 heck
 ----------------------------------------------------------------------

 ---------------------------------------
 CID_123768287_JID_5186_Energie_neutraal
 ---------------------------------------
 Structure from the checkpoint file:  "JID_5186.chk"
 Charge =  0 Multiplicity = 1

 SCF Done:  E(RB3LYP) =  -888.464709390     A.U. after   15 cycles
 Normal termination of Gaussian 16 at Thu Dec 10 14:55:47 2020.

 ----------------------------------------------------------------------
 # B3LYP/6-311++G(d,p) empiricaldispersion=gd3bj scf=xqc pop=npa geom=c
 heck
 ----------------------------------------------------------------------

 -------------------------------------
 CID_123768287_JID_5186_Energie_kation
 -------------------------------------
 Structure from the checkpoint file:  "JID_5186.chk"
 Charge =  1 Multiplicity = 2

 SCF Done:  E(UB3LYP) =  -888.093560088     A.U. after   33 cycles
 SCF Done:  E(UB3LYP) =  -888.093560088     a.u. after    1 cycles
 Normal termination of Gaussian 16 at Thu Dec 10 15:01:44 2020.
 Gaussian 16:  ES64L-G16RevA.03 25-Dec-2016

 ----------------------------------------------------------------------
 # B3LYP/6-311++G(d,p) empiricaldispersion=gd3bj scf=xqc pop=npa geom=c
 heck
 ----------------------------------------------------------------------

 ------------------------------------
 CID_123768287_JID_5186_Energie_anion
 ------------------------------------
 Structure from the checkpoint file:  "JID_5186.chk"
 Charge = -1 Multiplicity = 2

                         Standard orientation:
 ---------------------------------------------------------------------
 Center     Atomic      Atomic             Coordinates (Angstroms)
 Number     Number       Type             X           Y           Z
 ---------------------------------------------------------------------
      1          6           0        2.346155    1.285707    0.048828
      2          6           0        0.854137    1.508976   -0.153030
      3          8           0        0.213084    2.526601   -0.110321
      4          7           0        0.322255    0.241689   -0.444002
      5          6           0        1.175304   -0.843009   -0.310416
      6          8           0        0.916921   -2.002771   -0.511735
      7          6           0        2.538593   -0.242614    0.109125
      8          8           0        3.533243   -0.627149   -0.795892
      9          8           0        2.768678   -0.736394    1.402114
     10          8           0       -1.004050    0.086297   -0.784750
     11          6           0       -1.801861   -0.069286    0.331965
     12          8           0       -1.413743   -0.086048    1.460848
     13          6           0       -3.254115   -0.217079   -0.142080
     14          8           0       -3.596978   -0.201028   -1.296266
     15          8           0       -4.058981   -0.364264    0.918014
     16          1           0        2.669090    1.782572    0.966311
     17          1           0        2.886987    1.714910   -0.799625
     18          1           0        3.484712   -1.599139   -0.855124
     19          1           0        3.655088   -0.434234    1.664898
     20          1           0       -4.966328   -0.454046    0.569097
 ---------------------------------------------------------------------

 SCF Done:  E(UB3LYP) =  -888.494887622     A.U. after   27 cycles

 The electronic state is 2-A.
 Alpha  occ. eigenvalues --  -19.07088 -19.06081 -19.05162 -19.02476 -19.01087
 Alpha  occ. eigenvalues --  -19.00922 -18.95409 -18.95089 -14.30661 -10.20622
 Alpha  occ. eigenvalues --  -10.18833 -10.18201 -10.13485 -10.13047 -10.10172
 Alpha  occ. eigenvalues --   -1.03202  -1.00260  -0.96497  -0.95144  -0.94679
 Alpha  occ. eigenvalues --   -0.92853  -0.89554  -0.87253  -0.81384  -0.68133
 Alpha  occ. eigenvalues --   -0.59981  -0.56664  -0.53181  -0.51065  -0.48426
 Alpha  occ. eigenvalues --   -0.43482  -0.39939  -0.39312  -0.37996  -0.36669
 Alpha  occ. eigenvalues --   -0.35406  -0.34982  -0.33787  -0.33542  -0.33032
 Alpha  occ. eigenvalues --   -0.32496  -0.31225  -0.28995  -0.27904  -0.27620
 Alpha  occ. eigenvalues --   -0.26955  -0.25430  -0.24226  -0.21860  -0.20126
 Alpha  occ. eigenvalues --   -0.18692  -0.18573  -0.17661  -0.17236  -0.16000
 Alpha  occ. eigenvalues --   -0.11410   0.03560
 Alpha virt. eigenvalues --    0.05762   0.06916   0.09050   0.09541   0.09712
 Alpha virt. eigenvalues --    0.10872   0.13103   0.13454   0.15020   0.16026
 Alpha virt. eigenvalues --    0.16422   0.16518   0.17493   0.17944   0.18317

  Beta  occ. eigenvalues --  -19.07010 -19.06069 -19.05132 -19.02377 -19.01014
  Beta  occ. eigenvalues --  -19.00866 -18.94940 -18.94672 -14.30698 -10.20624
  Beta  occ. eigenvalues --  -10.18759 -10.18110 -10.13196 -10.12694 -10.10172
  Beta  occ. eigenvalues --   -1.03034  -1.00200  -0.96113  -0.95018  -0.94505
  Beta  occ. eigenvalues --   -0.92799  -0.88814  -0.86648  -0.81238  -0.68060
  Beta  occ. eigenvalues --   -0.59797  -0.55982  -0.53067  -0.50724  -0.48318
  Beta  occ. eigenvalues --   -0.43343  -0.39830  -0.39114  -0.37775  -0.36540
  Beta  occ. eigenvalues --   -0.35328  -0.34679  -0.33522  -0.33112  -0.32859
  Beta  occ. eigenvalues --   -0.30987  -0.30622  -0.28670  -0.27624  -0.27130
  Beta  occ. eigenvalues --   -0.26123  -0.25047  -0.24134  -0.21812  -0.18607
  Beta  occ. eigenvalues --   -0.18406  -0.17498  -0.16897  -0.16875  -0.15722
  Beta  occ. eigenvalues --   -0.10900
  Beta virt. eigenvalues --    0.06203   0.07535   0.09082   0.09659   0.09740
  Beta virt. eigenvalues --    0.11010   0.11386   0.13200   0.13544   0.15048
  Beta virt. eigenvalues --    0.16045   0.16384   0.16524   0.17495   0.17916

 Mulliken charges and spin densities:
               1          2
     1  C   -0.153486  -0.092434
     2  C    0.173020   0.117990
     3  O   -0.312589   0.018774
     4  N   -0.420606  -0.013185
     5  C    0.412866   0.036082
     6  O   -0.314701   0.022426
     7  C   -0.503972  -0.131243
     8  O   -0.194869   0.004690
     9  O   -0.128118  -0.001594
    10  O    0.452276   0.004297
    11  C   -0.164248   0.235708
    12  O   -0.284843   0.161737
    13  C    0.115112   0.211399
    14  O   -0.405731   0.141834
    15  O   -0.199247   0.015334
    16  H    0.135822   0.050463
    17  H    0.219810   0.000817
    18  H    0.263224   0.024067
    19  H    0.060253   0.194872
    20  H    0.250026  -0.002033
 Sum of Mulliken charges =  -1.00000   1.00000

 Dipole moment (field-independent basis, Debye):
    X=              6.2429    Y=              0.5592    Z=             -0.4276  Tot=              6.2824
 Quadrupole moment (field-independent basis, Debye-Ang):
   XX=           -107.5352   YY=           -101.8804   ZZ=           -103.0487
   XY=              2.7456   XZ=             -5.2379   YZ=              1.1111

 Summary of Natural Population Analysis:

                                       Natural Population
                Natural  -----------------------------------------------
    Atom  No    Charge         Core      Valence    Rydberg      Total
 -----------------------------------------------------------------------
      C    1   -0.24930      0.99956     2.23982    0.00992     3.24930
      C    2    0.35984      0.99967     1.61720    0.02329     2.64016
      O    3   -0.27677      0.99987     3.27095    0.00595     4.27677
      N    4   -0.10216      0.99953     2.58890    0.01373     3.60216
      C    5    0.34677      0.99960     1.62755    0.02607     2.65323
      O    6   -0.28014      0.99987     3.27359    0.00668     4.28014
      C    7    0.23928      0.99958     1.73881    0.02233     2.76072
      O    8   -0.36870      0.99988     3.36266    0.00615     4.36870
      O    9   -0.35990      0.99988     3.35319    0.00684     4.35990
      O   10   -0.17670      0.99986     3.16600    0.01084     4.17670
      C   11    0.39762      0.99970     1.57662    0.02606     2.60238
      O   12   -0.24084      0.99986     3.23527    0.00571     4.24084
      C   13    0.39053      0.99973     1.58313    0.02660     2.60947
      O   14   -0.27032      0.99987     3.26371    0.00675     4.27032
      O   15   -0.33606      0.99987     3.32844    0.00775     4.33606
      H   16    0.11540      0.00000     0.38288    0.00172     0.38460
      H   17    0.11918      0.00000     0.37979    0.00103     0.38082
      H   18    0.23776      0.00000     0.25950    0.00274     0.26224
      H   19    0.22913      0.00000     0.26656    0.00431     0.27087
      H   20    0.22539      0.00000     0.26934    0.00527     0.27461
 =======================================================================
   * Total *   -0.00000     14.99635    40.78392    0.21974    56.00000

 Normal termination of Gaussian 16 at Thu Dec 10 15:06:51 2020.
