 Gaussian 16, Revision A.03,

 -----------------------------------------------------------
 # opt freq B3LYP/6-31G(d) empiricaldispersion=gd3bj scf=xqc
 -----------------------------------------------------------

 -------------------------------
 CID_102910383_JID_9494_neutraal
 -------------------------------
 Symbolic Z-matrix:
 Charge =  0 Multiplicity = 1

 SCF Done:  E(RB3LYP) =  -856.046968143     A.U. after   15 cycles
 SCF Done:  E(RB3LYP) =  -856.052654525     A.U. after   13 cycles
 SCF Done:  E(RB3LYP) =  -856.053315591     A.U. after   12 cycles
 SCF Done:  E(RB3LYP) =  -856.053401978     A.U. after   13 cycles
 SCF Done:  E(RB3LYP) =  -856.053005499     A.U. after   13 cycles
 SCF Done:  E(RB3LYP) =  -856.053649270     A.U. after   12 cycles
 SCF Done:  E(RB3LYP) =  -856.053723642     A.U. after   12 cycles
 SCF Done:  E(RB3LYP) =  -856.053745190     A.U. after   11 cycles
 SCF Done:  E(RB3LYP) =  -856.053757887     A.U. after    9 cycles
 SCF Done:  E(RB3LYP) =  -856.053771651     A.U. after   10 cycles
 SCF Done:  E(RB3LYP) =  -856.053897404     A.U. after   11 cycles
 SCF Done:  E(RB3LYP) =  -856.053911278     A.U. after   10 cycles
 SCF Done:  E(RB3LYP) =  -856.053912710     A.U. after   10 cycles
 SCF Done:  E(RB3LYP) =  -856.053913897     A.U. after    9 cycles
 SCF Done:  E(RB3LYP) =  -856.053913947     A.U. after    7 cycles
 SCF Done:  E(RB3LYP) =  -856.053913985     A.U. after    7 cycles
 Optimization completed.
    -- Stationary point found.
 Normal termination of Gaussian 16 at Sun Dec 13 20:29:27 2020.

 --------------------------------------------------------------------
 #N Geom=AllCheck Guess=TCheck SCRF=Check GenChk RB3LYP/6-31G(d) Freq
 --------------------------------------------------------------------

 Structure from the checkpoint file:  "JID_9494.chk"
 -------------------------------
 CID_102910383_JID_9494_neutraal
 -------------------------------
 Charge =  0 Multiplicity = 1

 SCF Done:  E(RB3LYP) =  -856.053913985     A.U. after    1 cycles

  Exact polarizability: 212.477  28.235 162.836  14.645 -20.876 128.802
 Approx polarizability: 297.356  53.175 280.708  42.810 -50.440 227.140

                      1                      2                      3
                      A                      A                      A
 Frequencies --     17.4954                24.7791                33.4669
 Red. masses --      5.1967                 2.5160                 4.6151
 Frc consts  --      0.0009                 0.0009                 0.0030
 IR Inten    --      0.4228                 0.0262                 0.7863

                      4                      5                      6
                      A                      A                      A
 Frequencies --     45.7456                80.7346               125.9588
 Red. masses --      8.3140                 8.7940                 4.6799
 Frc consts  --      0.0103                 0.0338                 0.0437
 IR Inten    --      0.7565                 0.9231                 0.3571

                      7                      8                      9
                      A                      A                      A
 Frequencies --    154.3567               167.6414               183.8503
 Red. masses --      4.3804                 4.5372                 3.1394
 Frc consts  --      0.0615                 0.0751                 0.0625
 IR Inten    --      4.5668                 5.1914                 4.9318

                     10                     11                     12
                      A                      A                      A
 Frequencies --    198.0072               224.4598               256.7834
 Red. masses --      2.8584                 1.7176                 3.9872
 Frc consts  --      0.0660                 0.0510                 0.1549
 IR Inten    --      0.8277                 0.4949                 0.8056

                     13                     14                     15
                      A                      A                      A
 Frequencies --    295.2655               323.4895               362.2094
 Red. masses --      2.0026                 4.0749                 5.0910
 Frc consts  --      0.1029                 0.2512                 0.3935
 IR Inten    --      3.9662                 1.2038                 2.6878

                     16                     17                     18
                      A                      A                      A
 Frequencies --    386.4572               419.3932               437.2070
 Red. masses --      3.6344                 4.9376                 3.5954
 Frc consts  --      0.3198                 0.5117                 0.4049
 IR Inten    --      0.7767                 0.1311                 0.9661

                     19                     20                     21
                      A                      A                      A
 Frequencies --    443.0315               479.1051               586.4964
 Red. masses --      3.0280                 3.6909                 3.9837
 Frc consts  --      0.3502                 0.4992                 0.8074
 IR Inten    --      7.2885                 3.6992                 2.0818

                     22                     23                     24
                      A                      A                      A
 Frequencies --    611.1139               612.2432               620.3759
 Red. masses --      5.4906                 5.7071                 4.2422
 Frc consts  --      1.2081                 1.2604                 0.9620
 IR Inten    --      6.2773                 9.0910                 2.8525

                     25                     26                     27
                      A                      A                      A
 Frequencies --    626.9036               697.1603               726.2418
 Red. masses --      4.6971                 5.7730                 1.3968
 Frc consts  --      1.0876                 1.6532                 0.4341
 IR Inten    --      3.9232                33.9116                29.0675

                     28                     29                     30
                      A                      A                      A
 Frequencies --    741.7521               749.7403               781.6186
 Red. masses --      4.2155                 4.4936                 2.6816
 Frc consts  --      1.3665                 1.4882                 0.9652
 IR Inten    --     14.3654                50.0536                24.2309

                     31                     32                     33
                      A                      A                      A
 Frequencies --    791.9232               799.2579               816.2970
 Red. masses --      4.6155                 1.5594                 1.6519
 Frc consts  --      1.7055                 0.5869                 0.6485
 IR Inten    --      4.2767                 3.2902                19.0196

                     34                     35                     36
                      A                      A                      A
 Frequencies --    826.0719               848.5368               853.5857
 Red. masses --      3.6408                 2.9607                 1.6306
 Frc consts  --      1.4638                 1.2560                 0.7000
 IR Inten    --     20.1388                 1.0988                 3.3723

                     37                     38                     39
                      A                      A                      A
 Frequencies --    926.2142               931.5581               940.4811
 Red. masses --      8.3725                 1.4023                 1.2677
 Frc consts  --      4.2318                 0.7170                 0.6606
 IR Inten    --     10.8403                11.5172                 0.5001

                     40                     41                     42
                      A                      A                      A
 Frequencies --    966.6932               977.5310               983.8712
 Red. masses --      2.3951                 2.5233                 2.8595
 Frc consts  --      1.3187                 1.4206                 1.6309
 IR Inten    --      8.5011                 4.2261                 6.7145

                     43                     44                     45
                      A                      A                      A
 Frequencies --   1021.3801              1031.4175              1052.5274
 Red. masses --      5.3774                 1.7979                 3.8431
 Frc consts  --      3.3052                 1.1269                 2.5084
 IR Inten    --      2.8286                 0.0612                 9.3799

                     46                     47                     48
                      A                      A                      A
 Frequencies --   1076.7272              1091.2801              1116.9107
 Red. masses --      1.9737                 2.1337                 1.7910
 Frc consts  --      1.3482                 1.4971                 1.3164
 IR Inten    --      4.7701                11.8183                 2.5343

                     49                     50                     51
                      A                      A                      A
 Frequencies --   1123.5095              1158.1574              1180.0857
 Red. masses --      1.8065                 1.9056                 1.4103
 Frc consts  --      1.3435                 1.5060                 1.1571
 IR Inten    --      9.2379                81.5604                 3.4099

                     52                     53                     54
                      A                      A                      A
 Frequencies --   1215.2413              1257.9096              1266.9091
 Red. masses --      1.5992                 2.7088                 1.9465
 Frc consts  --      1.3915                 2.5253                 1.8408
 IR Inten    --     36.3114                37.5174                14.2784

                     55                     56                     57
                      A                      A                      A
 Frequencies --   1292.0557              1324.7926              1338.9368
 Red. masses --      1.4198                 1.9904                 1.7335
 Frc consts  --      1.3965                 2.0582                 1.8311
 IR Inten    --     13.0671                47.9843                 5.8780

                     58                     59                     60
                      A                      A                      A
 Frequencies --   1367.7098              1382.7348              1385.6383
 Red. masses --      1.5968                 5.1428                 1.6654
 Frc consts  --      1.7599                 5.7933                 1.8840
 IR Inten    --     26.6931               115.7185                53.9116

                     61                     62                     63
                      A                      A                      A
 Frequencies --   1411.6594              1413.6893              1438.5803
 Red. masses --      2.9076                 4.0202                 1.4762
 Frc consts  --      3.4138                 4.7338                 1.8000
 IR Inten    --     41.4724                35.4089                 5.9348

                     64                     65                     66
                      A                      A                      A
 Frequencies --   1443.0124              1461.4005              1498.2829
 Red. masses --      1.4658                 2.0666                 1.4190
 Frc consts  --      1.7983                 2.6004                 1.8768
 IR Inten    --      5.8077                11.5193                25.7727

                     67                     68                     69
                      A                      A                      A
 Frequencies --   1499.0249              1504.6894              1527.5842
 Red. masses --      2.3681                 1.0830                 3.0775
 Frc consts  --      3.1353                 1.4447                 4.2312
 IR Inten    --     37.7623                 5.4761                11.5166

                     70                     71                     72
                      A                      A                      A
 Frequencies --   1528.1874              1534.8014              1570.8793
 Red. masses --      1.0462                 1.0838                 6.6329
 Frc consts  --      1.4395                 1.5042                 9.6436
 IR Inten    --      8.1885                 2.5467                18.9449

                     73                     74                     75
                      A                      A                      A
 Frequencies --   1578.4726              1629.9003              1635.5533
 Red. masses --      4.9450                 6.1910                 8.5660
 Frc consts  --      7.2592                 9.6903                13.5007
 IR Inten    --     12.8985                 3.9838                96.2545

                     76                     77                     78
                      A                      A                      A
 Frequencies --   1661.7117              1793.6974              2895.2032
 Red. masses --      6.6303                 9.5702                 1.0831
 Frc consts  --     10.7869                18.1413                 5.3488
 IR Inten    --    148.6149               294.1284               167.5703

                     79                     80                     81
                      A                      A                      A
 Frequencies --   3065.3037              3068.8788              3087.2470
 Red. masses --      1.0450                 1.0554                 1.0595
 Frc consts  --      5.7852                 5.8563                 5.9494
 IR Inten    --     13.5046                16.7092                19.5922

                     82                     83                     84
                      A                      A                      A
 Frequencies --   3127.1722              3137.8119              3140.0734
 Red. masses --      1.0989                 1.1066                 1.1039
 Frc consts  --      6.3315                 6.4192                 6.4128
 IR Inten    --      1.3342                 1.9803                21.7519

                     85                     86                     87
                      A                      A                      A
 Frequencies --   3149.4265              3185.1948              3216.0032
 Red. masses --      1.1024                 1.0884                 1.0907
 Frc consts  --      6.4427                 6.5060                 6.6467
 IR Inten    --     19.3517                 8.3116                 2.2776

                     88                     89                     90
                      A                      A                      A
 Frequencies --   3218.8360              3263.3996              3281.8402
 Red. masses --      1.0933                 1.0896                 1.1044
 Frc consts  --      6.6743                 6.8366                 7.0082
 IR Inten    --      4.2226                 0.4572                 3.1175

 - Thermochemistry -
 -------------------
 Temperature   298.150 Kelvin.  Pressure   1.00000 Atm.
 Atom     1 has atomic number  6 and mass  12.00000

 Molecular mass:   255.10078 amu.
 Principal axes and moments of inertia in atomic units:
                           1         2         3
     Eigenvalues --  2425.741119713.73481**********
           X            0.99991  -0.00684  -0.01164
           Y            0.00681   0.99997  -0.00203
           Z            0.01165   0.00195   0.99993
 This molecule is an asymmetric top.
 Rotational symmetry number  1.
 Warning -- assumption of classical behavior for rotation
           may cause significant error
 Rotational temperatures (Kelvin)      0.03571     0.00892     0.00822
 Rotational constants (GHZ):           0.74400     0.18579     0.17137
 Zero-point vibrational energy     662291.8 (Joules/Mol)
                                  158.29154 (Kcal/Mol)
 Warning -- explicit consideration of  24 degrees of freedom as
           vibrations may cause significant error
 Vibrational temperatures:     25.17    35.65    48.15    65.82   116.16
          (Kelvin)            181.23   222.08   241.20   264.52   284.89
                              322.95   369.45   424.82   465.43   521.14
                              556.03   603.41   629.04   637.42   689.33
                              843.84   879.26   880.88   892.58   901.97
                             1003.06  1044.90  1067.22  1078.71  1124.57
                             1139.40  1149.95  1174.47  1188.53  1220.86
                             1228.12  1332.62  1340.30  1353.14  1390.86
                             1406.45  1415.57  1469.54  1483.98  1514.35
                             1549.17  1570.11  1606.99  1616.48  1666.33
                             1697.88  1748.46  1809.85  1822.80  1858.98
                             1906.08  1926.43  1967.83  1989.45  1993.62
                             2031.06  2033.98  2069.80  2076.17  2102.63
                             2155.69  2156.76  2164.91  2197.85  2198.72
                             2208.24  2260.14  2271.07  2345.06  2353.20
                             2390.83  2580.73  4165.55  4410.29  4415.43
                             4441.86  4499.30  4514.61  4517.87  4531.32
                             4582.78  4627.11  4631.19  4695.30  4721.84

 Zero-point correction=                           0.252254 (Hartree/Particle)
 Thermal correction to Energy=                    0.268384
 Thermal correction to Enthalpy=                  0.269328
 Thermal correction to Gibbs Free Energy=         0.205409
 Sum of electronic and zero-point Energies=           -855.801660
 Sum of electronic and thermal Energies=              -855.785530
 Sum of electronic and thermal Enthalpies=            -855.784586
 Sum of electronic and thermal Free Energies=         -855.848505

                     E (Thermal)             CV                S
                      KCal/Mol        Cal/Mol-Kelvin    Cal/Mol-Kelvin
 Total                  168.413             60.825            134.528
 Electronic               0.000              0.000              0.000
 Translational            0.889              2.981             42.509
 Rotational               0.889              2.981             33.872
 Vibrational            166.636             54.864             58.146
 Vibration     1          0.593              1.986              6.900
 Vibration     2          0.593              1.985              6.209
 Vibration     3          0.594              1.983              5.613
 Vibration     4          0.595              1.979              4.993
 Vibration     5          0.600              1.962              3.873
 Vibration     6          0.611              1.927              3.007
 Vibration     7          0.620              1.898              2.618
 Vibration     8          0.624              1.882              2.462
 Vibration     9          0.631              1.862              2.289
 Vibration    10          0.637              1.843              2.152
 Vibration    11          0.649              1.804              1.923
 Vibration    12          0.666              1.751              1.684
 Vibration    13          0.689              1.683              1.444
 Vibration    14          0.708              1.628              1.292
 Vibration    15          0.736              1.550              1.113
 Vibration    16          0.755              1.499              1.014
 Vibration    17          0.782              1.428              0.894
 Vibration    18          0.798              1.389              0.835
 Vibration    19          0.803              1.376              0.817
 Vibration    20          0.836              1.296              0.712
 Vibration    21          0.944              1.061              0.473
 Vibration    22          0.970              1.008              0.431
 Vibration    23          0.971              1.006              0.429
 Vibration    24          0.980              0.989              0.416

 Optimization completed.
    -- Stationary point found.
 Normal termination of Gaussian 16 at Sun Dec 13 20:42:50 2020.

 ----------------------------------------------------------------------
 # B3LYP/6-311++G(d,p) empiricaldispersion=gd3bj scf=xqc pop=npa geom=c
 heck
 ----------------------------------------------------------------------

 ---------------------------------------
 CID_102910383_JID_9494_Energie_neutraal
 ---------------------------------------
 Structure from the checkpoint file:  "JID_9494.chk"
 Charge =  0 Multiplicity = 1

 SCF Done:  E(RB3LYP) =  -856.278547408     A.U. after   16 cycles
 Normal termination of Gaussian 16 at Sun Dec 13 20:48:41 2020.

 ----------------------------------------------------------------------
 # B3LYP/6-311++G(d,p) empiricaldispersion=gd3bj scf=xqc pop=npa geom=c
 heck
 ----------------------------------------------------------------------

 -------------------------------------
 CID_102910383_JID_9494_Energie_kation
 -------------------------------------
 Structure from the checkpoint file:  "JID_9494.chk"
 Charge =  1 Multiplicity = 2

 SCF Done:  E(UB3LYP) =  -855.990368715     A.U. after   25 cycles
 Normal termination of Gaussian 16 at Sun Dec 13 21:01:12 2020.
 Gaussian 16:  ES64L-G16RevA.03 25-Dec-2016

 ----------------------------------------------------------------------
 # B3LYP/6-311++G(d,p) empiricaldispersion=gd3bj scf=xqc pop=npa geom=c
 heck
 ----------------------------------------------------------------------

 ------------------------------------
 CID_102910383_JID_9494_Energie_anion
 ------------------------------------
 Structure from the checkpoint file:  "JID_9494.chk"
 Charge = -1 Multiplicity = 2

                         Standard orientation:
 ---------------------------------------------------------------------
 Center     Atomic      Atomic             Coordinates (Angstroms)
 Number     Number       Type             X           Y           Z
 ---------------------------------------------------------------------
      1          6           0        5.638088   -1.134481   -0.979964
      2          6           0        4.182833   -1.027350   -1.467391
      3          6           0        3.264872   -0.514058   -0.412349
      4          7           0        2.583847    0.597194   -0.387884
      5          6           0        1.949412    0.527905    0.833144
      6          7           0        2.210929   -0.546542    1.532653
      7          8           0        3.100089   -1.254786    0.703035
      8          6           0        0.989419    1.573486    1.318424
      9          7           0       -0.203397    1.629344    0.496840
     10          6           0       -0.469853    2.578133   -0.484465
     11          6           0       -1.639491    2.274515   -1.121669
     12          6           0       -2.137794    1.060111   -0.531501
     13          6           0       -1.200288    0.675671    0.475608
     14          6           0       -1.352299   -0.483017    1.247078
     15          6           0       -2.479070   -1.255257    1.009144
     16          6           0       -3.430666   -0.891568    0.028226
     17          6           0       -3.262658    0.262062   -0.743644
     18          6           0       -4.609358   -1.749260   -0.183650
     19          8           0       -5.491390   -1.541478   -0.998064
     20          1           0        6.020195   -0.155393   -0.674118
     21          1           0        6.275100   -1.515017   -1.783841
     22          1           0        5.715887   -1.814961   -0.127060
     23          1           0        4.103412   -0.348362   -2.320032
     24          1           0        3.826156   -2.012273   -1.792122
     25          1           0        0.717443    1.358301    2.355884
     26          1           0        1.468097    2.555663    1.286662
     27          1           0        0.218352    3.398155   -0.633460
     28          1           0       -2.100888    2.845027   -1.914996
     29          1           0       -0.611688   -0.777664    1.982909
     30          1           0       -2.638302   -2.165481    1.582052
     31          1           0       -4.010568    0.506022   -1.491678
     32          1           0       -4.651322   -2.645222    0.476826
 ---------------------------------------------------------------------

 SCF Done:  E(UB3LYP) =  -856.288253909     A.U. after   31 cycles

 The electronic state is 2-A.
 Alpha  occ. eigenvalues --  -19.11071 -18.96228 -14.26251 -14.26234 -14.21865
 Alpha  occ. eigenvalues --  -10.16944 -10.14109 -10.14045 -10.10405 -10.10248
 Alpha  occ. eigenvalues --  -10.09981 -10.09172 -10.08409 -10.06300 -10.06207
 Alpha  occ. eigenvalues --  -10.06145 -10.06095 -10.04708 -10.04644  -1.06143
 Alpha  occ. eigenvalues --   -0.89538  -0.89287  -0.83853  -0.78289  -0.73922
 Alpha  occ. eigenvalues --   -0.70542  -0.68937  -0.64889  -0.62480  -0.60478
 Alpha  occ. eigenvalues --   -0.57558  -0.53952  -0.51953  -0.49899  -0.49063
 Alpha  occ. eigenvalues --   -0.47052  -0.44321  -0.42668  -0.41098  -0.39946
 Alpha  occ. eigenvalues --   -0.38914  -0.37106  -0.35508  -0.34987  -0.34894
 Alpha  occ. eigenvalues --   -0.34319  -0.32850  -0.31710  -0.31110  -0.30307
 Alpha  occ. eigenvalues --   -0.29674  -0.29004  -0.28647  -0.28420  -0.27588
 Alpha  occ. eigenvalues --   -0.26541  -0.26215  -0.24233  -0.23421  -0.22587
 Alpha  occ. eigenvalues --   -0.21565  -0.20221  -0.19165  -0.17448  -0.12170
 Alpha  occ. eigenvalues --   -0.11811  -0.10701   0.03318
 Alpha virt. eigenvalues --    0.04668   0.06421   0.07126   0.08266   0.08567
 Alpha virt. eigenvalues --    0.08953   0.09179   0.09537   0.09738   0.10264
 Alpha virt. eigenvalues --    0.11225   0.11855   0.12260   0.12662   0.12948

  Beta  occ. eigenvalues --  -19.10926 -18.95901 -14.26268 -14.26068 -14.21874
  Beta  occ. eigenvalues --  -10.16769 -10.14110 -10.14013 -10.10402 -10.10256
  Beta  occ. eigenvalues --  -10.09756 -10.09026 -10.08351 -10.06356 -10.06194
  Beta  occ. eigenvalues --  -10.06136 -10.06063 -10.04650 -10.04452  -1.05899
  Beta  occ. eigenvalues --   -0.89248  -0.88922  -0.83731  -0.78037  -0.73775
  Beta  occ. eigenvalues --   -0.70480  -0.68832  -0.64652  -0.62329  -0.60326
  Beta  occ. eigenvalues --   -0.57382  -0.53623  -0.51800  -0.49750  -0.48933
  Beta  occ. eigenvalues --   -0.46914  -0.44020  -0.42548  -0.41006  -0.39470
  Beta  occ. eigenvalues --   -0.38782  -0.37050  -0.35358  -0.34845  -0.34780
  Beta  occ. eigenvalues --   -0.34192  -0.32704  -0.31602  -0.31033  -0.30140
  Beta  occ. eigenvalues --   -0.29429  -0.28959  -0.28518  -0.28177  -0.27504
  Beta  occ. eigenvalues --   -0.26035  -0.25234  -0.24049  -0.23043  -0.22421
  Beta  occ. eigenvalues --   -0.20853  -0.20131  -0.18405  -0.17015  -0.11592
  Beta  occ. eigenvalues --   -0.11527  -0.10139
  Beta virt. eigenvalues --    0.05779   0.06988   0.07616   0.07867   0.08333
  Beta virt. eigenvalues --    0.08651   0.09168   0.09434   0.09640   0.10056
  Beta virt. eigenvalues --    0.10262   0.11192   0.12016   0.12342   0.12677

 Mulliken charges and spin densities:
               1          2
     1  C    0.534781  -0.980677
     2  C   -1.490073   1.288846
     3  C    0.620157  -0.748707
     4  N   -0.028306   0.007745
     5  C    0.982078  -0.337616
     6  N   -0.275694   0.100933
     7  O    0.188161   0.030298
     8  C   -1.053980   0.020462
     9  N    0.429724  -0.007418
    10  C   -0.191646   0.014033
    11  C    0.077068   0.025790
    12  C    0.019568  -0.067411
    13  C   -0.053600   0.082381
    14  C   -0.313643   0.020339
    15  C   -0.884930   0.014253
    16  C    0.710476  -0.012062
    17  C   -0.404155   0.214224
    18  C   -0.326354   0.166692
    19  O   -0.352479   0.111285
    20  H    0.020090   0.116564
    21  H   -0.477598   0.646580
    22  H    0.057751   0.090583
    23  H    0.104740   0.054453
    24  H    0.021709   0.159522
    25  H    0.187831   0.011100
    26  H    0.159220  -0.000656
    27  H    0.123584   0.007944
    28  H    0.144258  -0.000465
    29  H    0.126007   0.000205
    30  H    0.138070  -0.000745
    31  H    0.153891  -0.014701
    32  H    0.053291  -0.013774
 Sum of Mulliken charges =  -1.00000   1.00000

 Dipole moment (field-independent basis, Debye):
    X=              4.4681    Y=              4.9354    Z=              3.0056  Tot=              7.3045
 Quadrupole moment (field-independent basis, Debye-Ang):
   XX=           -230.1151   YY=           -127.2490   ZZ=           -128.6589
   XY=             -0.4706   XZ=             -2.2399   YZ=             -3.4382

 Summary of Natural Population Analysis:

                                       Natural Population
                Natural  -----------------------------------------------
    Atom  No    Charge         Core      Valence    Rydberg      Total
 -----------------------------------------------------------------------
      C    1   -0.27950      0.99966     2.27521    0.00463     3.27950
      C    2   -0.22373      0.99960     2.21439    0.00974     3.22373
      C    3    0.31524      0.99963     1.66593    0.01920     2.68476
      N    4   -0.27405      0.99967     2.76560    0.00878     3.77405
      C    5    0.16542      0.99964     1.81692    0.01802     2.83458
      N    6   -0.07356      0.99966     2.56000    0.01390     3.57356
      O    7   -0.16267      0.99985     3.15458    0.00824     4.16267
      C    8   -0.09620      0.99957     2.08695    0.00968     3.09620
      N    9   -0.21298      0.99961     2.70362    0.00974     3.71298
      C   10    0.00042      0.99957     1.98953    0.01048     2.99958
      C   11   -0.13435      0.99953     2.12610    0.00871     3.13435
      C   12   -0.05795      0.99951     2.05050    0.00794     3.05795
      C   13    0.11332      0.99949     1.87677    0.01042     2.88668
      C   14   -0.13395      0.99954     2.12674    0.00767     3.13395
      C   15   -0.08058      0.99956     2.07216    0.00886     3.08058
      C   16   -0.08921      0.99950     2.08089    0.00882     3.08921
      C   17   -0.02449      0.99949     2.01639    0.00861     3.02449
      C   18    0.23705      0.99968     1.74264    0.02064     2.76295
      O   19   -0.26646      0.99988     3.25886    0.00771     4.26646
      H   20    0.09825      0.00000     0.40080    0.00095     0.40175
      H   21    0.10168      0.00000     0.39641    0.00192     0.39832
      H   22    0.10122      0.00000     0.39755    0.00123     0.39878
      H   23    0.11128      0.00000     0.38749    0.00123     0.38872
      H   24    0.11196      0.00000     0.38677    0.00128     0.38804
      H   25    0.10833      0.00000     0.39061    0.00105     0.39167
      H   26    0.10644      0.00000     0.39258    0.00097     0.39356
      H   27    0.09625      0.00000     0.40288    0.00087     0.40375
      H   28    0.10260      0.00000     0.39651    0.00089     0.39740
      H   29    0.10541      0.00000     0.39309    0.00150     0.39459
      H   30    0.09493      0.00000     0.40381    0.00126     0.40507
      H   31    0.10731      0.00000     0.39175    0.00094     0.39269
      H   32    0.03258      0.00000     0.46469    0.00273     0.46742
 =======================================================================
   * Total *    0.00002     18.99265    47.78873    0.21861    66.99998

 Normal termination of Gaussian 16 at Sun Dec 13 21:16:53 2020.
