 Gaussian 16, Revision A.03,

 -----------------------------------------------------------
 # opt freq B3LYP/6-31G(d) empiricaldispersion=gd3bj scf=xqc
 -----------------------------------------------------------

 -------------------------------
 CID_149696920_JID_8951_neutraal
 -------------------------------
 Symbolic Z-matrix:
 Charge =  0 Multiplicity = 1

 SCF Done:  E(RB3LYP) =  -842.276596164     A.U. after   17 cycles
 SCF Done:  E(RB3LYP) =  -842.285649528     A.U. after   15 cycles
 SCF Done:  E(RB3LYP) =  -842.287854753     A.U. after   15 cycles
 SCF Done:  E(RB3LYP) =  -842.289131726     A.U. after   14 cycles
 SCF Done:  E(RB3LYP) =  -842.289474839     A.U. after   14 cycles
 SCF Done:  E(RB3LYP) =  -842.289583749     A.U. after   13 cycles
 SCF Done:  E(RB3LYP) =  -842.289650820     A.U. after   12 cycles
 SCF Done:  E(RB3LYP) =  -842.289739406     A.U. after   13 cycles
 SCF Done:  E(RB3LYP) =  -842.289823971     A.U. after   14 cycles
 SCF Done:  E(RB3LYP) =  -842.289997692     A.U. after   16 cycles
 SCF Done:  E(RB3LYP) =  -842.295746580     A.U. after    7 cycles
 SCF Done:  E(RB3LYP) =  -842.295746590     A.U. after    8 cycles
 SCF Done:  E(RB3LYP) =  -842.295746600     A.U. after    8 cycles
 SCF Done:  E(RB3LYP) =  -842.295746612     A.U. after    8 cycles
 SCF Done:  E(RB3LYP) =  -842.295746623     A.U. after    8 cycles
 SCF Done:  E(RB3LYP) =  -842.295746629     A.U. after    8 cycles
 Optimization completed.
    -- Stationary point found.

 1\1\GINC-NODE100\FOpt\RB3LYP\6-31G(d)\C9H11N9\VSC10255\11-Dec-2020\0\\
 # opt freq B3LYP/6-31G(d) empiricaldispersion=gd3bj scf=xqc\\CID_14969
 6920_JID_8951_neutraal\\0,1\C,0.9007047239,-0.9676841017,-0.0293774956
 \C,-0.530936126,-1.4375953804,-0.3247245002\N,-1.4605359736,-0.3280729
 654,-0.1395213124\C,-1.1339497151,0.876608331,-0.8949144164\C,0.309016
 8106,1.3050442237,-0.589761281\N,1.2931003708,0.2351066721,-0.76828341
 21\C,-2.5919180457,-0.4319403037,0.6159123718\N,-2.8109003491,-1.62411
 14317,1.2405023104\C,-3.8964464787,-1.7652009607,1.9957804558\C,-4.801

 Normal termination of Gaussian 16 at Fri Dec 11 23:27:25 2020.

 --------------------------------------------------------------------
 #N Geom=AllCheck Guess=TCheck SCRF=Check GenChk RB3LYP/6-31G(d) Freq
 --------------------------------------------------------------------

 Structure from the checkpoint file:  "JID_8951.chk"
 -------------------------------
 CID_149696920_JID_8951_neutraal
 -------------------------------
 Charge =  0 Multiplicity = 1

 SCF Done:  E(RB3LYP) =  -842.295746629     A.U. after    1 cycles

  Exact polarizability: 216.171   7.241 169.422  16.008   7.070  85.264
 Approx polarizability: 321.948  22.494 293.836  45.364  24.864 147.256

                      1                      2                      3
                      A                      A                      A
 Frequencies --     10.3212                35.7528                58.2062
 Red. masses --      4.7487                 6.1424                 5.0039
 Frc consts  --      0.0003                 0.0046                 0.0100
 IR Inten    --      0.7178                 0.3408                 0.0549

                      4                      5                      6
                      A                      A                      A
 Frequencies --     81.4538               112.2030               130.1077
 Red. masses --      8.3848                 7.2865                 4.9956
 Frc consts  --      0.0328                 0.0540                 0.0498
 IR Inten    --      0.2309                 1.3809                 0.3241

                      7                      8                      9
                      A                      A                      A
 Frequencies --    173.7233               220.7556               263.9914
 Red. masses --      7.5196                 3.7118                 2.5197
 Frc consts  --      0.1337                 0.1066                 0.1035
 IR Inten    --      0.3631                 0.2839                 7.8246

                     10                     11                     12
                      A                      A                      A
 Frequencies --    267.2417               287.5381               318.8175
 Red. masses --      5.3287                 3.6216                 7.3991
 Frc consts  --      0.2242                 0.1764                 0.4431
 IR Inten    --      1.5037                 3.4672                 2.6983

                     13                     14                     15
                      A                      A                      A
 Frequencies --    342.3845               408.8052               446.0690
 Red. masses --      7.0745                 1.8076                 3.3470
 Frc consts  --      0.4886                 0.1780                 0.3924
 IR Inten    --      0.2899                 6.0045                 2.1663

                     16                     17                     18
                      A                      A                      A
 Frequencies --    455.9248               484.0914               488.1384
 Red. masses --      3.6440                 3.3941                 7.1463
 Frc consts  --      0.4463                 0.4686                 1.0033
 IR Inten    --     11.4697                 0.7888                 0.9730

                     19                     20                     21
                      A                      A                      A
 Frequencies --    505.4300               522.0872               578.0733
 Red. masses --     13.7973                 5.0396                 3.6482
 Frc consts  --      2.0767                 0.8093                 0.7183
 IR Inten    --      7.9829                 0.5416                 8.9044

                     22                     23                     24
                      A                      A                      A
 Frequencies --    603.4773               622.6371               647.5084
 Red. masses --      2.7183                 4.7879                 3.9143
 Frc consts  --      0.5833                 1.0936                 0.9669
 IR Inten    --      5.0350                15.1599                 0.5181

                     25                     26                     27
                      A                      A                      A
 Frequencies --    717.9659               743.0130               795.1793
 Red. masses --     10.2642                 6.2838                 5.8103
 Frc consts  --      3.1173                 2.0439                 2.1646
 IR Inten    --      4.6787                15.8657                15.1924

                     28                     29                     30
                      A                      A                      A
 Frequencies --    806.2172               811.8768               825.1354
 Red. masses --      6.3936                 2.4274                 1.5293
 Frc consts  --      2.4485                 0.9427                 0.6135
 IR Inten    --     48.7889               160.3825                 2.9602

                     31                     32                     33
                      A                      A                      A
 Frequencies --    830.5712               850.8098               882.7586
 Red. masses --      5.7878                 1.6749                 2.6707
 Frc consts  --      2.3524                 0.7143                 1.2262
 IR Inten    --     13.1724                 0.5044                68.4218

                     34                     35                     36
                      A                      A                      A
 Frequencies --    919.1231               929.5233               972.2640
 Red. masses --      2.7991                 2.4499                 1.4411
 Frc consts  --      1.3932                 1.2472                 0.8026
 IR Inten    --     16.6763                 5.0189                 5.8956

                     37                     38                     39
                      A                      A                      A
 Frequencies --   1002.7521              1038.4733              1041.5272
 Red. masses --      2.8586                 2.4593                 1.5354
 Frc consts  --      1.6935                 1.5626                 0.9813
 IR Inten    --     14.9953                20.9022                 5.9931

                     40                     41                     42
                      A                      A                      A
 Frequencies --   1078.2865              1098.8921              1150.8821
 Red. masses --      2.6204                 7.6262                 4.0076
 Frc consts  --      1.7951                 5.4258                 3.1275
 IR Inten    --      3.5798                23.7485                31.4225

                     43                     44                     45
                      A                      A                      A
 Frequencies --   1174.0944              1186.5593              1213.6879
 Red. masses --      2.3954                 2.2409                 4.7778
 Frc consts  --      1.9455                 1.8589                 4.1466
 IR Inten    --     11.3895                11.2813                13.7134

                     46                     47                     48
                      A                      A                      A
 Frequencies --   1220.2096              1248.2846              1268.5585
 Red. masses --      1.1348                 2.9840                 3.1165
 Frc consts  --      0.9955                 2.7396                 2.9549
 IR Inten    --      4.1933                11.3728               113.7549

                     49                     50                     51
                      A                      A                      A
 Frequencies --   1285.7217              1305.9362              1321.3421
 Red. masses --      1.7993                 2.2355                 2.4536
 Frc consts  --      1.7524                 2.2463                 2.5239
 IR Inten    --     85.1661                13.9318                22.9837

                     52                     53                     54
                      A                      A                      A
 Frequencies --   1325.7482              1359.7644              1368.8893
 Red. masses --      2.7664                 1.3371                 1.2608
 Frc consts  --      2.8648                 1.4566                 1.3919
 IR Inten    --     83.0919                11.3602                 1.4042

                     55                     56                     57
                      A                      A                      A
 Frequencies --   1379.8296              1392.8058              1411.6733
 Red. masses --      2.1282                 1.3170                 2.9123
 Frc consts  --      2.3874                 1.5052                 3.4194
 IR Inten    --    121.9251                14.0415               116.3844

                     58                     59                     60
                      A                      A                      A
 Frequencies --   1416.4897              1430.4268              1478.2945
 Red. masses --      1.3466                 2.0711                 5.2180
 Frc consts  --      1.5919                 2.4968                 6.7186
 IR Inten    --      6.7107                21.4398                36.4147

                     61                     62                     63
                      A                      A                      A
 Frequencies --   1498.2711              1505.2209              1509.2120
 Red. masses --      1.0816                 1.1544                 1.1156
 Frc consts  --      1.4305                 1.5411                 1.4972
 IR Inten    --      0.9614                13.2079                21.0780

                     64                     65                     66
                      A                      A                      A
 Frequencies --   1519.1904              1519.9639              1533.0211
 Red. masses --      1.1233                 1.1883                 4.4662
 Frc consts  --      1.5275                 1.6174                 6.1842
 IR Inten    --      7.5017                43.2527                14.6519

                     67                     68                     69
                      A                      A                      A
 Frequencies --   1583.0588              1607.1346              1678.7378
 Red. masses --      5.1753                 8.5337                 9.3193
 Frc consts  --      7.6416                12.9865                15.4739
 IR Inten    --    654.3217               112.4276               359.7183

                     70                     71                     72
                      A                      A                      A
 Frequencies --   2241.8812              2987.8198              2993.1767
 Red. masses --     13.9980                 1.0736                 1.0742
 Frc consts  --     41.4516                 5.6466                 5.6702
 IR Inten    --    331.2401                15.5213               123.0869

                     73                     74                     75
                      A                      A                      A
 Frequencies --   3048.5347              3052.6954              3100.3889
 Red. masses --      1.0606                 1.0620                 1.1047
 Frc consts  --      5.8076                 5.8307                 6.2565
 IR Inten    --     34.1448                46.1348                30.8877

                     76                     77                     78
                      A                      A                      A
 Frequencies --   3100.9822              3168.9725              3173.0049
 Red. masses --      1.1053                 1.0897                 1.0895
 Frc consts  --      6.2620                 6.4475                 6.4631
 IR Inten    --     58.7783                 4.4809                 5.2304

                     79                     80                     81
                      A                      A                      A
 Frequencies --   3182.2203              3279.4991              3460.9748
 Red. masses --      1.0922                 1.0976                 1.0735
 Frc consts  --      6.5163                 6.9550                 7.5763
 IR Inten    --     22.5049                 0.9203                 3.1896

 - Thermochemistry -
 -------------------
 Temperature   298.150 Kelvin.  Pressure   1.00000 Atm.
 Atom     1 has atomic number  6 and mass  12.00000

 Molecular mass:   245.11374 amu.
 Principal axes and moments of inertia in atomic units:
                           1         2         3
     Eigenvalues --  2349.997306413.623478435.23227
           X            0.99996   0.00915   0.00066
           Y           -0.00915   0.99995  -0.00458
           Z           -0.00071   0.00458   0.99999
 This molecule is an asymmetric top.
 Rotational symmetry number  1.
 Warning -- assumption of classical behavior for rotation
           may cause significant error
 Rotational temperatures (Kelvin)      0.03686     0.01350     0.01027
 Rotational constants (GHZ):           0.76798     0.28139     0.21395
 Zero-point vibrational energy     592703.4 (Joules/Mol)
                                  141.65951 (Kcal/Mol)
 Warning -- explicit consideration of  22 degrees of freedom as
           vibrations may cause significant error
 Vibrational temperatures:     14.85    51.44    83.75   117.19   161.44
          (Kelvin)            187.20   249.95   317.62   379.82   384.50
                              413.70   458.71   492.61   588.18   641.79
                              655.97   696.50   702.32   727.20   751.17
                              831.72   868.27   895.84   931.62  1032.99
                             1069.03  1144.09  1159.97  1168.11  1187.19
                             1195.01  1224.13  1270.09  1322.41  1337.38
                             1398.87  1442.74  1494.13  1498.53  1551.41
                             1581.06  1655.86  1689.26  1707.19  1746.23
                             1755.61  1796.00  1825.17  1849.87  1878.95
                             1901.12  1907.46  1956.40  1969.53  1985.27
                             2003.94  2031.08  2038.01  2058.07  2126.94
                             2155.68  2165.68  2171.42  2185.78  2186.89
                             2205.68  2277.67  2312.31  2415.33  3225.57
                             4298.81  4306.51  4386.16  4392.15  4460.77
                             4461.62  4559.44  4565.25  4578.51  4718.47
                             4979.57

 Zero-point correction=                           0.225749 (Hartree/Particle)
 Thermal correction to Energy=                    0.240192
 Thermal correction to Enthalpy=                  0.241136
 Thermal correction to Gibbs Free Energy=         0.181622
 Sum of electronic and zero-point Energies=           -842.069998
 Sum of electronic and thermal Energies=              -842.055555
 Sum of electronic and thermal Enthalpies=            -842.054611
 Sum of electronic and thermal Free Energies=         -842.114125

                     E (Thermal)             CV                S
                      KCal/Mol        Cal/Mol-Kelvin    Cal/Mol-Kelvin
 Total                  150.723             55.148            125.257
 Electronic               0.000              0.000              0.000
 Translational            0.889              2.981             42.390
 Rotational               0.889              2.981             33.208
 Vibrational            148.945             49.186             49.659
 Vibration     1          0.593              1.987              7.948
 Vibration     2          0.594              1.982              5.482
 Vibration     3          0.596              1.974              4.517
 Vibration     4          0.600              1.962              3.856
 Vibration     5          0.607              1.939              3.230
 Vibration     6          0.612              1.923              2.944
 Vibration     7          0.627              1.875              2.395
 Vibration     8          0.647              1.809              1.953
 Vibration     9          0.671              1.739              1.635
 Vibration    10          0.672              1.733              1.614
 Vibration    11          0.685              1.697              1.488
 Vibration    12          0.705              1.638              1.316
 Vibration    13          0.722              1.591              1.201
 Vibration    14          0.773              1.451              0.931
 Vibration    15          0.805              1.370              0.808
 Vibration    16          0.814              1.348              0.778
 Vibration    17          0.840              1.285              0.699
 Vibration    18          0.844              1.276              0.688
 Vibration    19          0.861              1.238              0.645
 Vibration    20          0.877              1.201              0.605
 Vibration    21          0.935              1.079              0.489
 Vibration    22          0.962              1.024              0.444

 Optimization completed.
    -- Stationary point found.

 1\1\GINC-NODE100\Freq\RB3LYP\6-31G(d)\C9H11N9\VSC10255\11-Dec-2020\0\\
 #N Geom=AllCheck Guess=TCheck SCRF=Check GenChk RB3LYP/6-31G(d) Freq\\
 CID_149696920_JID_8951_neutraal\\0,1\C,0.9007047239,-0.9676841017,-0.0
 293774956\C,-0.530936126,-1.4375953804,-0.3247245002\N,-1.4605359736,-
 0.3280729654,-0.1395213124\C,-1.1339497151,0.876608331,-0.8949144164\C
 ,0.3090168106,1.3050442237,-0.589761281\N,1.2931003708,0.2351066721,-0
 .7682834121\C,-2.5919180457,-0.4319403037,0.6159123718\N,-2.8109003491
 ,-1.6241114317,1.2405023104\C,-3.8964464787,-1.7652009607,1.9957804558

 Normal termination of Gaussian 16 at Fri Dec 11 23:38:41 2020.

 ----------------------------------------------------------------------
 # B3LYP/6-311++G(d,p) empiricaldispersion=gd3bj scf=xqc pop=npa geom=c
 heck
 ----------------------------------------------------------------------

 ---------------------------------------
 CID_149696920_JID_8951_Energie_neutraal
 ---------------------------------------
 Structure from the checkpoint file:  "JID_8951.chk"
 Charge =  0 Multiplicity = 1

 SCF Done:  E(RB3LYP) =  -842.516715887     A.U. after   18 cycles
 Normal termination of Gaussian 16 at Fri Dec 11 23:44:42 2020.

 ----------------------------------------------------------------------
 # B3LYP/6-311++G(d,p) empiricaldispersion=gd3bj scf=xqc pop=npa geom=c
 heck
 ----------------------------------------------------------------------

 -------------------------------------
 CID_149696920_JID_8951_Energie_kation
 -------------------------------------
 Structure from the checkpoint file:  "JID_8951.chk"
 Charge =  1 Multiplicity = 2

 SCF Done:  E(UB3LYP) =  -842.246913250     A.U. after   26 cycles
 Normal termination of Gaussian 16 at Fri Dec 11 23:57:11 2020.
 Gaussian 16:  ES64L-G16RevA.03 25-Dec-2016

 ------------------------------------
 CID_149696920_JID_8951_Energie_anion
 ------------------------------------
 Structure from the checkpoint file:  "JID_8951.chk"
 Charge = -1 Multiplicity = 2

                         Standard orientation:
 ---------------------------------------------------------------------
 Center     Atomic      Atomic             Coordinates (Angstroms)
 Number     Number       Type             X           Y           Z
 ---------------------------------------------------------------------
      1          6           0       -4.082724    0.720980    0.414546
      2          6           0       -2.970899    1.046663   -0.593132
      3          7           0       -1.819837    0.182912   -0.351295
      4          6           0       -2.118336   -1.245112   -0.337817
      5          6           0       -3.246057   -1.529931    0.665155
      6          7           0       -4.436352   -0.699887    0.466960
      7          6           0       -0.549229    0.664454   -0.228142
      8          7           0       -0.390985    2.016886   -0.300431
      9          6           0        0.829633    2.529739   -0.174597
     10          6           0        1.935851    1.703470    0.029387
     11          6           0        1.629337    0.329882    0.082664
     12          7           0        0.443210   -0.240109   -0.040082
     13          7           0        2.853228   -0.283221    0.260427
     14          6           0        3.811627    0.726506    0.337588
     15          7           0        3.301318    1.919710    0.197492
     16          7           0        3.119337   -1.629825    0.536711
     17          7           0        2.471329   -2.406693   -0.210262
     18          7           0        1.950159   -3.261821   -0.749449
     19          1           0       -3.749743    1.020070    1.416687
     20          1           0       -4.981582    1.300980    0.177209
     21          1           0       -2.646883    2.083570   -0.518110
     22          1           0       -3.339160    0.872601   -1.617869
     23          1           0       -2.436411   -1.553087   -1.347730
     24          1           0       -1.209982   -1.791660   -0.087476
     25          1           0       -2.871685   -1.341810    1.679606
     26          1           0       -3.536026   -2.585138    0.609149
     27          1           0       -4.879223   -0.962695   -0.414192
     28          1           0        0.923597    3.612359   -0.238548
     29          1           0        4.852012    0.479234    0.496862
 ---------------------------------------------------------------------

 SCF Done:  E(UB3LYP) =  -842.532654469     A.U. after   31 cycles

 The electronic state is 2-A.
 Alpha  occ. eigenvalues --  -14.28617 -14.26610 -14.23569 -14.22587 -14.21366
 Alpha  occ. eigenvalues --  -14.20574 -14.18121 -14.17861 -14.17756 -10.15041
 Alpha  occ. eigenvalues --  -10.11214 -10.11126 -10.10630 -10.10250 -10.10114
 Alpha  occ. eigenvalues --  -10.09608 -10.08575 -10.06822  -0.98332  -0.91489
 Alpha  occ. eigenvalues --   -0.88303  -0.83903  -0.82803  -0.79591  -0.76791
 Alpha  occ. eigenvalues --   -0.72306  -0.67314  -0.65270  -0.59534  -0.56648
 Alpha  occ. eigenvalues --   -0.54409  -0.52770  -0.50957  -0.48461  -0.46035
 Alpha  occ. eigenvalues --   -0.43247  -0.39387  -0.38298  -0.37263  -0.36770
 Alpha  occ. eigenvalues --   -0.36538  -0.36132  -0.34447  -0.33955  -0.32787
 Alpha  occ. eigenvalues --   -0.32442  -0.31846  -0.30508  -0.29580  -0.29241
 Alpha  occ. eigenvalues --   -0.27833  -0.26645  -0.25977  -0.25747  -0.22201
 Alpha  occ. eigenvalues --   -0.21017  -0.19465  -0.17901  -0.16923  -0.15911
 Alpha  occ. eigenvalues --   -0.14063  -0.12292  -0.09449  -0.08462   0.04353
 Alpha virt. eigenvalues --    0.06054   0.07391   0.08134   0.08615   0.09408
 Alpha virt. eigenvalues --    0.09936   0.10702   0.11229   0.11684   0.12594
 Alpha virt. eigenvalues --    0.12867   0.13679   0.14438   0.14536   0.14600

  Beta  occ. eigenvalues --  -14.28088 -14.26472 -14.23608 -14.22591 -14.21360
  Beta  occ. eigenvalues --  -14.19848 -14.18079 -14.17811 -14.17634 -10.15022
  Beta  occ. eigenvalues --  -10.11171 -10.11057 -10.10629 -10.10245 -10.10112
  Beta  occ. eigenvalues --  -10.09608 -10.08359 -10.06856  -0.97458  -0.91128
  Beta  occ. eigenvalues --   -0.88193  -0.83745  -0.82547  -0.79537  -0.76543
  Beta  occ. eigenvalues --   -0.71948  -0.67302  -0.65122  -0.59472  -0.56467
  Beta  occ. eigenvalues --   -0.54186  -0.52672  -0.50584  -0.48371  -0.45912
  Beta  occ. eigenvalues --   -0.43172  -0.39261  -0.38106  -0.36866  -0.36643
  Beta  occ. eigenvalues --   -0.36428  -0.35759  -0.34385  -0.33364  -0.32383
  Beta  occ. eigenvalues --   -0.31797  -0.31237  -0.30347  -0.29271  -0.28034
  Beta  occ. eigenvalues --   -0.27150  -0.26634  -0.25929  -0.25730  -0.21590
  Beta  occ. eigenvalues --   -0.20676  -0.18420  -0.17549  -0.16714  -0.15555
  Beta  occ. eigenvalues --   -0.13952  -0.12093  -0.09211  -0.08130
  Beta virt. eigenvalues --    0.06122   0.08032   0.08511   0.08666   0.09314
  Beta virt. eigenvalues --    0.09768   0.10651   0.11139   0.11504   0.12596
  Beta virt. eigenvalues --    0.12721   0.13052   0.13753   0.14451   0.14574

 Mulliken charges and spin densities:
               1          2
     1  C   -0.280734  -0.093978
     2  C   -0.041719  -0.045815
     3  N    0.136015  -0.000183
     4  C   -0.284385   0.084413
     5  C   -0.280706  -0.165792
     6  N   -0.138470   0.021915
     7  C   -0.618129  -0.027926
     8  N   -0.171427   0.012990
     9  C   -0.145558   0.102923
    10  C   -0.426771  -0.048099
    11  C    0.224014  -0.029105
    12  N   -0.251730   0.058436
    13  N    0.240450  -0.014193
    14  C    0.268659   0.167719
    15  N   -0.177025   0.016313
    16  N   -0.607604   0.004454
    17  N    0.400705   0.194142
    18  N   -0.351913   0.419104
    19  H    0.163527  -0.002472
    20  H    0.093330   0.058834
    21  H    0.198101  -0.012032
    22  H    0.068446   0.056169
    23  H    0.128842   0.004404
    24  H    0.209685   0.003139
    25  H    0.149364   0.020272
    26  H    0.115479   0.045639
    27  H    0.145312   0.072797
    28  H    0.163401  -0.008199
    29  H    0.070841   0.104132
 Sum of Mulliken charges =  -1.00000   1.00000

 Dipole moment (field-independent basis, Debye):
    X=             -6.0519    Y=              2.3259    Z=             -0.4790  Tot=              6.5011
 Quadrupole moment (field-independent basis, Debye-Ang):
   XX=           -152.0669   YY=           -143.7282   ZZ=           -115.2003
   XY=              2.7610   XZ=              1.8422   YZ=             -1.6282

 Summary of Natural Population Analysis:

                                       Natural Population
                Natural  -----------------------------------------------
    Atom  No    Charge         Core      Valence    Rydberg      Total
 -----------------------------------------------------------------------
      C    1   -0.09407      0.99963     2.08386    0.01059     3.09407
      C    2   -0.09373      0.99962     2.08515    0.00896     3.09373
      N    3   -0.25523      0.99962     2.74312    0.01248     3.75523
      C    4   -0.09522      0.99962     2.08661    0.00899     3.09522
      C    5   -0.09389      0.99963     2.08374    0.01052     3.09389
      N    6   -0.34104      0.99977     2.82637    0.01490     3.84104
      C    7    0.30744      0.99958     1.67578    0.01720     2.69256
      N    8   -0.28458      0.99968     2.77650    0.00841     3.78458
      C    9    0.09130      0.99956     1.89536    0.01377     2.90870
      C   10   -0.00666      0.99942     1.99454    0.01270     3.00666
      C   11    0.19388      0.99945     1.79123    0.01543     2.80612
      N   12   -0.26749      0.99963     2.75880    0.00906     3.76749
      N   13   -0.12102      0.99957     2.61009    0.01137     3.62102
      C   14    0.13251      0.99965     1.85156    0.01627     2.86749
      N   15   -0.25699      0.99970     2.74399    0.01330     3.75699
      N   16   -0.14761      0.99971     2.63158    0.01632     3.64761
      N   17    0.14902      0.99971     2.33615    0.01512     3.35098
      N   18    0.06328      0.99981     2.42362    0.01328     3.43672
      H   19    0.09180      0.00000     0.40682    0.00139     0.40820
      H   20    0.09106      0.00000     0.40764    0.00130     0.40894
      H   21    0.12094      0.00000     0.37733    0.00173     0.37906
      H   22    0.08027      0.00000     0.41727    0.00246     0.41973
      H   23    0.08242      0.00000     0.41589    0.00169     0.41758
      H   24    0.12674      0.00000     0.37192    0.00135     0.37326
      H   25    0.09238      0.00000     0.40622    0.00140     0.40762
      H   26    0.09312      0.00000     0.40557    0.00131     0.40688
      H   27    0.16601      0.00000     0.33137    0.00262     0.33399
      H   28    0.08338      0.00000     0.41516    0.00145     0.41662
      H   29    0.09197      0.00000     0.40656    0.00148     0.40803
 =======================================================================
   * Total *   -0.00000     17.99337    45.75978    0.24685    64.00000

 Normal termination of Gaussian 16 at Sat Dec 12 00:12:07 2020.
