 Gaussian 16, Revision A.03,

 -----------------------------------------------------------
 # opt freq B3LYP/6-31G(d) empiricaldispersion=gd3bj scf=xqc
 -----------------------------------------------------------

 ------------------------------
 CID_19136934_JID_7640_neutraal
 ------------------------------
 Symbolic Z-matrix:
 Charge =  0 Multiplicity = 1

 SCF Done:  E(RB3LYP) =  -756.153246876     A.U. after   14 cycles
 SCF Done:  E(RB3LYP) =  -756.159432675     A.U. after   12 cycles
 SCF Done:  E(RB3LYP) =  -756.161032777     A.U. after   12 cycles
 SCF Done:  E(RB3LYP) =  -756.162270636     A.U. after   12 cycles
 SCF Done:  E(RB3LYP) =  -756.163088363     A.U. after   12 cycles
 SCF Done:  E(RB3LYP) =  -756.163768303     A.U. after   12 cycles
 SCF Done:  E(RB3LYP) =  -756.164184527     A.U. after   13 cycles
 SCF Done:  E(RB3LYP) =  -756.165545234     A.U. after   12 cycles
 SCF Done:  E(RB3LYP) =  -756.168228790     A.U. after   13 cycles
 SCF Done:  E(RB3LYP) =  -756.169094769     A.U. after   12 cycles
 SCF Done:  E(RB3LYP) =  -756.169701271     A.U. after    9 cycles
 SCF Done:  E(RB3LYP) =  -756.169702955     A.U. after    9 cycles
 SCF Done:  E(RB3LYP) =  -756.169703419     A.U. after    8 cycles
 SCF Done:  E(RB3LYP) =  -756.169703666     A.U. after    8 cycles
 SCF Done:  E(RB3LYP) =  -756.169703749     A.U. after    7 cycles
 Optimization completed.
    -- Stationary point found.
 Normal termination of Gaussian 16 at Sun Dec 13 16:15:33 2020.

 --------------------------------------------------------------------
 #N Geom=AllCheck Guess=TCheck SCRF=Check GenChk RB3LYP/6-31G(d) Freq
 --------------------------------------------------------------------

 Structure from the checkpoint file:  "JID_7640.chk"
 ------------------------------
 CID_19136934_JID_7640_neutraal
 ------------------------------
 Charge =  0 Multiplicity = 1

 SCF Done:  E(RB3LYP) =  -756.169703749     A.U. after    1 cycles

  Exact polarizability: 265.293   4.743 157.370   0.445   1.470  73.540
 Approx polarizability: 360.265   1.739 282.085   4.362   5.017 113.281

                      1                      2                      3
                      A                      A                      A
 Frequencies --     32.2433                33.0475                74.1816
 Red. masses --      4.7222                 4.5504                 3.4629
 Frc consts  --      0.0029                 0.0029                 0.0112
 IR Inten    --      1.4706                 0.7571                 0.8234

                      4                      5                      6
                      A                      A                      A
 Frequencies --     93.3806               120.0112               187.3505
 Red. masses --      4.2089                 3.7881                 2.5521
 Frc consts  --      0.0216                 0.0321                 0.0528
 IR Inten    --      1.8101                 0.1126                 4.9203

                      7                      8                      9
                      A                      A                      A
 Frequencies --    196.6504               224.9084               232.2805
 Red. masses --      4.3899                 1.0707                 4.3155
 Frc consts  --      0.1000                 0.0319                 0.1372
 IR Inten    --      0.6542                 1.8458                 0.7655

                     10                     11                     12
                      A                      A                      A
 Frequencies --    242.3008               253.1971               278.7363
 Red. masses --      2.8097                 1.9776                 3.4958
 Frc consts  --      0.0972                 0.0747                 0.1600
 IR Inten    --      0.2438                 4.2037                 3.7664

                     13                     14                     15
                      A                      A                      A
 Frequencies --    298.9110               345.2964               383.1363
 Red. masses --      3.8228                 3.5167                 4.2530
 Frc consts  --      0.2012                 0.2470                 0.3678
 IR Inten    --     10.7413                 2.3772                13.1663

                     16                     17                     18
                      A                      A                      A
 Frequencies --    393.1096               396.8898               421.9182
 Red. masses --      1.7285                 1.5576                 3.4573
 Frc consts  --      0.1574                 0.1446                 0.3626
 IR Inten    --      4.6653                20.6159                 1.2087

                     19                     20                     21
                      A                      A                      A
 Frequencies --    523.1235               535.8183               545.9677
 Red. masses --      3.7794                 4.2487                 4.7335
 Frc consts  --      0.6094                 0.7187                 0.8313
 IR Inten    --      1.7708                10.6415                 3.6509

                     22                     23                     24
                      A                      A                      A
 Frequencies --    567.1653               593.8732               624.9001
 Red. masses --      3.5318                 7.5658                 1.3738
 Frc consts  --      0.6694                 1.5721                 0.3161
 IR Inten    --      6.7991                 2.4948                86.0792

                     25                     26                     27
                      A                      A                      A
 Frequencies --    644.9795               680.5535               685.7103
 Red. masses --      7.1635                 6.5037                 4.2610
 Frc consts  --      1.7558                 1.7747                 1.1804
 IR Inten    --     12.3510                 3.1255                20.6543

                     28                     29                     30
                      A                      A                      A
 Frequencies --    724.4389               776.5214               794.7375
 Red. masses --      2.3182                 5.8407                 6.7144
 Frc consts  --      0.7168                 2.0750                 2.4986
 IR Inten    --     20.3373                 7.6357                21.4892

                     31                     32                     33
                      A                      A                      A
 Frequencies --    823.2897               847.1141               868.8064
 Red. masses --      1.5890                 4.9216                 5.4860
 Frc consts  --      0.6346                 2.0808                 2.4398
 IR Inten    --     29.8492                19.7074                 5.3469

                     34                     35                     36
                      A                      A                      A
 Frequencies --    908.1719               913.6924               947.0888
 Red. masses --      1.7751                 1.3567                 1.4295
 Frc consts  --      0.8626                 0.6673                 0.7555
 IR Inten    --    149.7945                 2.0070                 1.6274

                     37                     38                     39
                      A                      A                      A
 Frequencies --    954.0258               958.9932               994.7555
 Red. masses --      2.0013                 1.9787                 1.3060
 Frc consts  --      1.0732                 1.0722                 0.7614
 IR Inten    --     22.7278                32.2963                 2.7197

                     40                     41                     42
                      A                      A                      A
 Frequencies --   1030.1635              1039.5833              1080.6950
 Red. masses --      2.7182                 3.8713                 2.2736
 Frc consts  --      1.6996                 2.4651                 1.5644
 IR Inten    --     53.8234                17.0986                 4.3903

                     43                     44                     45
                      A                      A                      A
 Frequencies --   1085.6359              1133.2932              1153.5041
 Red. masses --      1.5975                 1.2277                 1.4148
 Frc consts  --      1.1093                 0.9290                 1.1092
 IR Inten    --     19.4780                 5.4225                 6.3783

                     46                     47                     48
                      A                      A                      A
 Frequencies --   1188.5979              1192.2083              1200.3526
 Red. masses --      1.5415                 2.6640                 2.0668
 Frc consts  --      1.2831                 2.2309                 1.7546
 IR Inten    --    131.6051                19.3829                71.3884

                     49                     50                     51
                      A                      A                      A
 Frequencies --   1233.2959              1238.5739              1276.8482
 Red. masses --      1.9907                 2.0697                 3.2038
 Frc consts  --      1.7840                 1.8707                 3.0775
 IR Inten    --      5.9747                18.3379                18.4978

                     52                     53                     54
                      A                      A                      A
 Frequencies --   1282.4385              1335.2666              1354.4244
 Red. masses --      2.6232                 6.9536                 2.3729
 Frc consts  --      2.5419                 7.3046                 2.5647
 IR Inten    --     58.0864                26.1208                 6.0539

                     55                     56                     57
                      A                      A                      A
 Frequencies --   1371.9507              1381.0086              1384.4463
 Red. masses --      2.0003                 3.3212                 1.7900
 Frc consts  --      2.2184                 3.7319                 2.0214
 IR Inten    --     78.7604                45.4295               145.0595

                     58                     59                     60
                      A                      A                      A
 Frequencies --   1453.0238              1468.5646              1475.4160
 Red. masses --      1.9050                 1.3000                 1.7532
 Frc consts  --      2.3697                 1.6519                 2.2485
 IR Inten    --      1.9309                23.6059                89.2478

                     61                     62                     63
                      A                      A                      A
 Frequencies --   1493.7688              1508.1548              1513.0535
 Red. masses --      2.3210                 1.0622                 1.4238
 Frc consts  --      3.0514                 1.4235                 1.9204
 IR Inten    --     89.3542                37.0747                44.9954

                     64                     65                     66
                      A                      A                      A
 Frequencies --   1528.2460              1530.1663              1535.2716
 Red. masses --      1.0888                 1.1086                 2.2136
 Frc consts  --      1.4982                 1.5294                 3.0742
 IR Inten    --     55.6391                14.8846               139.0548

                     67                     68                     69
                      A                      A                      A
 Frequencies --   1553.5443              1569.9146              1613.7096
 Red. masses --      1.1769                 3.2339                 4.5057
 Frc consts  --      1.6735                 4.6959                 6.9129
 IR Inten    --     38.1008               178.0669                90.5012

                     70                     71                     72
                      A                      A                      A
 Frequencies --   1629.6364              1649.2711              1656.5782
 Red. masses --      6.2866                 5.1508                 3.0350
 Frc consts  --      9.8367                 8.2549                 4.9072
 IR Inten    --    337.8338                24.7057               556.8693

                     73                     74                     75
                      A                      A                      A
 Frequencies --   1696.1043              3002.5937              3026.9261
 Red. masses --      1.2049                 1.0534                 1.0471
 Frc consts  --      2.0422                 5.5952                 5.6525
 IR Inten    --     48.8178                71.2935                78.8063

                     76                     77                     78
                      A                      A                      A
 Frequencies --   3096.2538              3100.4489              3127.4514
 Red. masses --      1.0842                 1.0919                 1.0891
 Frc consts  --      6.1240                 6.1840                 6.2762
 IR Inten    --     28.3187                45.9951                36.9576

                     79                     80                     81
                      A                      A                      A
 Frequencies --   3154.5073              3164.7294              3180.6972
 Red. masses --      1.1013                 1.1002                 1.0884
 Frc consts  --      6.4570                 6.4920                 6.4876
 IR Inten    --     12.7118                15.8480                15.9647

                     82                     83                     84
                      A                      A                      A
 Frequencies --   3187.7989              3206.8897              3275.1481
 Red. masses --      1.0906                 1.0944                 1.0925
 Frc consts  --      6.5297                 6.6313                 6.9047
 IR Inten    --     29.5910                30.5845                 3.8330

                     85                     86                     87
                      A                      A                      A
 Frequencies --   3466.1732              3562.4407              3575.7676
 Red. masses --      1.0505                 1.0924                 1.0761
 Frc consts  --      7.4361                 8.1679                 8.1070
 IR Inten    --      1.8384                17.6085                20.5542

 - Thermochemistry -
 -------------------
 Temperature   298.150 Kelvin.  Pressure   1.00000 Atm.
 Atom     1 has atomic number  6 and mass  12.00000

 Molecular mass:   230.12799 amu.
 Principal axes and moments of inertia in atomic units:
                           1         2         3
     Eigenvalues --  1259.439758178.924779217.20005
           X            0.99995   0.00945  -0.00227
           Y           -0.00946   0.99994  -0.00570
           Z            0.00222   0.00572   0.99998
 This molecule is an asymmetric top.
 Rotational symmetry number  1.
 Warning -- assumption of classical behavior for rotation
           may cause significant error
 Rotational temperatures (Kelvin)      0.06877     0.01059     0.00940
 Rotational constants (GHZ):           1.43297     0.22066     0.19580
 Zero-point vibrational energy     670422.0 (Joules/Mol)
                                  160.23471 (Kcal/Mol)
 Warning -- explicit consideration of  23 degrees of freedom as
           vibrations may cause significant error
 Vibrational temperatures:     46.39    47.55   106.73   134.35   172.67
          (Kelvin)            269.56   282.94   323.59   334.20   348.62
                              364.29   401.04   430.07   496.80   551.25
                              565.60   571.04   607.05   752.66   770.92
                              785.53   816.02   854.45   899.09   927.98
                              979.16   986.58  1042.31  1117.24  1143.45
                             1184.53  1218.81  1250.02  1306.66  1314.60
                             1362.65  1372.63  1379.78  1431.23  1482.18
                             1495.73  1554.88  1561.99  1630.56  1659.64
                             1710.13  1715.32  1727.04  1774.44  1782.03
                             1837.10  1845.14  1921.15  1948.71  1973.93
                             1986.96  1991.91  2090.58  2112.94  2122.79
                             2149.20  2169.90  2176.95  2198.81  2201.57
                             2208.91  2235.20  2258.76  2321.77  2344.68
                             2372.93  2383.45  2440.32  4320.06  4355.07
                             4454.82  4460.85  4499.70  4538.63  4553.34
                             4576.31  4586.53  4614.00  4712.21  4987.05
                             5125.56  5144.73

 Zero-point correction=                           0.255350 (Hartree/Particle)
 Thermal correction to Energy=                    0.270373
 Thermal correction to Enthalpy=                  0.271317
 Thermal correction to Gibbs Free Energy=         0.212454
 Sum of electronic and zero-point Energies=           -755.914353
 Sum of electronic and thermal Energies=              -755.899331
 Sum of electronic and thermal Enthalpies=            -755.898387
 Sum of electronic and thermal Free Energies=         -755.957250

                     E (Thermal)             CV                S
                      KCal/Mol        Cal/Mol-Kelvin    Cal/Mol-Kelvin
 Total                  169.662             57.978            123.888
 Electronic               0.000              0.000              0.000
 Translational            0.889              2.981             42.202
 Rotational               0.889              2.981             32.918
 Vibrational            167.884             52.016             48.768
 Vibration     1          0.594              1.983              5.686
 Vibration     2          0.594              1.983              5.638
 Vibration     3          0.599              1.966              4.039
 Vibration     4          0.602              1.954              3.588
 Vibration     5          0.609              1.933              3.100
 Vibration     6          0.632              1.857              2.254
 Vibration     7          0.636              1.845              2.164
 Vibration     8          0.650              1.803              1.919
 Vibration     9          0.653              1.792              1.861
 Vibration    10          0.658              1.775              1.786
 Vibration    11          0.664              1.757              1.708
 Vibration    12          0.679              1.713              1.541
 Vibration    13          0.692              1.676              1.423
 Vibration    14          0.724              1.585              1.188
 Vibration    15          0.752              1.506              1.027
 Vibration    16          0.760              1.485              0.988
 Vibration    17          0.763              1.477              0.974
 Vibration    18          0.784              1.423              0.885
 Vibration    19          0.878              1.199              0.603
 Vibration    20          0.891              1.171              0.574
 Vibration    21          0.901              1.149              0.553
 Vibration    22          0.923              1.102              0.510
 Vibration    23          0.951              1.045              0.460

 Optimization completed.
    -- Stationary point found.
 Normal termination of Gaussian 16 at Sun Dec 13 16:25:23 2020.

 ----------------------------------------------------------------------
 # B3LYP/6-311++G(d,p) empiricaldispersion=gd3bj scf=xqc pop=npa geom=c
 heck
 ----------------------------------------------------------------------

 --------------------------------------
 CID_19136934_JID_7640_Energie_neutraal
 --------------------------------------
 Structure from the checkpoint file:  "JID_7640.chk"
 Charge =  0 Multiplicity = 1

 SCF Done:  E(RB3LYP) =  -756.375788136     A.U. after   16 cycles
 Normal termination of Gaussian 16 at Sun Dec 13 16:30:31 2020.

 ----------------------------------------------------------------------
 # B3LYP/6-311++G(d,p) empiricaldispersion=gd3bj scf=xqc pop=npa geom=c
 heck
 ----------------------------------------------------------------------

 ------------------------------------
 CID_19136934_JID_7640_Energie_kation
 ------------------------------------
 Structure from the checkpoint file:  "JID_7640.chk"
 Charge =  1 Multiplicity = 2

 SCF Done:  E(UB3LYP) =  -756.107149830     A.U. after   24 cycles
 Normal termination of Gaussian 16 at Sun Dec 13 16:41:42 2020.
 Gaussian 16:  ES64L-G16RevA.03 25-Dec-2016

 ----------------------------------------------------------------------
 # B3LYP/6-311++G(d,p) empiricaldispersion=gd3bj scf=xqc pop=npa geom=c
 heck
 ----------------------------------------------------------------------

 -----------------------------------
 CID_19136934_JID_7640_Energie_anion
 -----------------------------------
 Structure from the checkpoint file:  "JID_7640.chk"
 Charge = -1 Multiplicity = 2

                         Standard orientation:
 ---------------------------------------------------------------------
 Center     Atomic      Atomic             Coordinates (Angstroms)
 Number     Number       Type             X           Y           Z
 ---------------------------------------------------------------------
      1          6           0       -3.994249   -1.338895    0.916927
      2          7           0       -3.711289   -0.363559   -0.143840
      3          6           0       -4.834011    0.544976   -0.362985
      4          6           0       -2.446526    0.245816   -0.067945
      5          7           0       -2.366677    1.573647    0.132774
      6          6           0       -1.144113    2.093860    0.192188
      7          7           0        0.016267    1.434935    0.149746
      8          6           0       -0.063457    0.113956   -0.056125
      9          6           0       -1.299023   -0.534799   -0.261520
     10          7           0       -1.345546   -1.903918   -0.603034
     11          7           0        1.077542   -0.667387   -0.105949
     12          6           0        2.425069   -0.298818   -0.024671
     13          6           0        3.362432   -1.330061    0.171114
     14          7           0        4.678108   -1.147894    0.230931
     15          6           0        5.136633    0.104281    0.096858
     16          6           0        4.293993    1.196716   -0.098933
     17          6           0        2.915737    1.006739   -0.162375
     18          1           0       -4.862381   -1.940846    0.629364
     19          1           0       -4.217279   -0.842160    1.874906
     20          1           0       -3.142006   -2.004952    1.066019
     21          1           0       -5.066257    1.151839    0.524006
     22          1           0       -4.603008    1.223532   -1.185312
     23          1           0       -5.712276   -0.054172   -0.624664
     24          1           0       -1.078666    3.173040    0.312072
     25          1           0       -0.666209   -2.119752   -1.331640
     26          1           0       -2.271880   -2.139661   -0.952418
     27          1           0        0.901214   -1.649774    0.067814
     28          1           0        3.010969   -2.358030    0.282774
     29          1           0        6.215514    0.231492    0.150733
     30          1           0        4.708920    2.195304   -0.199238
     31          1           0        2.229605    1.830744   -0.294012
 ---------------------------------------------------------------------

 SCF Done:  E(UB3LYP) =  -756.371649791     A.U. after   33 cycles
 SCF Done:  E(UB3LYP) =  -756.371649791     a.u. after    1 cycles

 The electronic state is 2-A.
 Alpha  occ. eigenvalues --  -14.24886 -14.22545 -14.21929 -14.20433 -14.19406
 Alpha  occ. eigenvalues --  -14.19186 -10.13981 -10.12879 -10.12164 -10.11812
 Alpha  occ. eigenvalues --  -10.10681 -10.10189 -10.09281 -10.09101 -10.09084
 Alpha  occ. eigenvalues --  -10.07932 -10.07111  -0.89566  -0.86267  -0.83863
 Alpha  occ. eigenvalues --   -0.82814  -0.80482  -0.75940  -0.69537  -0.66705
 Alpha  occ. eigenvalues --   -0.64073  -0.61398  -0.58127  -0.55123  -0.53465
 Alpha  occ. eigenvalues --   -0.52581  -0.48672  -0.46282  -0.43558  -0.41976
 Alpha  occ. eigenvalues --   -0.40394  -0.39239  -0.38635  -0.36971  -0.36506
 Alpha  occ. eigenvalues --   -0.35292  -0.34548  -0.33641  -0.33086  -0.32436
 Alpha  occ. eigenvalues --   -0.30413  -0.29863  -0.29351  -0.28449  -0.27556
 Alpha  occ. eigenvalues --   -0.27506  -0.25939  -0.23839  -0.20154  -0.19597
 Alpha  occ. eigenvalues --   -0.18086  -0.16082  -0.15656  -0.14633  -0.12848
 Alpha  occ. eigenvalues --   -0.09723   0.04091
 Alpha virt. eigenvalues --    0.06244   0.07028   0.07352   0.07497   0.08435
 Alpha virt. eigenvalues --    0.08678   0.09204   0.09387   0.10226   0.10511
 Alpha virt. eigenvalues --    0.10768   0.11366   0.11775   0.12335   0.12659

  Beta  occ. eigenvalues --  -14.24912 -14.22559 -14.21870 -14.20358 -14.19327
  Beta  occ. eigenvalues --  -14.19085 -10.13844 -10.12782 -10.12183 -10.11728
  Beta  occ. eigenvalues --  -10.10710 -10.10207 -10.09220 -10.09069 -10.08989
  Beta  occ. eigenvalues --  -10.07968 -10.07001  -0.89431  -0.86169  -0.83739
  Beta  occ. eigenvalues --   -0.82717  -0.80416  -0.75763  -0.69364  -0.66559
  Beta  occ. eigenvalues --   -0.63952  -0.61332  -0.57966  -0.55032  -0.53365
  Beta  occ. eigenvalues --   -0.52510  -0.48528  -0.46223  -0.43485  -0.41911
  Beta  occ. eigenvalues --   -0.40312  -0.39137  -0.38553  -0.36867  -0.36409
  Beta  occ. eigenvalues --   -0.35201  -0.34507  -0.33519  -0.32914  -0.32353
  Beta  occ. eigenvalues --   -0.30112  -0.29793  -0.29253  -0.28384  -0.27493
  Beta  occ. eigenvalues --   -0.27467  -0.25600  -0.23724  -0.19660  -0.19392
  Beta  occ. eigenvalues --   -0.17737  -0.15976  -0.15408  -0.14500  -0.12563
  Beta  occ. eigenvalues --   -0.09519
  Beta virt. eigenvalues --    0.06701   0.07253   0.07376   0.07708   0.07944
  Beta virt. eigenvalues --    0.08692   0.08849   0.09447   0.09576   0.10387
  Beta virt. eigenvalues --    0.10749   0.11381   0.11664   0.11981   0.12456

 Mulliken charges and spin densities:
               1          2
     1  C    0.834950  -1.191182
     2  N    0.027440   0.121096
     3  C    0.052036  -0.370531
     4  C   -1.005741   0.068470
     5  N   -0.192703   0.097207
     6  C   -0.137197   0.207104
     7  N   -0.200291   0.048472
     8  C    0.846395  -1.493925
     9  C   -0.183276   0.869957
    10  N   -0.464115   0.039670
    11  N    0.033311  -0.063166
    12  C    0.567853  -0.651414
    13  C   -0.378884  -0.015379
    14  N   -0.086967   0.033285
    15  C   -0.407639   0.028621
    16  C   -0.295885   0.079044
    17  C    0.317458   0.275213
    18  H   -0.429213   0.600831
    19  H   -0.069878   0.192745
    20  H   -0.165738   0.309037
    21  H    0.121477   0.033781
    22  H    0.013807   0.147418
    23  H   -0.112773   0.240174
    24  H    0.150696   0.025722
    25  H   -0.201295   0.462441
    26  H   -0.327421   0.615727
    27  H    0.234664   0.028302
    28  H   -0.074935   0.251162
    29  H    0.138724  -0.010346
    30  H    0.151632   0.005486
    31  H    0.243510   0.014981
 Sum of Mulliken charges =  -1.00000   1.00000

 Dipole moment (field-independent basis, Debye):
    X=              2.5062    Y=              4.7085    Z=              0.4009  Tot=              5.3490
 Quadrupole moment (field-independent basis, Debye-Ang):
   XX=           -187.7116   YY=           -136.2117   ZZ=           -122.9898
   XY=             -3.1486   XZ=             -1.9282   YZ=             -3.8746

 Summary of Natural Population Analysis:

                                       Natural Population
                Natural  -----------------------------------------------
    Atom  No    Charge         Core      Valence    Rydberg      Total
 -----------------------------------------------------------------------
      C    1   -0.17627      0.99963     2.16816    0.00849     3.17627
      N    2   -0.27320      0.99968     2.76023    0.01328     3.77320
      C    3   -0.17465      0.99964     2.16602    0.00899     3.17465
      C    4    0.20766      0.99945     1.77675    0.01614     2.79234
      N    5   -0.26012      0.99967     2.75171    0.00874     3.76012
      C    6    0.13279      0.99967     1.84905    0.01849     2.86721
      N    7   -0.26828      0.99967     2.75874    0.00988     3.76828
      C    8    0.21517      0.99949     1.76999    0.01534     2.78483
      C    9    0.02490      0.99940     1.96422    0.01148     2.97510
      N   10   -0.41056      0.99973     2.89905    0.01178     3.91056
      N   11   -0.29824      0.99964     2.78956    0.00904     3.79824
      C   12    0.07853      0.99948     1.91101    0.01098     2.92147
      C   13    0.00514      0.99956     1.97977    0.01553     2.99486
      N   14   -0.22308      0.99972     2.71235    0.01101     3.72308
      C   15    0.02086      0.99960     1.96505    0.01450     2.97914
      C   16   -0.12446      0.99957     2.11711    0.00778     3.12446
      C   17   -0.08557      0.99953     2.07772    0.00833     3.08557
      H   18    0.09679      0.00000     0.40117    0.00204     0.40321
      H   19    0.08506      0.00000     0.41361    0.00134     0.41494
      H   20    0.10409      0.00000     0.39429    0.00162     0.39591
      H   21    0.08837      0.00000     0.41025    0.00138     0.41163
      H   22    0.10200      0.00000     0.39694    0.00106     0.39800
      H   23    0.09248      0.00000     0.40653    0.00099     0.40752
      H   24    0.07750      0.00000     0.42146    0.00104     0.42250
      H   25    0.18601      0.00000     0.31007    0.00392     0.31399
      H   26    0.19375      0.00000     0.30180    0.00445     0.30625
      H   27    0.19675      0.00000     0.29984    0.00342     0.30325
      H   28    0.08565      0.00000     0.41250    0.00185     0.41435
      H   29    0.08284      0.00000     0.41589    0.00127     0.41716
      H   30    0.09767      0.00000     0.40140    0.00092     0.40233
      H   31    0.12045      0.00000     0.37839    0.00117     0.37955
 =======================================================================
   * Total *    0.00000     16.99314    43.78061    0.22625    61.00000

 Normal termination of Gaussian 16 at Sun Dec 13 16:56:18 2020.
