 Gaussian 16, Revision A.03,

 -----------------------------------------------------------
 # opt freq B3LYP/6-31G(d) empiricaldispersion=gd3bj scf=xqc
 -----------------------------------------------------------

 -------------------------------
 CID_133417977_JID_9820_neutraal
 -------------------------------
 Symbolic Z-matrix:
 Charge =  0 Multiplicity = 1

 SCF Done:  E(RB3LYP) =  -838.615707936     A.U. after   14 cycles
 SCF Done:  E(RB3LYP) =  -838.626059926     A.U. after   13 cycles
 SCF Done:  E(RB3LYP) =  -838.628103625     A.U. after   12 cycles
 SCF Done:  E(RB3LYP) =  -838.628757904     A.U. after   12 cycles
 SCF Done:  E(RB3LYP) =  -838.629393792     A.U. after   12 cycles
 SCF Done:  E(RB3LYP) =  -838.630016547     A.U. after   12 cycles
 SCF Done:  E(RB3LYP) =  -838.630480722     A.U. after   12 cycles
 SCF Done:  E(RB3LYP) =  -838.630626373     A.U. after   11 cycles
 SCF Done:  E(RB3LYP) =  -838.630735220     A.U. after   11 cycles
 SCF Done:  E(RB3LYP) =  -838.630787185     A.U. after   11 cycles
 SCF Done:  E(RB3LYP) =  -838.630901697     A.U. after   10 cycles
 SCF Done:  E(RB3LYP) =  -838.630954792     A.U. after   11 cycles
 SCF Done:  E(RB3LYP) =  -838.630967227     A.U. after   11 cycles
 SCF Done:  E(RB3LYP) =  -838.630962731     A.U. after   11 cycles
 SCF Done:  E(RB3LYP) =  -838.630968476     A.U. after   10 cycles
 SCF Done:  E(RB3LYP) =  -838.630968843     A.U. after    8 cycles
 Optimization completed.
    -- Stationary point found.
 Normal termination of Gaussian 16 at Sat Dec 12 10:08:43 2020.

 --------------------------------------------------------------------
 #N Geom=AllCheck Guess=TCheck SCRF=Check GenChk RB3LYP/6-31G(d) Freq
 --------------------------------------------------------------------

 Structure from the checkpoint file:  "JID_9820.chk"
 -------------------------------
 CID_133417977_JID_9820_neutraal
 -------------------------------
 Charge =  0 Multiplicity = 1

 SCF Done:  E(RB3LYP) =  -838.630968844     A.U. after    1 cycles

  Exact polarizability: 287.143  21.943 125.539 -17.216  14.876 142.623
 Approx polarizability: 406.311  45.752 189.585 -34.599  41.078 253.852

                      1                      2                      3
                      A                      A                      A
 Frequencies --     19.4925                36.2640                53.8595
 Red. masses --      4.8793                 4.8413                 3.1416
 Frc consts  --      0.0011                 0.0038                 0.0054
 IR Inten    --      0.7898                 0.4048                 0.3710

                      4                      5                      6
                      A                      A                      A
 Frequencies --     72.0557                89.6636               109.1729
 Red. masses --      2.7821                 3.5350                 4.6054
 Frc consts  --      0.0085                 0.0167                 0.0323
 IR Inten    --      0.0928                 0.8473                 0.7841

                      7                      8                      9
                      A                      A                      A
 Frequencies --    144.6405               176.7601               195.7172
 Red. masses --      2.6775                 4.2795                 2.4840
 Frc consts  --      0.0330                 0.0788                 0.0561
 IR Inten    --      0.9973                 3.3000                 0.8070

                     10                     11                     12
                      A                      A                      A
 Frequencies --    204.8419               225.4362               251.6836
 Red. masses --      2.8119                 1.7795                 3.6839
 Frc consts  --      0.0695                 0.0533                 0.1375
 IR Inten    --      4.0448                 0.2165                 0.7631

                     13                     14                     15
                      A                      A                      A
 Frequencies --    273.6406               289.6766               323.6060
 Red. masses --      2.0009                 4.2575                 3.8792
 Frc consts  --      0.0883                 0.2105                 0.2393
 IR Inten    --      1.9877                 0.1232                 2.0099

                     16                     17                     18
                      A                      A                      A
 Frequencies --    349.8245               416.9468               436.3627
 Red. masses --      3.3246                 4.5187                 5.1850
 Frc consts  --      0.2397                 0.4628                 0.5817
 IR Inten    --      1.3035                11.9233                 4.9446

                     19                     20                     21
                      A                      A                      A
 Frequencies --    484.2928               518.5836               548.2923
 Red. masses --      3.0346                 3.4538                 2.2755
 Frc consts  --      0.4193                 0.5473                 0.4030
 IR Inten    --     10.0255                26.1932                57.7794

                     22                     23                     24
                      A                      A                      A
 Frequencies --    556.0068               569.1321               586.1399
 Red. masses --      4.9005                 2.8304                 2.9618
 Frc consts  --      0.8926                 0.5402                 0.5995
 IR Inten    --     10.7558                 0.5361                13.5960

                     25                     26                     27
                      A                      A                      A
 Frequencies --    600.6006               616.4903               646.8399
 Red. masses --      2.5896                 4.2219                 3.1789
 Frc consts  --      0.5504                 0.9454                 0.7836
 IR Inten    --     15.6589                 8.9335                14.6264

                     28                     29                     30
                      A                      A                      A
 Frequencies --    665.6118               713.6710               774.4757
 Red. masses --      3.3931                 3.4471                 6.3693
 Frc consts  --      0.8857                 1.0344                 2.2509
 IR Inten    --      6.2594                 5.3880                 1.8101

                     31                     32                     33
                      A                      A                      A
 Frequencies --    798.3124               806.9643               814.2502
 Red. masses --      6.5866                 1.7189                 3.6431
 Frc consts  --      2.4732                 0.6595                 1.4231
 IR Inten    --      4.2559                 3.6067                19.4006

                     34                     35                     36
                      A                      A                      A
 Frequencies --    839.9734               844.9669               880.6868
 Red. masses --      1.8073                 2.3181                 1.2429
 Frc consts  --      0.7513                 0.9751                 0.5680
 IR Inten    --      1.6179                 7.6038                22.4383

                     37                     38                     39
                      A                      A                      A
 Frequencies --    885.5144               901.6903               928.4596
 Red. masses --      1.7158                 1.9012                 1.9264
 Frc consts  --      0.7927                 0.9108                 0.9784
 IR Inten    --      8.9794                 4.4630                 9.4939

                     40                     41                     42
                      A                      A                      A
 Frequencies --    947.6284               952.3138               962.7398
 Red. masses --      2.0054                 5.4294                 3.8668
 Frc consts  --      1.0610                 2.9011                 2.1116
 IR Inten    --      0.9384                19.3658                 4.2854

                     43                     44                     45
                      A                      A                      A
 Frequencies --    973.1817               977.3548               993.3777
 Red. masses --      3.0462                 1.4485                 1.2923
 Frc consts  --      1.6998                 0.8152                 0.7513
 IR Inten    --     16.6951                 0.0387                 1.6896

                     46                     47                     48
                      A                      A                      A
 Frequencies --   1020.4834              1050.9321              1070.8170
 Red. masses --      2.0934                 1.9700                 2.1156
 Frc consts  --      1.2844                 1.2820                 1.4293
 IR Inten    --      7.3343                 6.4425                37.5717

                     49                     50                     51
                      A                      A                      A
 Frequencies --   1074.0956              1088.4835              1119.9995
 Red. masses --      1.7095                 2.1397                 4.0928
 Frc consts  --      1.1620                 1.4936                 3.0249
 IR Inten    --      6.9150                16.5741               181.3954

                     52                     53                     54
                      A                      A                      A
 Frequencies --   1148.8047              1163.6605              1180.8028
 Red. masses --      2.5293                 1.4763                 1.8957
 Frc consts  --      1.9668                 1.1778                 1.5573
 IR Inten    --      9.6954                52.9746                 0.4315

                     55                     56                     57
                      A                      A                      A
 Frequencies --   1196.2920              1214.2971              1219.5598
 Red. masses --      2.3725                 2.3369                 1.6670
 Frc consts  --      2.0004                 2.0302                 1.4608
 IR Inten    --     30.9034                 2.6068                 8.3389

                     58                     59                     60
                      A                      A                      A
 Frequencies --   1223.1506              1271.0987              1275.0798
 Red. masses --      1.7241                 1.2409                 2.3230
 Frc consts  --      1.5198                 1.1813                 2.2252
 IR Inten    --      7.9593                 4.3020                 7.8041

                     61                     62                     63
                      A                      A                      A
 Frequencies --   1298.9019              1317.0572              1320.6064
 Red. masses --      1.2860                 1.6133                 1.8594
 Frc consts  --      1.2783                 1.6488                 1.9106
 IR Inten    --      1.7987                 7.9483                25.1094

                     64                     65                     66
                      A                      A                      A
 Frequencies --   1328.8281              1356.3041              1361.9687
 Red. masses --      1.3537                 1.2995                 1.5880
 Frc consts  --      1.4083                 1.4084                 1.7356
 IR Inten    --      1.9751                 0.3278                 7.0246

                     67                     68                     69
                      A                      A                      A
 Frequencies --   1371.4483              1389.7020              1397.4542
 Red. masses --      1.2823                 1.4692                 1.6230
 Frc consts  --      1.4210                 1.6718                 1.8674
 IR Inten    --      6.4658                16.7575                23.3728

                     70                     71                     72
                      A                      A                      A
 Frequencies --   1405.6964              1411.7602              1419.3623
 Red. masses --      2.1862                 1.9705                 1.5991
 Frc consts  --      2.5452                 2.3139                 1.8981
 IR Inten    --     50.2625                12.1783                10.1377

                     73                     74                     75
                      A                      A                      A
 Frequencies --   1443.0785              1448.8312              1460.3764
 Red. masses --      1.6101                 1.2660                 2.4346
 Frc consts  --      1.9755                 1.5657                 3.0592
 IR Inten    --      6.3409                 4.4632                58.5834

                     76                     77                     78
                      A                      A                      A
 Frequencies --   1470.5159              1516.2793              1521.9886
 Red. masses --      2.9278                 1.0792                 1.0576
 Frc consts  --      3.7302                 1.4619                 1.4434
 IR Inten    --    303.8122                 2.4682                 0.1426

                     79                     80                     81
                      A                      A                      A
 Frequencies --   1528.2302              1531.0394              1536.7793
 Red. masses --      1.0577                 1.0933                 1.0925
 Frc consts  --      1.4554                 1.5099                 1.5202
 IR Inten    --      1.0131                 6.7117                 7.9724

                     82                     83                     84
                      A                      A                      A
 Frequencies --   1540.9762              1560.8658              1572.3162
 Red. masses --      3.0056                 1.0979                 3.3088
 Frc consts  --      4.2050                 1.5759                 4.8194
 IR Inten    --     89.6847                 2.2855               261.2476

                     85                     86                     87
                      A                      A                      A
 Frequencies --   1593.4000              1617.3162              1676.4554
 Red. masses --      5.0779                 6.5175                 6.3756
 Frc consts  --      7.5960                10.0443                10.5573
 IR Inten    --     61.9020                 1.8083               469.7609

                     88                     89                     90
                      A                      A                      A
 Frequencies --   2989.7851              3017.2679              3031.7481
 Red. masses --      1.0837                 1.0701                 1.0670
 Frc consts  --      5.7072                 5.7400                 5.7783
 IR Inten    --     90.7572                70.8374                15.5896

                     91                     92                     93
                      A                      A                      A
 Frequencies --   3058.1257              3062.7524              3066.4789
 Red. masses --      1.0825                 1.0396                 1.0685
 Frc consts  --      5.9646                 5.7458                 5.9199
 IR Inten    --     16.5243                33.3170                13.1143

                     94                     95                     96
                      A                      A                      A
 Frequencies --   3074.1552              3080.1420              3087.7017
 Red. masses --      1.0635                 1.0945                 1.0922
 Frc consts  --      5.9216                 6.1178                 6.1349
 IR Inten    --     24.8996                29.1029                62.9488

                     97                     98                     99
                      A                      A                      A
 Frequencies --   3122.0170              3124.7648              3132.5682
 Red. masses --      1.1006                 1.1019                 1.1049
 Frc consts  --      6.3203                 6.3393                 6.3881
 IR Inten    --     17.7110                34.0708                42.4844

                    100                    101                    102
                      A                      A                      A
 Frequencies --   3150.7615              3159.6595              3184.6035
 Red. masses --      1.0997                 1.0883                 1.0944
 Frc consts  --      6.4321                 6.4017                 6.5396
 IR Inten    --     35.2837                20.8748                56.3811

                    103                    104                    105
                      A                      A                      A
 Frequencies --   3211.6090              3230.4577              3587.4412
 Red. masses --      1.0885                 1.0953                 1.0754
 Frc consts  --      6.6152                 6.7346                 8.1547
 IR Inten    --      3.5196                10.0249                33.0652

 - Thermochemistry -
 -------------------
 Temperature   298.150 Kelvin.  Pressure   1.00000 Atm.
 Atom     1 has atomic number  6 and mass  12.00000

 Molecular mass:   258.14806 amu.
 Principal axes and moments of inertia in atomic units:
                           1         2         3
     Eigenvalues --  1988.12986********************
           X            0.99999   0.00411   0.00267
           Y           -0.00396   0.99862  -0.05238
           Z           -0.00288   0.05237   0.99862
 This molecule is an asymmetric top.
 Rotational symmetry number  1.
 Warning -- assumption of classical behavior for rotation
           may cause significant error
 Rotational temperatures (Kelvin)      0.04357     0.00814     0.00786
 Rotational constants (GHZ):           0.90776     0.16966     0.16383
 Zero-point vibrational energy     822697.8 (Joules/Mol)
                                  196.62949 (Kcal/Mol)
 Warning -- explicit consideration of  26 degrees of freedom as
           vibrations may cause significant error
 Vibrational temperatures:     28.05    52.18    77.49   103.67   129.01
          (Kelvin)            157.08   208.11   254.32   281.59   294.72
                              324.35   362.12   393.71   416.78   465.60
                              503.32   599.89   627.83   696.79   746.13
                              788.87   799.97   818.85   843.32   864.13
                              886.99   930.66   957.67  1026.81  1114.30
                             1148.59  1161.04  1171.52  1208.53  1215.72
                             1267.11  1274.06  1297.33  1335.85  1363.43
                             1370.17  1385.17  1400.19  1406.20  1429.25
                             1468.25  1512.06  1540.67  1545.38  1566.08
                             1611.43  1652.87  1674.25  1698.91  1721.20
                             1747.10  1754.67  1759.84  1828.83  1834.56
                             1868.83  1894.95  1900.06  1911.89  1951.42
                             1959.57  1973.21  1999.47  2010.62  2022.48
                             2031.21  2042.15  2076.27  2084.54  2101.16
                             2115.74  2181.59  2189.80  2198.78  2202.82
                             2211.08  2217.12  2245.74  2262.21  2292.55
                             2326.96  2412.05  4301.63  4341.18  4362.01
                             4399.96  4406.62  4411.98  4423.02  4431.64
                             4442.51  4491.89  4495.84  4507.07  4533.24
                             4546.05  4581.93  4620.79  4647.91  5161.53

 Zero-point correction=                           0.313349 (Hartree/Particle)
 Thermal correction to Energy=                    0.329874
 Thermal correction to Enthalpy=                  0.330819
 Thermal correction to Gibbs Free Energy=         0.267482
 Sum of electronic and zero-point Energies=           -838.317620
 Sum of electronic and thermal Energies=              -838.301094
 Sum of electronic and thermal Enthalpies=            -838.300150
 Sum of electronic and thermal Free Energies=         -838.363486

                     E (Thermal)             CV                S
                      KCal/Mol        Cal/Mol-Kelvin    Cal/Mol-Kelvin
 Total                  206.999             64.193            133.302
 Electronic               0.000              0.000              0.000
 Translational            0.889              2.981             42.545
 Rotational               0.889              2.981             33.810
 Vibrational            205.222             58.232             56.948
 Vibration     1          0.593              1.986              6.685
 Vibration     2          0.594              1.982              5.453
 Vibration     3          0.596              1.976              4.670
 Vibration     4          0.598              1.967              4.096
 Vibration     5          0.602              1.956              3.667
 Vibration     6          0.606              1.942              3.284
 Vibration     7          0.616              1.908              2.742
 Vibration     8          0.628              1.871              2.362
 Vibration     9          0.636              1.846              2.173
 Vibration    10          0.640              1.833              2.089
 Vibration    11          0.650              1.802              1.915
 Vibration    12          0.664              1.760              1.719
 Vibration    13          0.676              1.722              1.573
 Vibration    14          0.686              1.693              1.476
 Vibration    15          0.708              1.628              1.292
 Vibration    16          0.727              1.576              1.167
 Vibration    17          0.780              1.433              0.902
 Vibration    18          0.797              1.391              0.838
 Vibration    19          0.840              1.285              0.699
 Vibration    20          0.874              1.209              0.613
 Vibration    21          0.904              1.143              0.548
 Vibration    22          0.911              1.127              0.532
 Vibration    23          0.925              1.098              0.506
 Vibration    24          0.943              1.061              0.474
 Vibration    25          0.959              1.031              0.449
 Vibration    26          0.976              0.997              0.422

                           ! Non-Optimized Parameters !
 Normal termination of Gaussian 16 at Sat Dec 12 10:24:30 2020.

 ----------------------------------------------------------------------
 # B3LYP/6-311++G(d,p) empiricaldispersion=gd3bj scf=xqc pop=npa geom=c
 heck
 ----------------------------------------------------------------------

 ---------------------------------------
 CID_133417977_JID_9820_Energie_neutraal
 ---------------------------------------
 Structure from the checkpoint file:  "JID_9820.chk"
 Charge =  0 Multiplicity = 1

 SCF Done:  E(RB3LYP) =  -838.853226180     A.U. after   15 cycles
 Normal termination of Gaussian 16 at Sat Dec 12 10:30:38 2020.

 ----------------------------------------------------------------------
 # B3LYP/6-311++G(d,p) empiricaldispersion=gd3bj scf=xqc pop=npa geom=c
 heck
 ----------------------------------------------------------------------

 -------------------------------------
 CID_133417977_JID_9820_Energie_kation
 -------------------------------------
 Structure from the checkpoint file:  "JID_9820.chk"
 Charge =  1 Multiplicity = 2

 SCF Done:  E(UB3LYP) =  -838.571233575     A.U. after   24 cycles
 Normal termination of Gaussian 16 at Sat Dec 12 10:44:03 2020.
 Gaussian 16:  ES64L-G16RevA.03 25-Dec-2016

 ----------------------------------------------------------------------
 # B3LYP/6-311++G(d,p) empiricaldispersion=gd3bj scf=xqc pop=npa geom=c
 heck
 ----------------------------------------------------------------------

 ------------------------------------
 CID_133417977_JID_9820_Energie_anion
 ------------------------------------
 Structure from the checkpoint file:  "JID_9820.chk"
 Charge = -1 Multiplicity = 2

                         Standard orientation:
 ---------------------------------------------------------------------
 Center     Atomic      Atomic             Coordinates (Angstroms)
 Number     Number       Type             X           Y           Z
 ---------------------------------------------------------------------
      1          6           0        4.183247    1.940450   -0.551320
      2          6           0        2.781441    2.031766    0.055313
      3          6           0        1.812315    0.910124   -0.346785
      4          6           0        2.246150   -0.530192   -0.007250
      5          6           0        2.751158   -0.800227    1.413425
      6          6           0        3.626042   -2.041327    1.190022
      7          6           0        4.251289   -1.741642   -0.178337
      8          8           0        3.306679   -0.928078   -0.884839
      9          7           0        0.519234    1.199422    0.262419
     10          6           0       -0.685307    0.650436   -0.082936
     11          7           0       -1.666361    0.813618    0.799002
     12          6           0       -2.890718    0.331072    0.494023
     13          7           0       -3.878469    0.515567    1.414440
     14          6           0       -5.065060    0.032201    1.100462
     15          6           0       -5.332966   -0.646051   -0.113823
     16          7           0       -4.398100   -0.843573   -1.026022
     17          6           0       -3.168324   -0.356420   -0.731116
     18          6           0       -2.095999   -0.521391   -1.648949
     19          6           0       -0.861227   -0.026576   -1.339116
     20          1           0        4.746282    1.089264   -0.162316
     21          1           0        4.747963    2.851966   -0.326984
     22          1           0        4.136317    1.827336   -1.639180
     23          1           0        2.853955    2.073589    1.151286
     24          1           0        2.311327    2.974099   -0.250219
     25          1           0        1.698325    0.953162   -1.436483
     26          1           0        1.376228   -1.178426   -0.199403
     27          1           0        3.363668    0.031815    1.777793
     28          1           0        1.935212   -0.961143    2.122997
     29          1           0        4.374215   -2.194438    1.973150
     30          1           0        3.001350   -2.940163    1.136812
     31          1           0        5.194553   -1.185953   -0.072328
     32          1           0        4.451818   -2.642884   -0.767892
     33          1           0        0.523482    1.571562    1.204602
     34          1           0       -5.863866    0.173597    1.828046
     35          1           0       -6.330530   -1.025890   -0.325189
     36          1           0       -2.290279   -1.041625   -2.581759
     37          1           0       -0.029822   -0.139824   -2.024758
 ---------------------------------------------------------------------

 SCF Done:  E(UB3LYP) =  -838.873942145     A.U. after   27 cycles

 The electronic state is 2-A.
 Alpha  occ. eigenvalues --  -19.03578 -14.20082 -14.14062 -14.13999 -14.13430
 Alpha  occ. eigenvalues --  -10.14120 -10.12707 -10.11300 -10.10068 -10.09839
 Alpha  occ. eigenvalues --  -10.09115 -10.08659 -10.08092 -10.07796 -10.04824
 Alpha  occ. eigenvalues --  -10.04120 -10.04011 -10.02470 -10.02206  -0.95440
 Alpha  occ. eigenvalues --   -0.84176  -0.81322  -0.76459  -0.73541  -0.70972
 Alpha  occ. eigenvalues --   -0.69564  -0.66169  -0.64488  -0.60913  -0.57903
 Alpha  occ. eigenvalues --   -0.53587  -0.52235  -0.51284  -0.49794  -0.47314
 Alpha  occ. eigenvalues --   -0.46383  -0.43215  -0.41398  -0.40968  -0.39478
 Alpha  occ. eigenvalues --   -0.38155  -0.37323  -0.36002  -0.34993  -0.33612
 Alpha  occ. eigenvalues --   -0.33286  -0.32206  -0.31823  -0.30073  -0.29332
 Alpha  occ. eigenvalues --   -0.28193  -0.28077  -0.27808  -0.27745  -0.27196
 Alpha  occ. eigenvalues --   -0.25759  -0.25457  -0.24368  -0.24252  -0.23050
 Alpha  occ. eigenvalues --   -0.22492  -0.18771  -0.17306  -0.15637  -0.14565
 Alpha  occ. eigenvalues --   -0.12621  -0.11935  -0.07852  -0.07792   0.03655
 Alpha virt. eigenvalues --    0.05179   0.06656   0.07455   0.08146   0.09241
 Alpha virt. eigenvalues --    0.09533   0.09945   0.10037   0.10929   0.11413
 Alpha virt. eigenvalues --    0.11958   0.12296   0.12809   0.12976   0.13666

  Beta  occ. eigenvalues --  -19.03576 -14.20052 -14.13908 -14.13435 -14.12999
  Beta  occ. eigenvalues --  -10.14117 -10.12702 -10.11300 -10.10066 -10.09755
  Beta  occ. eigenvalues --  -10.09110 -10.08658 -10.08089 -10.07862 -10.04900
  Beta  occ. eigenvalues --  -10.04103 -10.03849 -10.02342 -10.01907  -0.95436
  Beta  occ. eigenvalues --   -0.83991  -0.80858  -0.76040  -0.72784  -0.70957
  Beta  occ. eigenvalues --   -0.69496  -0.66152  -0.63964  -0.60729  -0.57745
  Beta  occ. eigenvalues --   -0.53523  -0.52223  -0.50647  -0.49689  -0.47244
  Beta  occ. eigenvalues --   -0.46063  -0.43182  -0.41310  -0.40792  -0.39357
  Beta  occ. eigenvalues --   -0.38057  -0.37177  -0.35935  -0.34907  -0.33462
  Beta  occ. eigenvalues --   -0.33220  -0.32166  -0.31744  -0.29992  -0.29026
  Beta  occ. eigenvalues --   -0.28153  -0.27742  -0.27715  -0.27440  -0.27120
  Beta  occ. eigenvalues --   -0.25572  -0.25356  -0.24341  -0.23960  -0.22570
  Beta  occ. eigenvalues --   -0.21992  -0.17210  -0.16828  -0.14860  -0.14028
  Beta  occ. eigenvalues --   -0.12216  -0.10066  -0.07400  -0.06889
  Beta virt. eigenvalues --    0.05132   0.06569   0.07377   0.08069   0.09147
  Beta virt. eigenvalues --    0.09350   0.09783   0.09899   0.09991   0.10855
  Beta virt. eigenvalues --    0.11323   0.11904   0.12241   0.12701   0.13220

 Mulliken charges and spin densities:
               1          2
     1  C   -0.594050  -0.076616
     2  C   -0.292474  -0.030209
     3  C   -0.260489   0.004085
     4  C   -0.125977   0.053326
     5  C   -0.315696  -0.041960
     6  C   -0.438955   0.005814
     7  C   -0.072875  -0.072946
     8  O   -0.076255   0.000070
     9  N    0.190646   0.014226
    10  C   -0.405960   0.015540
    11  N   -0.199940   0.076975
    12  C   -0.902834  -0.029934
    13  N   -0.080462   0.192711
    14  C    0.108133   0.154168
    15  C   -0.135716   0.038965
    16  N   -0.134232   0.246029
    17  C    0.026397  -0.049035
    18  C   -0.161788   0.229948
    19  C    0.259789   0.101504
    20  H    0.095738   0.030884
    21  H    0.102770   0.021747
    22  H    0.141413   0.013112
    23  H    0.088165   0.025067
    24  H    0.189353  -0.004778
    25  H    0.182919   0.029633
    26  H    0.236028   0.005929
    27  H    0.146571   0.007483
    28  H    0.163323   0.008633
    29  H    0.108494   0.046866
    30  H    0.143405  -0.002006
    31  H    0.092551   0.016732
    32  H    0.136841   0.012559
    33  H    0.276770  -0.004553
    34  H    0.138288  -0.012344
    35  H    0.127510  -0.003925
    36  H    0.131277  -0.018475
    37  H    0.111323  -0.005225
 Sum of Mulliken charges =  -1.00000   1.00000

 Dipole moment (field-independent basis, Debye):
    X=             13.5201    Y=             -0.8601    Z=              0.4420  Tot=             13.5546
 Quadrupole moment (field-independent basis, Debye-Ang):
   XX=           -187.2281   YY=           -125.5550   ZZ=           -133.1476
   XY=             -2.1214   XZ=              6.3334   YZ=             -5.7500

 Summary of Natural Population Analysis:

                                       Natural Population
                Natural  -----------------------------------------------
    Atom  No    Charge         Core      Valence    Rydberg      Total
 -----------------------------------------------------------------------
      C    1   -0.28439      0.99967     2.27990    0.00483     3.28439
      C    2   -0.19127      0.99962     2.18379    0.00785     3.19127
      C    3   -0.01161      0.99956     2.00007    0.01197     3.01161
      C    4    0.06243      0.99954     1.92393    0.01410     2.93757
      C    5   -0.20566      0.99962     2.19848    0.00756     3.20566
      C    6   -0.20483      0.99964     2.19858    0.00661     3.20483
      C    7   -0.00966      0.99961     1.99915    0.01090     3.00966
      O    8   -0.30868      0.99989     3.30045    0.00835     4.30868
      N    9   -0.31735      0.99966     2.80580    0.01190     3.81735
      C   10    0.22111      0.99956     1.76426    0.01506     2.77889
      N   11   -0.25563      0.99964     2.74182    0.01417     3.75563
      C   12    0.16583      0.99949     1.81780    0.01688     2.83417
      N   13   -0.17486      0.99968     2.66146    0.01371     3.67486
      C   14    0.03581      0.99962     1.94980    0.01477     2.96419
      C   15   -0.01044      0.99962     1.99589    0.01494     3.01044
      N   16   -0.14773      0.99969     2.63299    0.01505     3.64773
      C   17    0.02249      0.99948     1.96409    0.01394     2.97751
      C   18   -0.01607      0.99955     2.00705    0.00947     3.01607
      C   19   -0.13450      0.99953     2.12820    0.00677     3.13450
      H   20    0.09613      0.00000     0.40217    0.00170     0.40387
      H   21    0.09276      0.00000     0.40615    0.00109     0.40724
      H   22    0.09980      0.00000     0.39895    0.00124     0.40020
      H   23    0.09108      0.00000     0.40755    0.00137     0.40892
      H   24    0.10277      0.00000     0.39598    0.00125     0.39723
      H   25    0.10042      0.00000     0.39806    0.00152     0.39958
      H   26    0.09525      0.00000     0.40336    0.00138     0.40475
      H   27    0.09460      0.00000     0.40363    0.00178     0.40540
      H   28    0.11107      0.00000     0.38762    0.00132     0.38893
      H   29    0.09944      0.00000     0.39912    0.00143     0.40056
      H   30    0.09823      0.00000     0.40057    0.00119     0.40177
      H   31    0.07510      0.00000     0.42268    0.00222     0.42490
      H   32    0.08511      0.00000     0.41336    0.00153     0.41489
      H   33    0.18742      0.00000     0.30963    0.00295     0.31258
      H   34    0.07493      0.00000     0.42317    0.00190     0.42507
      H   35    0.07715      0.00000     0.42099    0.00186     0.42285
      H   36    0.09172      0.00000     0.40604    0.00224     0.40828
      H   37    0.09201      0.00000     0.40653    0.00146     0.40799
 =======================================================================
   * Total *   -0.00000     18.99265    49.75909    0.24826    69.00000

 Normal termination of Gaussian 16 at Sat Dec 12 10:59:15 2020.
