 Gaussian 16, Revision A.03,

 -----------------------------------------------------------
 # opt freq B3LYP/6-31G(d) empiricaldispersion=gd3bj scf=xqc
 -----------------------------------------------------------

 ------------------------------
 CID_60883442_JID_4640_neutraal
 ------------------------------
 Symbolic Z-matrix:
 Charge =  0 Multiplicity = 1

 SCF Done:  E(RB3LYP) =  -597.496866630     A.U. after   14 cycles
 SCF Done:  E(RB3LYP) =  -597.499979831     A.U. after   12 cycles
 SCF Done:  E(RB3LYP) =  -597.500343745     A.U. after   11 cycles
 SCF Done:  E(RB3LYP) =  -597.500619314     A.U. after   11 cycles
 SCF Done:  E(RB3LYP) =  -597.500728430     A.U. after   11 cycles
 SCF Done:  E(RB3LYP) =  -597.500781253     A.U. after   11 cycles
 SCF Done:  E(RB3LYP) =  -597.500821958     A.U. after   11 cycles
 SCF Done:  E(RB3LYP) =  -597.500842568     A.U. after   10 cycles
 SCF Done:  E(RB3LYP) =  -597.500848027     A.U. after    9 cycles
 SCF Done:  E(RB3LYP) =  -597.500849722     A.U. after    8 cycles
 SCF Done:  E(RB3LYP) =  -597.500849995     A.U. after    7 cycles
 SCF Done:  E(RB3LYP) =  -597.500850053     A.U. after    7 cycles
 Optimization completed.
    -- Stationary point found.
 Normal termination of Gaussian 16 at Thu Dec 10 10:17:07 2020.

 --------------------------------------------------------------------
 #N Geom=AllCheck Guess=TCheck SCRF=Check GenChk RB3LYP/6-31G(d) Freq
 --------------------------------------------------------------------

 Structure from the checkpoint file:  "JID_4640.chk"
 ------------------------------
 CID_60883442_JID_4640_neutraal
 ------------------------------
 Charge =  0 Multiplicity = 1

 SCF Done:  E(RB3LYP) =  -597.500850053     A.U. after    1 cycles

  Exact polarizability: 177.112  -3.471 119.987   8.258 -14.726 104.200
 Approx polarizability: 231.955  -0.613 198.922  16.855 -43.199 157.472

                      1                      2                      3
                      A                      A                      A
 Frequencies --     20.4079                29.0782                75.8769
 Red. masses --      3.6809                 4.1552                 3.6724
 Frc consts  --      0.0009                 0.0021                 0.0125
 IR Inten    --      0.1357                 0.2202                 0.4264

                      4                      5                      6
                      A                      A                      A
 Frequencies --     95.6153                99.6177               148.0863
 Red. masses --      2.2464                 2.7603                 2.0606
 Frc consts  --      0.0121                 0.0161                 0.0266
 IR Inten    --      0.5764                 0.2625                 2.0845

                      7                      8                      9
                      A                      A                      A
 Frequencies --    159.1741               214.8940               219.2968
 Red. masses --      3.0399                 2.7255                 2.5425
 Frc consts  --      0.0454                 0.0742                 0.0720
 IR Inten    --      0.1195                 0.1613                 2.6313

                     10                     11                     12
                      A                      A                      A
 Frequencies --    236.1133               256.9407               283.8262
 Red. masses --      1.1364                 1.8054                 2.2268
 Frc consts  --      0.0373                 0.0702                 0.1057
 IR Inten    --      0.4504                 0.2884                 2.9442

                     13                     14                     15
                      A                      A                      A
 Frequencies --    294.6074               340.0789               369.9416
 Red. masses --      3.4397                 2.8506                 2.6628
 Frc consts  --      0.1759                 0.1942                 0.2147
 IR Inten    --      4.3045                 2.6093                 1.7343

                     16                     17                     18
                      A                      A                      A
 Frequencies --    432.3835               465.3503               496.3757
 Red. masses --      3.4454                 3.0155                 3.2291
 Frc consts  --      0.3795                 0.3847                 0.4688
 IR Inten    --      0.5877                 1.8607                 4.8773

                     19                     20                     21
                      A                      A                      A
 Frequencies --    499.5313               579.7883               611.0113
 Red. masses --      2.9161                 4.4887                 2.4489
 Frc consts  --      0.4287                 0.8890                 0.5387
 IR Inten    --      2.2789                 1.6094                 3.5011

                     22                     23                     24
                      A                      A                      A
 Frequencies --    644.4829               657.2658               711.3174
 Red. masses --      3.7445                 2.0529                 1.9676
 Frc consts  --      0.9164                 0.5225                 0.5866
 IR Inten    --      4.3380                16.9597                29.8512

                     25                     26                     27
                      A                      A                      A
 Frequencies --    724.3486               786.8360               789.2174
 Red. masses --      3.5035                 2.0226                 1.6475
 Frc consts  --      1.0831                 0.7378                 0.6046
 IR Inten    --     12.5373                77.2256                89.8947

                     28                     29                     30
                      A                      A                      A
 Frequencies --    870.9425               880.1559               892.0493
 Red. masses --      1.4972                 2.0242                 1.4915
 Frc consts  --      0.6691                 0.9239                 0.6993
 IR Inten    --      1.2585                11.2107                13.0116

                     31                     32                     33
                      A                      A                      A
 Frequencies --    920.0917               936.4730               950.5790
 Red. masses --      1.6952                 1.8020                 1.3439
 Frc consts  --      0.8455                 0.9311                 0.7155
 IR Inten    --      0.6426                 4.7396                43.0775

                     34                     35                     36
                      A                      A                      A
 Frequencies --    958.2552              1005.7190              1017.1528
 Red. masses --      1.2559                 1.6270                 3.4477
 Frc consts  --      0.6795                 0.9696                 2.1016
 IR Inten    --      0.9782                 0.6268                 5.2988

                     37                     38                     39
                      A                      A                      A
 Frequencies --   1021.7229              1040.4116              1071.2834
 Red. masses --      1.9827                 1.2385                 1.9859
 Frc consts  --      1.2195                 0.7899                 1.3428
 IR Inten    --      7.9197                36.5240                72.8122

                     40                     41                     42
                      A                      A                      A
 Frequencies --   1083.6096              1093.6787              1134.1644
 Red. masses --      2.0927                 2.8620                 1.6294
 Frc consts  --      1.4478                 2.0170                 1.2349
 IR Inten    --     20.5081                38.8018                 8.7147

                     43                     44                     45
                      A                      A                      A
 Frequencies --   1158.1041              1172.3561              1178.3252
 Red. masses --      2.9447                 1.5065                 1.8788
 Frc consts  --      2.3269                 1.2199                 1.5369
 IR Inten    --     36.3632                20.6336                 9.9161

                     46                     47                     48
                      A                      A                      A
 Frequencies --   1186.8841              1211.4389              1251.1253
 Red. masses --      1.6683                 1.1713                 2.1829
 Frc consts  --      1.3846                 1.0128                 2.0132
 IR Inten    --     22.3438                 0.3186                12.0799

                     49                     50                     51
                      A                      A                      A
 Frequencies --   1282.6714              1300.2943              1319.4425
 Red. masses --      2.1943                 1.6660                 1.4421
 Frc consts  --      2.1270                 1.6596                 1.4792
 IR Inten    --    142.5035                64.7821                23.1264

                     52                     53                     54
                      A                      A                      A
 Frequencies --   1332.6673              1358.0277              1371.2411
 Red. masses --      1.3813                 1.3471                 1.9199
 Frc consts  --      1.4454                 1.4637                 2.1269
 IR Inten    --     53.2042                 5.5748                11.1287

                     55                     56                     57
                      A                      A                      A
 Frequencies --   1385.7103              1409.6218              1431.5874
 Red. masses --      1.8265                 1.3616                 1.2523
 Frc consts  --      2.0663                 1.5940                 1.5121
 IR Inten    --     28.8302                 5.6044                 5.0716

                     58                     59                     60
                      A                      A                      A
 Frequencies --   1477.1457              1480.3989              1498.9343
 Red. masses --      1.2083                 1.1804                 2.2399
 Frc consts  --      1.5533                 1.5242                 2.9651
 IR Inten    --     16.6966                 1.5589                24.1837

                     61                     62                     63
                      A                      A                      A
 Frequencies --   1503.2937              1517.7403              1521.2909
 Red. masses --      1.2774                 1.0581                 1.1061
 Frc consts  --      1.7008                 1.4361                 1.5083
 IR Inten    --     22.9233                 4.7831                 5.5176

                     64                     65                     66
                      A                      A                      A
 Frequencies --   1523.8170              1529.9420              1541.4271
 Red. masses --      1.0522                 1.1072                 2.2283
 Frc consts  --      1.4395                 1.5270                 3.1195
 IR Inten    --     12.8384                 7.5507                62.7775

                     67                     68                     69
                      A                      A                      A
 Frequencies --   1549.7511              1645.0713              1670.1522
 Red. masses --      1.0633                 5.5824                 6.1558
 Frc consts  --      1.5047                 8.9011                10.1169
 IR Inten    --      6.5592                64.6684                77.8787

                     70                     71                     72
                      A                      A                      A
 Frequencies --   1734.1896              2991.5290              3034.9726
 Red. masses --      4.5226                 1.0529                 1.0839
 Frc consts  --      8.0137                 5.5514                 5.8823
 IR Inten    --      1.6063                58.2099                18.4295

                     73                     74                     75
                      A                      A                      A
 Frequencies --   3037.8168              3050.8650              3075.8557
 Red. masses --      1.0621                 1.0377                 1.0815
 Frc consts  --      5.7750                 5.6906                 6.0288
 IR Inten    --     41.2006                23.3685                48.4756

                     76                     77                     78
                      A                      A                      A
 Frequencies --   3089.5157              3117.5411              3118.5125
 Red. masses --      1.1020                 1.0986                 1.1024
 Frc consts  --      6.1976                 6.2910                 6.3165
 IR Inten    --     22.4695                29.3742                37.1102

                     79                     80                     81
                      A                      A                      A
 Frequencies --   3139.8051              3155.2257              3172.5144
 Red. masses --      1.1040                 1.0596                 1.0928
 Frc consts  --      6.4125                 6.2154                 6.4802
 IR Inten    --     29.4289                 9.6426                 5.8057

                     82                     83                     84
                      A                      A                      A
 Frequencies --   3175.2681              3194.1147              3195.9270
 Red. masses --      1.0861                 1.0922                 1.0915
 Frc consts  --      6.4517                 6.5653                 6.5688
 IR Inten    --      8.6197                32.1546                 0.9528

                     85                     86                     87
                      A                      A                      A
 Frequencies --   3239.8090              3251.8390              3482.8829
 Red. masses --      1.1146                 1.0910                 1.0734
 Frc consts  --      6.8931                 6.7974                 7.6718
 IR Inten    --     16.0527                 7.7279                 1.5711

 - Thermochemistry -
 -------------------
 Temperature   298.150 Kelvin.  Pressure   1.00000 Atm.
 Atom     1 has atomic number  6 and mass  12.00000

 Molecular mass:   191.13101 amu.
 Principal axes and moments of inertia in atomic units:
                           1         2         3
     Eigenvalues --  1139.448355842.769936004.72610
           X            0.99998  -0.00512   0.00280
           Y            0.00490   0.99722   0.07438
           Z           -0.00317  -0.07437   0.99723
 This molecule is an asymmetric top.
 Rotational symmetry number  1.
 Warning -- assumption of classical behavior for rotation
           may cause significant error
 Rotational temperatures (Kelvin)      0.07601     0.01482     0.01442
 Rotational constants (GHZ):           1.58387     0.30888     0.30055
 Zero-point vibrational energy     706899.7 (Joules/Mol)
                                  168.95308 (Kcal/Mol)
 Warning -- explicit consideration of  21 degrees of freedom as
           vibrations may cause significant error
 Vibrational temperatures:     29.36    41.84   109.17   137.57   143.33
          (Kelvin)            213.06   229.02   309.18   315.52   339.71
                              369.68   408.36   423.87   489.30   532.26
                              622.10   669.54   714.17   718.71   834.19
                              879.11   927.27   945.66  1023.43  1042.18
                             1132.08  1135.51  1253.09  1266.35  1283.46
                             1323.81  1347.38  1367.67  1378.72  1447.01
                             1463.46  1470.03  1496.92  1541.34  1559.07
                             1573.56  1631.81  1666.25  1686.76  1695.35
                             1707.66  1742.99  1800.09  1845.48  1870.83
                             1898.38  1917.41  1953.90  1972.91  1993.73
                             2028.13  2059.73  2125.28  2129.96  2156.63
                             2162.90  2183.69  2188.80  2192.43  2201.25
                             2217.77  2229.75  2366.89  2402.98  2495.11
                             4304.14  4366.65  4370.74  4389.51  4425.47
                             4445.12  4485.45  4486.84  4517.48  4539.67
                             4564.54  4568.50  4595.62  4598.23  4661.36
                             4678.67  5011.09

 Zero-point correction=                           0.269244 (Hartree/Particle)
 Thermal correction to Energy=                    0.283807
 Thermal correction to Enthalpy=                  0.284751
 Thermal correction to Gibbs Free Energy=         0.226368
 Sum of electronic and zero-point Energies=           -597.231606
 Sum of electronic and thermal Energies=              -597.217043
 Sum of electronic and thermal Enthalpies=            -597.216099
 Sum of electronic and thermal Free Energies=         -597.274482

                     E (Thermal)             CV                S
                      KCal/Mol        Cal/Mol-Kelvin    Cal/Mol-Kelvin
 Total                  178.092             54.523            122.878
 Electronic               0.000              0.000              0.000
 Translational            0.889              2.981             41.649
 Rotational               0.889              2.981             32.058
 Vibrational            176.314             48.561             49.171
 Vibration     1          0.593              1.986              6.594
 Vibration     2          0.593              1.984              5.891
 Vibration     3          0.599              1.965              3.995
 Vibration     4          0.603              1.952              3.542
 Vibration     5          0.604              1.949              3.462
 Vibration     6          0.617              1.905              2.697
 Vibration     7          0.621              1.892              2.560
 Vibration     8          0.645              1.818              2.002
 Vibration     9          0.647              1.812              1.965
 Vibration    10          0.655              1.785              1.832
 Vibration    11          0.667              1.751              1.682
 Vibration    12          0.682              1.704              1.511
 Vibration    13          0.689              1.684              1.447
 Vibration    14          0.720              1.595              1.212
 Vibration    15          0.742              1.534              1.080
 Vibration    16          0.793              1.400              0.851
 Vibration    17          0.823              1.327              0.751
 Vibration    18          0.852              1.258              0.667
 Vibration    19          0.855              1.251              0.659
 Vibration    20          0.936              1.075              0.486
 Vibration    21          0.970              1.009              0.431

                           ! Non-Optimized Parameters !
 Normal termination of Gaussian 16 at Thu Dec 10 10:26:08 2020.

 ----------------------------------------------------------------------
 # B3LYP/6-311++G(d,p) empiricaldispersion=gd3bj scf=xqc pop=npa geom=c
 heck
 ----------------------------------------------------------------------

 --------------------------------------
 CID_60883442_JID_4640_Energie_neutraal
 --------------------------------------
 Structure from the checkpoint file:  "JID_4640.chk"
 Charge =  0 Multiplicity = 1

 SCF Done:  E(RB3LYP) =  -597.668991729     A.U. after   15 cycles
 Normal termination of Gaussian 16 at Thu Dec 10 10:30:39 2020.

 ----------------------------------------------------------------------
 # B3LYP/6-311++G(d,p) empiricaldispersion=gd3bj scf=xqc pop=npa geom=c
 heck
 ----------------------------------------------------------------------

 ------------------------------------
 CID_60883442_JID_4640_Energie_kation
 ------------------------------------
 Structure from the checkpoint file:  "JID_4640.chk"
 Charge =  1 Multiplicity = 2

 SCF Done:  E(UB3LYP) =  -597.383534048     A.U. after   25 cycles
 Normal termination of Gaussian 16 at Thu Dec 10 10:41:16 2020.
 Gaussian 16:  ES64L-G16RevA.03 25-Dec-2016

 ----------------------------------------------------------------------
 # B3LYP/6-311++G(d,p) empiricaldispersion=gd3bj scf=xqc pop=npa geom=c
 heck
 ----------------------------------------------------------------------

 -----------------------------------
 CID_60883442_JID_4640_Energie_anion
 -----------------------------------
 Structure from the checkpoint file:  "JID_4640.chk"
 Charge = -1 Multiplicity = 2

                         Standard orientation:
 ---------------------------------------------------------------------
 Center     Atomic      Atomic             Coordinates (Angstroms)
 Number     Number       Type             X           Y           Z
 ---------------------------------------------------------------------
      1          6           0        3.178688    0.867215    1.776649
      2          6           0        2.733433   -0.156879    0.727432
      3          6           0        1.335781    0.164466    0.201968
      4          6           0        0.266012   -0.679314    0.482883
      5          6           0       -1.023222   -0.396729    0.010134
      6          6           0       -1.247497    0.747647   -0.759892
      7          6           0       -0.168460    1.589428   -1.048070
      8          6           0        1.109036    1.308977   -0.577993
      9          8           0       -1.978622   -1.317627    0.346771
     10          6           0       -3.312695   -1.138131   -0.126394
     11          6           0       -4.060779   -0.066262    0.617482
     12          6           0       -4.873880    0.818222    0.042760
     13          7           0        3.768313   -0.259759   -0.306529
     14          6           0        3.474734   -1.242649   -1.345021
     15          1           0        3.241920    1.871002    1.338607
     16          1           0        4.165503    0.599661    2.166255
     17          1           0        2.462904    0.912555    2.603317
     18          1           0        2.684141   -1.142750    1.209402
     19          1           0        0.409842   -1.580244    1.072871
     20          1           0       -2.237097    1.000043   -1.116119
     21          1           0       -0.341807    2.479836   -1.646680
     22          1           0        1.931845    1.978451   -0.815679
     23          1           0       -3.321950   -0.951807   -1.208882
     24          1           0       -3.782739   -2.112245    0.049297
     25          1           0       -3.923855   -0.074585    1.698024
     26          1           0       -5.432392    1.546002    0.624059
     27          1           0       -5.017357    0.844837   -1.036026
     28          1           0        3.900829    0.655467   -0.734693
     29          1           0        2.527834   -1.073029   -1.884021
     30          1           0        4.293339   -1.251886   -2.071956
     31          1           0        3.422917   -2.237924   -0.887874
 ---------------------------------------------------------------------

 SCF Done:  E(UB3LYP) =  -597.652795428     A.U. after   33 cycles
 SCF Done:  E(UB3LYP) =  -597.652795429     a.u. after    2 cycles

 The electronic state is 2-A.
 Alpha  occ. eigenvalues --  -19.05906 -14.20586 -10.13930 -10.13836 -10.11183
 Alpha  occ. eigenvalues --  -10.09266 -10.08802 -10.08302 -10.07753 -10.07680
 Alpha  occ. eigenvalues --  -10.07288 -10.07177 -10.07017 -10.06817  -0.97468
 Alpha  occ. eigenvalues --   -0.81814  -0.75729  -0.70545  -0.67921  -0.65300
 Alpha  occ. eigenvalues --   -0.63434  -0.59506  -0.56829  -0.53504  -0.51246
 Alpha  occ. eigenvalues --   -0.49121  -0.46865  -0.43892  -0.40125  -0.39636
 Alpha  occ. eigenvalues --   -0.38005  -0.37168  -0.36683  -0.35633  -0.34824
 Alpha  occ. eigenvalues --   -0.33487  -0.32747  -0.32331  -0.30299  -0.29705
 Alpha  occ. eigenvalues --   -0.28987  -0.27786  -0.27054  -0.26307  -0.25945
 Alpha  occ. eigenvalues --   -0.25161  -0.23349  -0.22499  -0.18149  -0.15633
 Alpha  occ. eigenvalues --   -0.13891  -0.12759   0.04483
 Alpha virt. eigenvalues --    0.06166   0.06780   0.07359   0.07532   0.07908
 Alpha virt. eigenvalues --    0.08064   0.08574   0.08833   0.09342   0.09958
 Alpha virt. eigenvalues --    0.10444   0.10576   0.11136   0.11483   0.12068

  Beta  occ. eigenvalues --  -19.05895 -14.20569 -10.13910 -10.13835 -10.11179
  Beta  occ. eigenvalues --  -10.09252 -10.08791 -10.08304 -10.07699 -10.07660
  Beta  occ. eigenvalues --  -10.07285 -10.07166 -10.07003 -10.06796  -0.97441
  Beta  occ. eigenvalues --   -0.81790  -0.75707  -0.70508  -0.67900  -0.65264
  Beta  occ. eigenvalues --   -0.63410  -0.59454  -0.56787  -0.53469  -0.51208
  Beta  occ. eigenvalues --   -0.49050  -0.46804  -0.43859  -0.40097  -0.39593
  Beta  occ. eigenvalues --   -0.37966  -0.37122  -0.36651  -0.35590  -0.34785
  Beta  occ. eigenvalues --   -0.33463  -0.32711  -0.32310  -0.30267  -0.29675
  Beta  occ. eigenvalues --   -0.28958  -0.27751  -0.27022  -0.26275  -0.25916
  Beta  occ. eigenvalues --   -0.25130  -0.23318  -0.22472  -0.18065  -0.15614
  Beta  occ. eigenvalues --   -0.13872  -0.12739
  Beta virt. eigenvalues --    0.06476   0.07002   0.07258   0.07587   0.07914
  Beta virt. eigenvalues --    0.08310   0.08569   0.08923   0.09192   0.09434
  Beta virt. eigenvalues --    0.10082   0.10869   0.11088   0.11372   0.11757

 Mulliken charges and spin densities:
               1          2
     1  C    0.040615  -0.663598
     2  C    0.078267  -0.862105
     3  C    0.584657   0.797772
     4  C   -2.074886   1.768409
     5  C   -1.559546   0.977651
     6  C    2.004089  -1.858114
     7  C    0.726303  -1.149305
     8  C    0.510161  -0.869796
     9  O   -0.086675   0.011967
    10  C    0.845962  -1.318891
    11  C   -0.830150   1.123395
    12  C    0.937218  -1.397253
    13  N   -0.024076   0.019801
    14  C   -0.015094  -0.376948
    15  H   -0.077915   0.232650
    16  H    0.076551   0.073109
    17  H    0.026083   0.113209
    18  H    0.064209   0.084343
    19  H    0.123617   0.045356
    20  H    0.649874  -0.553866
    21  H   -1.226728   1.437691
    22  H   -0.312250   0.443855
    23  H   -0.271383   0.439102
    24  H   -0.047782   0.233827
    25  H   -0.292755   0.474075
    26  H   -0.203310   0.327148
    27  H   -0.662118   0.798752
    28  H   -0.024120   0.282371
    29  H    0.157514  -0.009854
    30  H   -0.159414   0.293273
    31  H    0.043080   0.081971
 Sum of Mulliken charges =  -1.00000   1.00000

 Dipole moment (field-independent basis, Debye):
    X=              2.8169    Y=             -5.1877    Z=              3.1312  Tot=              6.6822
 Quadrupole moment (field-independent basis, Debye-Ang):
   XX=           -182.0264   YY=           -128.5529   ZZ=           -121.3106
   XY=              3.8473   XZ=             -0.2059   YZ=              6.3028

 Summary of Natural Population Analysis:

                                       Natural Population
                Natural  -----------------------------------------------
    Atom  No    Charge         Core      Valence    Rydberg      Total
 -----------------------------------------------------------------------
      C    1   -0.28154      0.99964     2.27708    0.00482     3.28154
      C    2   -0.01601      0.99957     2.00272    0.01373     3.01601
      C    3   -0.01582      0.99949     2.00467    0.01166     3.01582
      C    4   -0.12226      0.99946     2.11425    0.00855     3.12226
      C    5    0.16290      0.99938     1.82392    0.01380     2.83710
      C    6   -0.14531      0.99951     2.13634    0.00946     3.14531
      C    7   -0.08272      0.99957     2.07211    0.01104     3.08272
      C    8   -0.11954      0.99950     2.10883    0.01121     3.11954
      O    9   -0.27578      0.99986     3.26685    0.00907     4.27578
      C   10   -0.02973      0.99954     2.01704    0.01316     3.02973
      C   11   -0.10528      0.99956     2.09524    0.01047     3.10528
      C   12   -0.17603      0.99956     2.16875    0.00772     3.17603
      N   13   -0.33735      0.99975     2.82547    0.01213     3.83735
      C   14   -0.18139      0.99966     2.17315    0.00858     3.18139
      H   15    0.09929      0.00000     0.39962    0.00109     0.40071
      H   16    0.10121      0.00000     0.39770    0.00109     0.39879
      H   17    0.10114      0.00000     0.39810    0.00076     0.39886
      H   18    0.09007      0.00000     0.40809    0.00185     0.40993
      H   19    0.10221      0.00000     0.39613    0.00166     0.39779
      H   20    0.11052      0.00000     0.38699    0.00249     0.38948
      H   21    0.10399      0.00000     0.39399    0.00203     0.39601
      H   22    0.10116      0.00000     0.39669    0.00215     0.39884
      H   23    0.09021      0.00000     0.40813    0.00166     0.40979
      H   24    0.09700      0.00000     0.40178    0.00122     0.40300
      H   25    0.09700      0.00000     0.40191    0.00109     0.40300
      H   26    0.09719      0.00000     0.40141    0.00139     0.40281
      H   27    0.09365      0.00000     0.40398    0.00237     0.40635
      H   28    0.17215      0.00000     0.32444    0.00341     0.32785
      H   29    0.08680      0.00000     0.41183    0.00136     0.41320
      H   30    0.09385      0.00000     0.40534    0.00081     0.40615
      H   31    0.08844      0.00000     0.41058    0.00098     0.41156
 =======================================================================
   * Total *    0.00000     13.99404    37.83313    0.17283    52.00000

 Normal termination of Gaussian 16 at Thu Dec 10 11:45:37 2020.
