 Gaussian 16, Revision A.03,

 -----------------------------------------------------------
 # opt freq B3LYP/6-31G(d) empiricaldispersion=gd3bj scf=xqc
 -----------------------------------------------------------

 -------------------------------
 CID_119813658_JID_7282_neutraal
 -------------------------------
 Symbolic Z-matrix:
 Charge =  0 Multiplicity = 1

 SCF Done:  E(RB3LYP) =  -768.636846952     A.U. after   14 cycles
 SCF Done:  E(RB3LYP) =  -768.642379502     A.U. after   12 cycles
 SCF Done:  E(RB3LYP) =  -768.642881489     A.U. after   11 cycles
 SCF Done:  E(RB3LYP) =  -768.642875054     A.U. after   11 cycles
 SCF Done:  E(RB3LYP) =  -768.643048748     A.U. after   11 cycles
 SCF Done:  E(RB3LYP) =  -768.643117926     A.U. after   10 cycles
 SCF Done:  E(RB3LYP) =  -768.643147374     A.U. after   10 cycles
 SCF Done:  E(RB3LYP) =  -768.643154909     A.U. after    9 cycles
 SCF Done:  E(RB3LYP) =  -768.643162389     A.U. after    9 cycles
 SCF Done:  E(RB3LYP) =  -768.643168846     A.U. after    9 cycles
 SCF Done:  E(RB3LYP) =  -768.643171902     A.U. after    9 cycles
 SCF Done:  E(RB3LYP) =  -768.643173039     A.U. after    8 cycles
 SCF Done:  E(RB3LYP) =  -768.643173499     A.U. after    8 cycles
 SCF Done:  E(RB3LYP) =  -768.643173767     A.U. after    7 cycles
 SCF Done:  E(RB3LYP) =  -768.643173917     A.U. after    7 cycles
 SCF Done:  E(RB3LYP) =  -768.643173976     A.U. after    7 cycles
 Optimization completed.
    -- Stationary point found.
 Normal termination of Gaussian 16 at Thu Dec 17 20:10:34 2020.

 --------------------------------------------------------------------
 #N Geom=AllCheck Guess=TCheck SCRF=Check GenChk RB3LYP/6-31G(d) Freq
 --------------------------------------------------------------------

 Structure from the checkpoint file:  "JID_7282.chk"
 -------------------------------
 CID_119813658_JID_7282_neutraal
 -------------------------------
 Charge =  0 Multiplicity = 1

 SCF Done:  E(RB3LYP) =  -768.643173976     A.U. after    1 cycles

  Exact polarizability: 170.571  -0.051 132.425   3.804  -3.421 134.642
 Approx polarizability: 208.334  -0.867 197.486   7.326 -14.578 209.169

                      1                      2                      3
                      A                      A                      A
 Frequencies --     28.0847                32.1462                35.0102
 Red. masses --      4.6620                 3.3071                 4.2168
 Frc consts  --      0.0022                 0.0020                 0.0030
 IR Inten    --      0.3036                 1.8415                 3.7705

                      4                      5                      6
                      A                      A                      A
 Frequencies --     53.3038                61.2858                82.3843
 Red. masses --      4.3471                 3.6773                 1.7759
 Frc consts  --      0.0073                 0.0081                 0.0071
 IR Inten    --      1.7584                 0.8281                 0.4309

                      7                      8                      9
                      A                      A                      A
 Frequencies --    132.1084               142.7258               167.9538
 Red. masses --      2.7447                 2.9364                 3.2580
 Frc consts  --      0.0282                 0.0352                 0.0541
 IR Inten    --      0.7700                 1.3629                 1.9277

                     10                     11                     12
                      A                      A                      A
 Frequencies --    174.4397               218.8221               229.5438
 Red. masses --      2.4788                 2.8655                 3.6954
 Frc consts  --      0.0444                 0.0808                 0.1147
 IR Inten    --      0.4764                 4.0427                11.1523

                     13                     14                     15
                      A                      A                      A
 Frequencies --    278.3986               290.2605               369.9207
 Red. masses --      2.7023                 2.9789                 2.6293
 Frc consts  --      0.1234                 0.1479                 0.2120
 IR Inten    --      0.5562                 4.4811                 0.9963

                     16                     17                     18
                      A                      A                      A
 Frequencies --    382.5344               401.5680               430.4798
 Red. masses --      2.0341                 2.2254                 2.4780
 Frc consts  --      0.1754                 0.2114                 0.2706
 IR Inten    --      2.3182                 8.9107                 1.9250

                     19                     20                     21
                      A                      A                      A
 Frequencies --    456.4297               533.5484               620.5398
 Red. masses --      3.5840                 3.9621                 3.3420
 Frc consts  --      0.4399                 0.6645                 0.7582
 IR Inten    --      2.1174                 5.5012                17.2479

                     22                     23                     24
                      A                      A                      A
 Frequencies --    655.5727               678.7702               695.6630
 Red. masses --      2.9145                 2.4769                 3.4274
 Frc consts  --      0.7380                 0.6724                 0.9773
 IR Inten    --      0.8997                 2.2919                 1.1411

                     25                     26                     27
                      A                      A                      A
 Frequencies --    710.0632               734.9649               786.4147
 Red. masses --      2.7725                 4.1639                 2.1750
 Frc consts  --      0.8236                 1.3252                 0.7925
 IR Inten    --      8.2629                 3.6811                 3.8712

                     28                     29                     30
                      A                      A                      A
 Frequencies --    798.5380               821.0367               840.3791
 Red. masses --      1.8817                 1.9768                 2.1670
 Frc consts  --      0.7070                 0.7851                 0.9017
 IR Inten    --     54.4645                54.9265                11.0271

                     31                     32                     33
                      A                      A                      A
 Frequencies --    846.2646               877.1583               888.1850
 Red. masses --      2.2488                 1.9276                 1.8317
 Frc consts  --      0.9489                 0.8738                 0.8513
 IR Inten    --     10.1676                 2.0863                 5.8613

                     34                     35                     36
                      A                      A                      A
 Frequencies --    893.5024               913.5965               928.0112
 Red. masses --      2.2407                 2.3033                 3.2170
 Frc consts  --      1.0540                 1.1327                 1.6323
 IR Inten    --      0.7866                 9.6241                17.9135

                     37                     38                     39
                      A                      A                      A
 Frequencies --    951.2668               955.5401               973.7435
 Red. masses --      2.3294                 2.4772                 1.7249
 Frc consts  --      1.2420                 1.3326                 0.9636
 IR Inten    --      9.6814                 8.4835                 0.5260

                     40                     41                     42
                      A                      A                      A
 Frequencies --    985.0358               987.2555              1011.4701
 Red. masses --      2.0081                 2.2850                 2.0918
 Frc consts  --      1.1480                 1.3122                 1.2609
 IR Inten    --      5.8205                 7.0814                 0.7730

                     43                     44                     45
                      A                      A                      A
 Frequencies --   1023.6795              1040.9611              1049.0850
 Red. masses --      2.6464                 1.6739                 1.6571
 Frc consts  --      1.6339                 1.0687                 1.0746
 IR Inten    --      3.5589                 5.4895                 3.3852

                     46                     47                     48
                      A                      A                      A
 Frequencies --   1061.2462              1065.2911              1090.4759
 Red. masses --      1.5777                 2.0833                 2.3349
 Frc consts  --      1.0469                 1.3930                 1.6359
 IR Inten    --      2.8660                10.8899                23.2970

                     49                     50                     51
                      A                      A                      A
 Frequencies --   1099.1673              1125.4107              1147.4905
 Red. masses --      3.1956                 3.5344                 2.8399
 Frc consts  --      2.2747                 2.6375                 2.2032
 IR Inten    --     39.9023                34.9520                35.7526

                     52                     53                     54
                      A                      A                      A
 Frequencies --   1178.8356              1183.5517              1202.9681
 Red. masses --      1.6895                 1.3433                 1.5694
 Frc consts  --      1.3833                 1.1086                 1.3381
 IR Inten    --     23.9588                12.2622                 2.5653

                     55                     56                     57
                      A                      A                      A
 Frequencies --   1206.7870              1219.6611              1226.5439
 Red. masses --      1.2552                 1.3317                 1.7751
 Frc consts  --      1.0770                 1.1671                 1.5734
 IR Inten    --      6.6505                 9.3003                17.9762

                     58                     59                     60
                      A                      A                      A
 Frequencies --   1229.5340              1249.9984              1253.8557
 Red. masses --      1.3732                 1.2853                 1.7626
 Frc consts  --      1.2231                 1.1832                 1.6326
 IR Inten    --      8.9208                 2.2863                 5.1227

                     61                     62                     63
                      A                      A                      A
 Frequencies --   1258.3680              1260.8547              1290.6834
 Red. masses --      1.2632                 1.2549                 1.8726
 Frc consts  --      1.1785                 1.1755                 1.8380
 IR Inten    --      2.4483                 7.0153                15.5086

                     64                     65                     66
                      A                      A                      A
 Frequencies --   1315.1867              1322.3511              1326.9687
 Red. masses --      1.3657                 1.2849                 1.4726
 Frc consts  --      1.3918                 1.3238                 1.5277
 IR Inten    --      2.7640                 5.8497                 4.8200

                     67                     68                     69
                      A                      A                      A
 Frequencies --   1335.0675              1337.7181              1344.4437
 Red. masses --      1.2626                 1.4588                 1.4366
 Frc consts  --      1.3259                 1.5381                 1.5299
 IR Inten    --      0.5994                 9.4337                 2.3250

                     70                     71                     72
                      A                      A                      A
 Frequencies --   1347.4826              1380.1270              1385.9618
 Red. masses --      1.4039                 1.3877                 1.3397
 Frc consts  --      1.5018                 1.5574                 1.5163
 IR Inten    --      1.6434                 6.7278                11.2998

                     73                     74                     75
                      A                      A                      A
 Frequencies --   1386.7372              1398.7944              1402.1153
 Red. masses --      1.3443                 1.7265                 1.5387
 Frc consts  --      1.5231                 1.9904                 1.7823
 IR Inten    --      3.8280                 9.9574                15.0246

                     76                     77                     78
                      A                      A                      A
 Frequencies --   1426.8411              1452.8693              1480.4865
 Red. masses --      1.4150                 3.7232                 1.2247
 Frc consts  --      1.6973                 4.6304                 1.5815
 IR Inten    --     10.8419               290.3274                 5.0428

                     79                     80                     81
                      A                      A                      A
 Frequencies --   1514.9776              1518.5865              1519.4233
 Red. masses --      1.1394                 1.0883                 1.0900
 Frc consts  --      1.5408                 1.4787                 1.4827
 IR Inten    --     19.9022                 0.1287                 2.9582

                     82                     83                     84
                      A                      A                      A
 Frequencies --   1520.5655              1533.3373              1546.0412
 Red. masses --      1.0961                 1.1002                 1.0802
 Frc consts  --      1.4932                 1.5241                 1.5212
 IR Inten    --      5.6513                 3.7828                 1.9770

                     85                     86                     87
                      A                      A                      A
 Frequencies --   1549.4763              1550.9911              1557.5839
 Red. masses --      1.0931                 1.0861                 1.0982
 Frc consts  --      1.5463                 1.5394                 1.5697
 IR Inten    --      2.5638                 1.4343                 6.6367

                     88                     89                     90
                      A                      A                      A
 Frequencies --   1566.4549              1750.8902              2992.5797
 Red. masses --      1.0953                10.4667                 1.0706
 Frc consts  --      1.5836                18.9050                 5.6491
 IR Inten    --      0.8164               262.4751                79.4495

                     91                     92                     93
                      A                      A                      A
 Frequencies --   3029.0909              3033.6421              3038.7514
 Red. masses --      1.0674                 1.0716                 1.0656
 Frc consts  --      5.7705                 5.8106                 5.7973
 IR Inten    --     44.5926                52.0486                15.2356

                     94                     95                     96
                      A                      A                      A
 Frequencies --   3052.7238              3055.4756              3058.4588
 Red. masses --      1.0672                 1.0653                 1.0676
 Frc consts  --      5.8594                 5.8597                 5.8841
 IR Inten    --     29.4186                22.4187                10.6210

                     97                     98                     99
                      A                      A                      A
 Frequencies --   3058.7557              3067.1163              3078.7188
 Red. masses --      1.0617                 1.0667                 1.0940
 Frc consts  --      5.8522                 5.9125                 6.1097
 IR Inten    --     46.0825                31.1995                51.9920

                    100                    101                    102
                      A                      A                      A
 Frequencies --   3081.6065              3086.8736              3089.6119
 Red. masses --      1.0951                 1.0776                 1.0793
 Frc consts  --      6.1272                 6.0498                 6.0702
 IR Inten    --     47.6199                 6.2975                43.5197

                    103                    104                    105
                      A                      A                      A
 Frequencies --   3092.6563              3103.4612              3112.4500
 Red. masses --      1.0981                 1.1016                 1.0891
 Frc consts  --      6.1882                 6.2510                 6.2164
 IR Inten    --     22.1596                 8.5018                 4.5316

                    106                    107                    108
                      A                      A                      A
 Frequencies --   3113.8094              3116.3251              3118.0200
 Red. masses --      1.1023                 1.1027                 1.1042
 Frc consts  --      6.2973                 6.3093                 6.3252
 IR Inten    --     19.3431                48.7862                85.6998

                    109                    110                    111
                      A                      A                      A
 Frequencies --   3132.9138              3135.2570              3488.5007
 Red. masses --      1.0931                 1.1025                 1.0749
 Frc consts  --      6.3210                 6.3849                 7.7071
 IR Inten    --      8.3392                31.7718                 1.4898

 - Thermochemistry -
 -------------------
 Temperature   298.150 Kelvin.  Pressure   1.00000 Atm.
 Atom     1 has atomic number  6 and mass  12.00000

 Molecular mass:   238.16813 amu.
 Principal axes and moments of inertia in atomic units:
                           1         2         3
     Eigenvalues --  1854.382347434.120627750.43962
           X            0.99997   0.00716   0.00241
           Y           -0.00726   0.99887   0.04704
           Z           -0.00207  -0.04706   0.99889
 This molecule is an asymmetric top.
 Rotational symmetry number  1.
 Warning -- assumption of classical behavior for rotation
           may cause significant error
 Rotational temperatures (Kelvin)      0.04671     0.01165     0.01118
 Rotational constants (GHZ):           0.97323     0.24276     0.23286
 Zero-point vibrational energy     917695.1 (Joules/Mol)
                                  219.33440 (Kcal/Mol)
 Warning -- explicit consideration of  21 degrees of freedom as
           vibrations may cause significant error
 Vibrational temperatures:     40.41    46.25    50.37    76.69    88.18
          (Kelvin)            118.53   190.07   205.35   241.65   250.98
                              314.84   330.26   400.55   417.62   532.23
                              550.38   577.77   619.36   656.70   767.66
                              892.82   943.22   976.60  1000.90  1021.62
                             1057.45  1131.48  1148.92  1181.29  1209.12
                             1217.59  1262.04  1277.90  1285.55  1314.46
                             1335.20  1368.66  1374.81  1401.00  1417.25
                             1420.44  1455.28  1472.85  1497.71  1509.40
                             1526.90  1532.72  1568.95  1581.46  1619.22
                             1650.98  1696.08  1702.87  1730.80  1736.30
                             1754.82  1764.72  1769.03  1798.47  1804.02
                             1810.51  1814.09  1857.01  1892.26  1902.57
                             1909.21  1920.86  1924.68  1934.35  1938.73
                             1985.69  1994.09  1995.21  2012.55  2017.33
                             2052.91  2090.35  2130.09  2179.71  2184.91
                             2186.11  2187.75  2206.13  2224.41  2229.35
                             2231.53  2241.02  2253.78  2519.14  4305.65
                             4358.19  4364.73  4372.09  4392.19  4396.15
                             4400.44  4400.87  4412.90  4429.59  4433.74
                             4441.32  4445.26  4449.64  4465.19  4478.12
                             4480.08  4483.70  4486.14  4507.56  4510.94
                             5019.17

 Zero-point correction=                           0.349532 (Hartree/Particle)
 Thermal correction to Energy=                    0.365782
 Thermal correction to Enthalpy=                  0.366726
 Thermal correction to Gibbs Free Energy=         0.303121
 Sum of electronic and zero-point Energies=           -768.293642
 Sum of electronic and thermal Energies=              -768.277392
 Sum of electronic and thermal Enthalpies=            -768.276448
 Sum of electronic and thermal Free Energies=         -768.340053

                     E (Thermal)             CV                S
                      KCal/Mol        Cal/Mol-Kelvin    Cal/Mol-Kelvin
 Total                  229.532             61.456            133.868
 Electronic               0.000              0.000              0.000
 Translational            0.889              2.981             42.305
 Rotational               0.889              2.981             33.035
 Vibrational            227.754             55.494             58.528
 Vibration     1          0.593              1.984              5.960
 Vibration     2          0.594              1.983              5.692
 Vibration     3          0.594              1.982              5.523
 Vibration     4          0.596              1.976              4.691
 Vibration     5          0.597              1.973              4.415
 Vibration     6          0.600              1.961              3.833
 Vibration     7          0.612              1.921              2.915
 Vibration     8          0.616              1.910              2.767
 Vibration     9          0.625              1.882              2.458
 Vibration    10          0.627              1.874              2.387
 Vibration    11          0.647              1.812              1.969
 Vibration    12          0.652              1.796              1.883
 Vibration    13          0.679              1.713              1.543
 Vibration    14          0.686              1.692              1.472
 Vibration    15          0.742              1.534              1.080
 Vibration    16          0.752              1.507              1.029
 Vibration    17          0.767              1.467              0.957
 Vibration    18          0.792              1.404              0.857
 Vibration    19          0.815              1.347              0.777
 Vibration    20          0.889              1.176              0.579
 Vibration    21          0.981              0.989              0.416

                           ! Non-Optimized Parameters !
 Normal termination of Gaussian 16 at Thu Dec 17 20:25:45 2020.

 ----------------------------------------------------------------------
 # B3LYP/6-311++G(d,p) empiricaldispersion=gd3bj scf=xqc pop=npa geom=c
 heck
 ----------------------------------------------------------------------

 ---------------------------------------
 CID_119813658_JID_7282_Energie_neutraal
 ---------------------------------------
 Structure from the checkpoint file:  "JID_7282.chk"
 Charge =  0 Multiplicity = 1

 SCF Done:  E(RB3LYP) =  -768.860697990     A.U. after   15 cycles
 Normal termination of Gaussian 16 at Thu Dec 17 20:32:49 2020.

 ----------------------------------------------------------------------
 # B3LYP/6-311++G(d,p) empiricaldispersion=gd3bj scf=xqc pop=npa geom=c
 heck
 ----------------------------------------------------------------------

 -------------------------------------
 CID_119813658_JID_7282_Energie_kation
 -------------------------------------
 Structure from the checkpoint file:  "JID_7282.chk"
 Charge =  1 Multiplicity = 2

 SCF Done:  E(UB3LYP) =  -768.558737000     A.U. after   30 cycles
 Normal termination of Gaussian 16 at Thu Dec 17 20:51:18 2020.
 Gaussian 16:  ES64L-G16RevA.03 25-Dec-2016

 ----------------------------------------------------------------------
 # B3LYP/6-311++G(d,p) empiricaldispersion=gd3bj scf=xqc pop=npa geom=c
 heck
 ----------------------------------------------------------------------

 ------------------------------------
 CID_119813658_JID_7282_Energie_anion
 ------------------------------------
 Structure from the checkpoint file:  "JID_7282.chk"
 Charge = -1 Multiplicity = 2

                         Standard orientation:
 ---------------------------------------------------------------------
 Center     Atomic      Atomic             Coordinates (Angstroms)
 Number     Number       Type             X           Y           Z
 ---------------------------------------------------------------------
      1          6           0       -3.010576   -1.874461    0.084844
      2          6           0       -2.359260   -0.978112   -0.991828
      3          6           0       -2.934793    0.426810   -0.699662
      4          7           0       -4.309230    0.187029   -0.228276
      5          6           0       -4.257387   -1.063053    0.557905
      6          6           0       -2.134114    1.181998    0.377990
      7          6           0       -0.746413    1.511517   -0.149189
      8          8           0       -0.605655    2.220517   -1.144321
      9          7           0        0.328617    0.960237    0.487515
     10          6           0        0.309150    0.040381    1.633674
     11          6           0        1.796866   -0.254703    1.875587
     12          6           0        2.436774   -0.090425    0.490042
     13          6           0        1.675875    1.128005   -0.062534
     14          6           0        2.269751   -1.309897   -0.438565
     15          6           0        3.372552   -1.077461   -1.477561
     16          8           0        4.402944   -0.330610   -0.818210
     17          6           0        3.959145    0.059387    0.478735
     18          1           0       -3.283180   -2.855755   -0.315394
     19          1           0       -2.326489   -2.052903    0.922005
     20          1           0       -2.675204   -1.293371   -1.992906
     21          1           0       -1.264474   -1.012034   -0.974761
     22          1           0       -2.952540    1.057201   -1.592216
     23          1           0       -4.894647    0.028996   -1.046357
     24          1           0       -5.194534   -1.614483    0.437373
     25          1           0       -4.169365   -0.817260    1.622524
     26          1           0       -2.649736    2.124096    0.585809
     27          1           0       -2.110888    0.607353    1.307744
     28          1           0       -0.238048   -0.878940    1.388362
     29          1           0       -0.170264    0.493424    2.507486
     30          1           0        2.217067    0.486694    2.566356
     31          1           0        1.961338   -1.246666    2.307204
     32          1           0        2.125328    2.068847    0.283877
     33          1           0        1.623294    1.171676   -1.152352
     34          1           0        2.452885   -2.234073    0.122511
     35          1           0        1.273362   -1.374991   -0.887050
     36          1           0        3.797349   -2.011166   -1.863399
     37          1           0        3.000800   -0.494928   -2.332001
     38          1           0        4.412001   -0.589943    1.245637
     39          1           0        4.286509    1.088198    0.668480
 ---------------------------------------------------------------------

 SCF Done:  E(UB3LYP) =  -768.853301662     A.U. after   32 cycles

 The electronic state is 2-A.
 Alpha  occ. eigenvalues --  -19.03457 -18.98837 -14.24823 -14.20446 -10.17323
 Alpha  occ. eigenvalues --  -10.12960 -10.12848 -10.11819 -10.11172 -10.10627
 Alpha  occ. eigenvalues --  -10.10287 -10.09631 -10.08631 -10.08439 -10.07866
 Alpha  occ. eigenvalues --  -10.07184 -10.07091  -0.95156  -0.94150  -0.85372
 Alpha  occ. eigenvalues --   -0.82762  -0.73312  -0.67972  -0.66922  -0.66078
 Alpha  occ. eigenvalues --   -0.65579  -0.61598  -0.58676  -0.54431  -0.51483
 Alpha  occ. eigenvalues --   -0.49114  -0.48671  -0.47433  -0.45656  -0.43194
 Alpha  occ. eigenvalues --   -0.41499  -0.40562  -0.39568  -0.37885  -0.37489
 Alpha  occ. eigenvalues --   -0.36296  -0.35097  -0.34855  -0.34418  -0.33710
 Alpha  occ. eigenvalues --   -0.32490  -0.31582  -0.30579  -0.30211  -0.29818
 Alpha  occ. eigenvalues --   -0.29121  -0.27688  -0.27034  -0.26365  -0.25663
 Alpha  occ. eigenvalues --   -0.24675  -0.24400  -0.24013  -0.23677  -0.22784
 Alpha  occ. eigenvalues --   -0.22606  -0.16896  -0.16088  -0.15169  -0.14327
 Alpha  occ. eigenvalues --    0.03765
 Alpha virt. eigenvalues --    0.05586   0.06690   0.07183   0.07983   0.08376
 Alpha virt. eigenvalues --    0.08511   0.09245   0.09726   0.09923   0.10572
 Alpha virt. eigenvalues --    0.10741   0.10870   0.11413   0.11884   0.12398

  Beta  occ. eigenvalues --  -19.03458 -18.98835 -14.24824 -14.20434 -10.17321
  Beta  occ. eigenvalues --  -10.12951 -10.12832 -10.11791 -10.11158 -10.10626
  Beta  occ. eigenvalues --  -10.10289 -10.09613 -10.08595 -10.08411 -10.07857
  Beta  occ. eigenvalues --  -10.07168 -10.07064  -0.95150  -0.94146  -0.85360
  Beta  occ. eigenvalues --   -0.82736  -0.73296  -0.67950  -0.66884  -0.66038
  Beta  occ. eigenvalues --   -0.65544  -0.61570  -0.58641  -0.54369  -0.51443
  Beta  occ. eigenvalues --   -0.49061  -0.48621  -0.47385  -0.45616  -0.43161
  Beta  occ. eigenvalues --   -0.41477  -0.40534  -0.39531  -0.37857  -0.37462
  Beta  occ. eigenvalues --   -0.36272  -0.35077  -0.34827  -0.34397  -0.33686
  Beta  occ. eigenvalues --   -0.32467  -0.31557  -0.30559  -0.30171  -0.29787
  Beta  occ. eigenvalues --   -0.29080  -0.27665  -0.27008  -0.26334  -0.25634
  Beta  occ. eigenvalues --   -0.24648  -0.24367  -0.23985  -0.23650  -0.22759
  Beta  occ. eigenvalues --   -0.22582  -0.16888  -0.16082  -0.15159  -0.14305
  Beta virt. eigenvalues --    0.06000   0.06539   0.07233   0.07810   0.08381
  Beta virt. eigenvalues --    0.08661   0.08867   0.09501   0.09952   0.10283
  Beta virt. eigenvalues --    0.10800   0.10953   0.11060   0.11557   0.11948

 Mulliken charges and spin densities:
               1          2
     1  C    0.727831  -0.962705
     2  C   -0.528677   0.211013
     3  C   -0.455832  -0.036249
     4  N   -0.058742   0.063252
     5  C   -0.256679  -0.229867
     6  C    0.768837  -0.699212
     7  C   -0.616318   0.304571
     8  O   -0.309434   0.001602
     9  N    0.121870   0.080181
    10  C   -0.276874   0.074058
    11  C    0.537165  -1.226295
    12  C   -1.434918   1.921392
    13  C    0.397654  -0.875572
    14  C    0.850388  -1.047668
    15  C   -0.194732  -0.161260
    16  O   -0.122109   0.013848
    17  C    0.541213  -1.005701
    18  H   -0.243081   0.396506
    19  H   -0.426021   0.559082
    20  H   -0.275007   0.469287
    21  H    0.360888  -0.254441
    22  H    0.199922   0.039179
    23  H    0.107252   0.140700
    24  H   -0.247091   0.391474
    25  H    0.082970   0.089113
    26  H    0.211462   0.031516
    27  H    0.228063  -0.040402
    28  H    0.762822  -0.669379
    29  H   -0.598483   0.801435
    30  H   -0.148127   0.340242
    31  H   -0.652838   0.860849
    32  H    0.036065   0.172196
    33  H    0.246060  -0.036800
    34  H   -0.261748   0.475277
    35  H   -0.095431   0.192172
    36  H    0.007850   0.153683
    37  H    0.081931   0.068767
    38  H   -0.081584   0.253288
    39  H    0.013483   0.140867
 Sum of Mulliken charges =  -1.00000   1.00000

 Dipole moment (field-independent basis, Debye):
    X=              1.1368    Y=              2.2065    Z=             -2.0039  Tot=              3.1900
 Quadrupole moment (field-independent basis, Debye-Ang):
   XX=           -186.9212   YY=           -154.2716   ZZ=           -148.1188
   XY=             -1.5280   XZ=             -5.4469   YZ=              6.4074

 Summary of Natural Population Analysis:

                                       Natural Population
                Natural  -----------------------------------------------
    Atom  No    Charge         Core      Valence    Rydberg      Total
 -----------------------------------------------------------------------
      C    1   -0.20517      0.99964     2.19787    0.00766     3.20517
      C    2   -0.20092      0.99962     2.19260    0.00871     3.20092
      C    3   -0.00986      0.99959     1.99695    0.01332     3.00986
      N    4   -0.33908      0.99975     2.82756    0.01177     3.83908
      C    5   -0.09400      0.99965     2.08365    0.01070     3.09400
      C    6   -0.23406      0.99957     2.22531    0.00919     3.23406
      C    7    0.35019      0.99963     1.62819    0.02200     2.64981
      O    8   -0.33256      0.99988     3.32778    0.00491     4.33256
      N    9   -0.25671      0.99964     2.74735    0.00973     3.75671
      C   10   -0.08162      0.99962     2.07192    0.01008     3.08162
      C   11   -0.18842      0.99958     2.17833    0.01051     3.18842
      C   12   -0.05842      0.99955     2.04552    0.01335     3.05842
      C   13   -0.08027      0.99957     2.06864    0.01206     3.08027
      C   14   -0.20411      0.99959     2.19526    0.00927     3.20411
      C   15   -0.00868      0.99960     1.99714    0.01195     3.00868
      O   16   -0.30480      0.99989     3.29679    0.00811     4.30480
      C   17   -0.00136      0.99951     1.98839    0.01346     3.00136
      H   18    0.10222      0.00000     0.39617    0.00161     0.39778
      H   19    0.09753      0.00000     0.40068    0.00178     0.40247
      H   20    0.09883      0.00000     0.39991    0.00126     0.40117
      H   21    0.10106      0.00000     0.39737    0.00156     0.39894
      H   22    0.10474      0.00000     0.39425    0.00101     0.39526
      H   23    0.17345      0.00000     0.32435    0.00219     0.32655
      H   24    0.09519      0.00000     0.40367    0.00113     0.40481
      H   25    0.08848      0.00000     0.41014    0.00138     0.41152
      H   26    0.11500      0.00000     0.38381    0.00119     0.38500
      H   27    0.10224      0.00000     0.39589    0.00187     0.39776
      H   28    0.09714      0.00000     0.40083    0.00203     0.40286
      H   29    0.10111      0.00000     0.39731    0.00158     0.39889
      H   30    0.10217      0.00000     0.39611    0.00172     0.39783
      H   31    0.11083      0.00000     0.38672    0.00245     0.38917
      H   32    0.09638      0.00000     0.40258    0.00104     0.40362
      H   33    0.11052      0.00000     0.38829    0.00118     0.38948
      H   34    0.10405      0.00000     0.39442    0.00153     0.39595
      H   35    0.10798      0.00000     0.39043    0.00159     0.39202
      H   36    0.08706      0.00000     0.41176    0.00119     0.41294
      H   37    0.08078      0.00000     0.41793    0.00130     0.41922
      H   38    0.08363      0.00000     0.41480    0.00157     0.41637
      H   39    0.08947      0.00000     0.40917    0.00136     0.41053
 =======================================================================
   * Total *   -0.00000     16.99388    47.78584    0.22029    65.00000

 Normal termination of Gaussian 16 at Thu Dec 17 21:10:21 2020.
