 Gaussian 16, Revision A.03,

 -----------------------------------------------------------
 # opt freq B3LYP/6-31G(d) empiricaldispersion=gd3bj scf=xqc
 -----------------------------------------------------------

 ----------------------------
 CID_354524_JID_6503_neutraal
 ----------------------------
 Symbolic Z-matrix:
 Charge =  0 Multiplicity = 1

 SCF Done:  E(RB3LYP) =  -1119.26793004     A.U. after   16 cycles
 SCF Done:  E(RB3LYP) =  -1119.27748852     A.U. after   13 cycles
 SCF Done:  E(RB3LYP) =  -1119.27907658     A.U. after   13 cycles
 SCF Done:  E(RB3LYP) =  -1119.27976075     A.U. after   13 cycles
 SCF Done:  E(RB3LYP) =  -1119.28013460     A.U. after   11 cycles
 SCF Done:  E(RB3LYP) =  -1119.28044868     A.U. after   12 cycles
 SCF Done:  E(RB3LYP) =  -1119.28065273     A.U. after   12 cycles
 SCF Done:  E(RB3LYP) =  -1119.28077620     A.U. after   12 cycles
 SCF Done:  E(RB3LYP) =  -1119.28086781     A.U. after   12 cycles
 SCF Done:  E(RB3LYP) =  -1119.28093181     A.U. after   12 cycles
 SCF Done:  E(RB3LYP) =  -1119.28099381     A.U. after   11 cycles
 SCF Done:  E(RB3LYP) =  -1119.28099413     A.U. after    9 cycles
 SCF Done:  E(RB3LYP) =  -1119.28099422     A.U. after    8 cycles
 SCF Done:  E(RB3LYP) =  -1119.28099424     A.U. after    8 cycles
 Optimization completed.
    -- Stationary point found.
 Normal termination of Gaussian 16 at Thu Dec 10 23:22:40 2020.

 --------------------------------------------------------------------
 #N Geom=AllCheck Guess=TCheck SCRF=Check GenChk RB3LYP/6-31G(d) Freq
 --------------------------------------------------------------------

 Structure from the checkpoint file:  "JID_6503.chk"
 ----------------------------
 CID_354524_JID_6503_neutraal
 ----------------------------
 Charge =  0 Multiplicity = 1

 SCF Done:  E(RB3LYP) =  -1119.28099424     A.U. after    1 cycles

  Exact polarizability: 161.377   0.379 139.183  -6.469  -4.986 107.811
 Approx polarizability: 240.053   6.000 236.918  -1.222  -7.217 202.053

                      1                      2                      3
                      A                      A                      A
 Frequencies --     20.3348                43.3392                74.5418
 Red. masses --     10.9096                 9.4566                 8.8551
 Frc consts  --      0.0027                 0.0105                 0.0290
 IR Inten    --      4.5273                 0.5843                 3.0613

                      4                      5                      6
                      A                      A                      A
 Frequencies --     88.2059               107.1212               136.5955
 Red. masses --      3.9987                 3.9282                 5.1880
 Frc consts  --      0.0183                 0.0266                 0.0570
 IR Inten    --      0.5134                 1.5461                 0.4402

                      7                      8                      9
                      A                      A                      A
 Frequencies --    149.4870               221.7278               237.6015
 Red. masses --      1.1338                 6.8793                 6.4656
 Frc consts  --      0.0149                 0.1993                 0.2151
 IR Inten    --      0.2438                 0.6304                 2.1429

                     10                     11                     12
                      A                      A                      A
 Frequencies --    275.8291               289.1345               352.2120
 Red. masses --      5.9721                 5.5761                 6.2409
 Frc consts  --      0.2677                 0.2746                 0.4561
 IR Inten    --      1.6637                13.3756                 8.0674

                     13                     14                     15
                      A                      A                      A
 Frequencies --    357.3536               376.1495               392.4197
 Red. masses --      5.8643                 5.7123                 7.5403
 Frc consts  --      0.4412                 0.4762                 0.6841
 IR Inten    --      2.3245                11.3038                 4.1752

                     16                     17                     18
                      A                      A                      A
 Frequencies --    448.7977               477.5305               483.9811
 Red. masses --      5.5303                 3.9226                 3.1446
 Frc consts  --      0.6563                 0.5270                 0.4340
 IR Inten    --      0.4853                 9.8591                17.2675

                     19                     20                     21
                      A                      A                      A
 Frequencies --    537.2900               547.4102               577.6234
 Red. masses --      2.0958                 5.0337                 4.9058
 Frc consts  --      0.3565                 0.8887                 0.9644
 IR Inten    --     69.7202                13.4927                23.0674

                     22                     23                     24
                      A                      A                      A
 Frequencies --    608.7210               648.0754               668.4856
 Red. masses --      7.0509                 6.9789                 6.8404
 Frc consts  --      1.5393                 1.7270                 1.8010
 IR Inten    --     46.5226                16.7946                 5.9169

                     25                     26                     27
                      A                      A                      A
 Frequencies --    688.1759               695.0758               748.4170
 Red. masses --      8.7722                 6.2976                 3.5783
 Frc consts  --      2.4477                 1.7926                 1.1809
 IR Inten    --      9.0546                12.6266                49.1114

                     28                     29                     30
                      A                      A                      A
 Frequencies --    777.4618               793.6141               826.5216
 Red. masses --      2.6473                 2.3401                 4.4966
 Frc consts  --      0.9428                 0.8684                 1.8098
 IR Inten    --      7.7987                16.9938                 1.9170

                     31                     32                     33
                      A                      A                      A
 Frequencies --    893.2713               914.5484               959.8731
 Red. masses --      1.5695                 5.1292                 1.5454
 Frc consts  --      0.7379                 2.5276                 0.8389
 IR Inten    --     10.6126               132.1501                 1.2801

                     34                     35                     36
                      A                      A                      A
 Frequencies --    973.5978               998.2075              1071.8172
 Red. masses --      3.7377                 1.2899                 2.4680
 Frc consts  --      2.0874                 0.7573                 1.6704
 IR Inten    --     15.1805                 0.0360                 9.5310

                     37                     38                     39
                      A                      A                      A
 Frequencies --   1100.4715              1126.8229              1164.6827
 Red. masses --      1.9769                 2.2823                 1.3102
 Frc consts  --      1.4106                 1.7074                 1.0471
 IR Inten    --     64.2188                10.1718                 3.0870

                     40                     41                     42
                      A                      A                      A
 Frequencies --   1201.6801              1209.6906              1239.5356
 Red. masses --      1.1078                 2.8173                 3.8146
 Frc consts  --      0.9425                 2.4290                 3.4532
 IR Inten    --      0.7669                46.5127                81.2249

                     43                     44                     45
                      A                      A                      A
 Frequencies --   1263.8302              1309.7203              1322.2772
 Red. masses --      3.3786                 1.5834                 3.6167
 Frc consts  --      3.1796                 1.6003                 3.7257
 IR Inten    --    112.8904                 5.3576                83.4472

                     46                     47                     48
                      A                      A                      A
 Frequencies --   1349.8371              1406.1111              1453.3820
 Red. masses --      8.1656                 4.3716                 1.2239
 Frc consts  --      8.7660                 5.0924                 1.5232
 IR Inten    --      6.6211               169.4539                 5.1339

                     49                     50                     51
                      A                      A                      A
 Frequencies --   1478.7891              1489.6241              1520.5168
 Red. masses --      1.4785                 2.0705                 1.0749
 Frc consts  --      1.9050                 2.7069                 1.4642
 IR Inten    --     20.6115                 5.9257                 7.6050

                     52                     53                     54
                      A                      A                      A
 Frequencies --   1528.1645              1537.9318              1628.4649
 Red. masses --      2.1089                 1.2362                 6.1112
 Frc consts  --      2.9017                 1.7227                 9.5484
 IR Inten    --      0.6165                17.2715                 1.1728

                     55                     56                     57
                      A                      A                      A
 Frequencies --   1656.3282              1783.5221              1790.9997
 Red. masses --      5.5681                12.8004                12.2553
 Frc consts  --      9.0001                23.9901                23.1613
 IR Inten    --      8.1970               164.4996               398.7109

                     58                     59                     60
                      A                      A                      A
 Frequencies --   1818.1504              3052.6763              3127.2739
 Red. masses --     10.5276                 1.0424                 1.0980
 Frc consts  --     20.5041                 5.7231                 6.3268
 IR Inten    --    328.2882                43.6287                13.9337

                     61                     62                     63
                      A                      A                      A
 Frequencies --   3195.8449              3198.4354              3209.2236
 Red. masses --      1.1008                 1.0862                 1.0896
 Frc consts  --      6.6240                 6.5468                 6.6120
 IR Inten    --      0.2341                 0.8720                 5.0410

                     64                     65                     66
                      A                      A                      A
 Frequencies --   3218.1172              3224.3544              3522.3651
 Red. masses --      1.0935                 1.0974                 1.0761
 Frc consts  --      6.6723                 6.7218                 7.8666
 IR Inten    --      8.0779                13.1069                18.8989

 - Thermochemistry -
 -------------------
 Temperature   298.150 Kelvin.  Pressure   1.00000 Atm.
 Atom     1 has atomic number  6 and mass  12.00000

 Molecular mass:   236.02556 amu.
 Principal axes and moments of inertia in atomic units:
                           1         2         3
     Eigenvalues --  2800.154823776.609614672.16274
           X            0.99701  -0.07413  -0.02163
           Y            0.07402   0.99724  -0.00539
           Z            0.02197   0.00378   0.99975
 This molecule is an asymmetric top.
 Rotational symmetry number  1.
 Warning -- assumption of classical behavior for rotation
           may cause significant error
 Rotational temperatures (Kelvin)      0.03093     0.02293     0.01854
 Rotational constants (GHZ):           0.64451     0.47787     0.38628
 Zero-point vibrational energy     452124.9 (Joules/Mol)
                                  108.06043 (Kcal/Mol)
 Warning -- explicit consideration of  22 degrees of freedom as
           vibrations may cause significant error
 Vibrational temperatures:     29.26    62.36   107.25   126.91   154.12
          (Kelvin)            196.53   215.08   319.02   341.86   396.86
                              416.00   506.75   514.15   541.20   564.60
                              645.72   687.06   696.34   773.04   787.60
                              831.07   875.81   932.44   961.80   990.13
                             1000.06  1076.81  1118.59  1141.83  1189.18
                             1285.22  1315.83  1381.04  1400.79  1436.20
                             1542.11  1583.33  1621.25  1675.72  1728.95
                             1740.48  1783.42  1818.37  1884.40  1902.46
                             1942.11  2023.08  2091.09  2127.65  2143.24
                             2187.68  2198.69  2212.74  2343.00  2383.09
                             2566.09  2576.85  2615.91  4392.12  4499.45
                             4598.11  4601.84  4617.36  4630.15  4639.13
                             5067.90

 Zero-point correction=                           0.172205 (Hartree/Particle)
 Thermal correction to Energy=                    0.186381
 Thermal correction to Enthalpy=                  0.187325
 Thermal correction to Gibbs Free Energy=         0.129544
 Sum of electronic and zero-point Energies=          -1119.108789
 Sum of electronic and thermal Energies=             -1119.094613
 Sum of electronic and thermal Enthalpies=           -1119.093669
 Sum of electronic and thermal Free Energies=        -1119.151450

                     E (Thermal)             CV                S
                      KCal/Mol        Cal/Mol-Kelvin    Cal/Mol-Kelvin
 Total                  116.956             52.469            121.611
 Electronic               0.000              0.000              0.000
 Translational            0.889              2.981             42.278
 Rotational               0.889              2.981             32.269
 Vibrational            115.178             46.507             47.064
 Vibration     1          0.593              1.986              6.601
 Vibration     2          0.595              1.980              5.100
 Vibration     3          0.599              1.966              4.030
 Vibration     4          0.601              1.957              3.699
 Vibration     5          0.606              1.944              3.320
 Vibration     6          0.614              1.917              2.851
 Vibration     7          0.618              1.903              2.679
 Vibration     8          0.648              1.808              1.945
 Vibration     9          0.656              1.783              1.821
 Vibration    10          0.677              1.718              1.559
 Vibration    11          0.686              1.694              1.479
 Vibration    12          0.729              1.571              1.156
 Vibration    13          0.733              1.560              1.134
 Vibration    14          0.747              1.521              1.055
 Vibration    15          0.760              1.486              0.991
 Vibration    16          0.808              1.364              0.799
 Vibration    17          0.834              1.300              0.717
 Vibration    18          0.840              1.286              0.699
 Vibration    19          0.892              1.168              0.571
 Vibration    20          0.903              1.145              0.550
 Vibration    21          0.934              1.080              0.490
 Vibration    22          0.968              1.013              0.435

 Optimization completed.
    -- Stationary point found.
 Normal termination of Gaussian 16 at Thu Dec 10 23:30:59 2020.

 ----------------------------------------------------------------------
 # B3LYP/6-311++G(d,p) empiricaldispersion=gd3bj scf=xqc pop=npa geom=c
 heck
 ----------------------------------------------------------------------

 ------------------------------------
 CID_354524_JID_6503_Energie_neutraal
 ------------------------------------
 Structure from the checkpoint file:  "JID_6503.chk"
 Charge =  0 Multiplicity = 1

 SCF Done:  E(RB3LYP) =  -1119.51372303     A.U. after   16 cycles
 Normal termination of Gaussian 16 at Thu Dec 10 23:33:53 2020.

 ----------------------------------------------------------------------
 # B3LYP/6-311++G(d,p) empiricaldispersion=gd3bj scf=xqc pop=npa geom=c
 heck
 ----------------------------------------------------------------------

 ----------------------------------
 CID_354524_JID_6503_Energie_kation
 ----------------------------------
 Structure from the checkpoint file:  "JID_6503.chk"
 Charge =  1 Multiplicity = 2

 SCF Done:  E(UB3LYP) =  -1119.18016747     A.U. after   33 cycles
 SCF Done:  E(UB3LYP) =  -1119.18016747     a.u. after    1 cycles
 Normal termination of Gaussian 16 at Thu Dec 10 23:42:11 2020.
 Gaussian 16:  ES64L-G16RevA.03 25-Dec-2016

 ----------------------------------------------------------------------
 # B3LYP/6-311++G(d,p) empiricaldispersion=gd3bj scf=xqc pop=npa geom=c
 heck
 ----------------------------------------------------------------------

 ---------------------------------
 CID_354524_JID_6503_Energie_anion
 ---------------------------------
 Structure from the checkpoint file:  "JID_6503.chk"
 Charge = -1 Multiplicity = 2

                         Standard orientation:
 ---------------------------------------------------------------------
 Center     Atomic      Atomic             Coordinates (Angstroms)
 Number     Number       Type             X           Y           Z
 ---------------------------------------------------------------------
      1          6           0       -2.505945    2.027377    0.398720
      2          7           0       -1.300399    1.315794   -0.006568
      3          6           0       -0.050912    1.674260    0.476343
      4          8           0        0.106517    2.621997    1.226347
      5          6           0        1.078003    0.786720    0.041919
      6          6           0        2.189946    1.390145   -0.551658
      7          6           0        3.297389    0.629626   -0.917372
      8          6           0        3.321172   -0.739115   -0.645243
      9          6           0        2.242834   -1.338256    0.000370
     10          6           0        1.106574   -0.588343    0.327985
     11          6           0        0.055872   -1.314399    1.119471
     12          8           0        0.304805   -1.833859    2.180719
     13         16           0       -1.604683   -1.643383    0.443359
     14          6           0       -1.687427   -0.791724   -1.170614
     15          8           0       -2.011339   -1.368273   -2.181489
     16          7           0       -1.373528    0.546013   -1.148332
     17          1           0       -2.825167    2.736877   -0.374800
     18          1           0       -2.275188    2.574998    1.311711
     19          1           0       -3.304251    1.303421    0.582561
     20          1           0        2.174819    2.462385   -0.718969
     21          1           0        4.145562    1.106067   -1.399424
     22          1           0        4.186953   -1.336174   -0.914664
     23          1           0        2.271775   -2.391649    0.258829
     24          1           0       -1.466977    1.028882   -2.038823
 ---------------------------------------------------------------------

 SCF Done:  E(UB3LYP) =  -1119.53090929     A.U. after   33 cycles
 SCF Done:  E(UB3LYP) =  -1119.53090929     a.u. after    1 cycles

 The electronic state is 2-A.
 Alpha  occ. eigenvalues --  -88.73018 -19.00522 -18.97628 -18.96696 -14.27487
 Alpha  occ. eigenvalues --  -14.26904 -10.19529 -10.15250 -10.12239 -10.10738
 Alpha  occ. eigenvalues --  -10.04857 -10.04512 -10.04452 -10.04382 -10.03933
 Alpha  occ. eigenvalues --  -10.03506  -7.81709  -5.78093  -5.77651  -5.77158
 Alpha  occ. eigenvalues --   -0.96709  -0.93856  -0.91057  -0.89731  -0.74504
 Alpha  occ. eigenvalues --   -0.72981  -0.65234  -0.64253  -0.62112  -0.60334
 Alpha  occ. eigenvalues --   -0.53055  -0.50210  -0.49523  -0.47774  -0.43500
 Alpha  occ. eigenvalues --   -0.41558  -0.39464  -0.37411  -0.35392  -0.34476
 Alpha  occ. eigenvalues --   -0.33900  -0.33164  -0.31923  -0.31466  -0.30557
 Alpha  occ. eigenvalues --   -0.29988  -0.29534  -0.27612  -0.26657  -0.25474
 Alpha  occ. eigenvalues --   -0.23439  -0.22968  -0.22637  -0.18846  -0.17667
 Alpha  occ. eigenvalues --   -0.16481  -0.15115  -0.13431  -0.13195  -0.12379
 Alpha  occ. eigenvalues --   -0.11656   0.04101
 Alpha virt. eigenvalues --    0.07213   0.08680   0.08856   0.09644   0.10213
 Alpha virt. eigenvalues --    0.10412   0.11230   0.11688   0.11920   0.12882
 Alpha virt. eigenvalues --    0.13572   0.13857   0.14402   0.14873   0.15692

  Beta  occ. eigenvalues --  -88.73010 -19.00525 -18.97512 -18.96308 -14.27468
  Beta  occ. eigenvalues --  -14.26895 -10.19527 -10.15156 -10.11864 -10.10736
  Beta  occ. eigenvalues --  -10.04945 -10.04446 -10.04270 -10.04174 -10.03827
  Beta  occ. eigenvalues --  -10.03260  -7.81701  -5.78090  -5.77653  -5.77124
  Beta  occ. eigenvalues --   -0.96685  -0.93727  -0.90304  -0.89612  -0.74458
  Beta  occ. eigenvalues --   -0.72606  -0.64870  -0.63977  -0.61813  -0.60125
  Beta  occ. eigenvalues --   -0.52808  -0.49593  -0.49350  -0.47654  -0.43236
  Beta  occ. eigenvalues --   -0.41280  -0.39340  -0.37141  -0.35207  -0.34364
  Beta  occ. eigenvalues --   -0.33723  -0.32825  -0.31826  -0.31272  -0.30448
  Beta  occ. eigenvalues --   -0.29877  -0.29110  -0.27105  -0.25526  -0.24745
  Beta  occ. eigenvalues --   -0.22835  -0.22490  -0.22338  -0.18769  -0.17600
  Beta  occ. eigenvalues --   -0.16269  -0.14721  -0.12700  -0.12571  -0.11493
  Beta  occ. eigenvalues --   -0.10796
  Beta virt. eigenvalues --    0.07180   0.08653   0.09144   0.09584   0.10075
  Beta virt. eigenvalues --    0.10524   0.10781   0.11346   0.11835   0.12593
  Beta virt. eigenvalues --    0.13184   0.13605   0.14117   0.14582   0.15221

 Mulliken charges and spin densities:
               1          2
     1  C   -0.265128  -0.018336
     2  N    0.015870   0.025226
     3  C   -0.729810  -0.005676
     4  O   -0.325042   0.040720
     5  C    0.742019   0.210163
     6  C   -0.084648  -0.070743
     7  C   -0.428976   0.208622
     8  C   -0.346856   0.084991
     9  C   -0.350210  -0.012097
    10  C    1.200450   0.163372
    11  C   -0.950333   0.202580
    12  O   -0.290150   0.131243
    13  S    0.178352   0.036528
    14  C   -0.194199  -0.006017
    15  O   -0.264273  -0.000236
    16  N   -0.133380  -0.053795
    17  H    0.133258   0.000255
    18  H    0.172226   0.001396
    19  H    0.108187   0.034595
    20  H    0.166245   0.004037
    21  H    0.110175  -0.015929
    22  H    0.114724  -0.006995
    23  H    0.162501   0.016856
    24  H    0.258997   0.029239
 Sum of Mulliken charges =  -1.00000   1.00000

 Dipole moment (field-independent basis, Debye):
    X=             -2.3190    Y=              3.3420    Z=             -3.1460  Tot=              5.1423
 Quadrupole moment (field-independent basis, Debye-Ang):
   XX=           -118.5420   YY=           -124.2062   ZZ=           -124.4844
   XY=            -10.7089   XZ=             -5.4050   YZ=             -5.4464

 Summary of Natural Population Analysis:

                                       Natural Population
                Natural  -----------------------------------------------
    Atom  No    Charge         Core      Valence    Rydberg      Total
 -----------------------------------------------------------------------
      C    1   -0.18035      0.99965     2.17411    0.00658     3.18035
      N    2   -0.17251      0.99964     2.65952    0.01336     3.67251
      C    3    0.36523      0.99960     1.61343    0.02175     2.63477
      O    4   -0.30388      0.99988     3.29833    0.00568     4.30388
      C    5   -0.02078      0.99942     2.00830    0.01306     3.02078
      C    6   -0.10780      0.99953     2.09995    0.00832     3.10780
      C    7   -0.06334      0.99957     2.05472    0.00904     3.06334
      C    8   -0.08988      0.99957     2.08116    0.00915     3.08988
      C    9   -0.08320      0.99953     2.07530    0.00837     3.08320
      C   10   -0.02733      0.99941     2.01468    0.01324     3.02733
      C   11    0.26884      0.99962     1.70715    0.02439     2.73116
      O   12   -0.24516      0.99987     3.23644    0.00885     4.24516
      S   13    0.05836      4.99952     2.92508    0.01704     7.94164
      C   14    0.27331      0.99972     1.69849    0.02848     2.72669
      O   15   -0.30662      0.99986     3.29834    0.00842     4.30662
      N   16   -0.22728      0.99963     2.71327    0.01437     3.72728
      H   17    0.08504      0.00000     0.41379    0.00118     0.41496
      H   18    0.11408      0.00000     0.38492    0.00100     0.38592
      H   19    0.09817      0.00000     0.40072    0.00111     0.40183
      H   20    0.09773      0.00000     0.40086    0.00141     0.40227
      H   21    0.08870      0.00000     0.41031    0.00099     0.41130
      H   22    0.09067      0.00000     0.40831    0.00101     0.40933
      H   23    0.10058      0.00000     0.39842    0.00100     0.39942
      H   24    0.18743      0.00000     0.31067    0.00189     0.31257
 =======================================================================
   * Total *   -0.00000     19.99402    40.78627    0.21971    61.00000

 Normal termination of Gaussian 16 at Thu Dec 10 23:50:24 2020.
