 Gaussian 16, Revision A.03,

 -----------------------------------------------------------
 # opt freq B3LYP/6-31G(d) empiricaldispersion=gd3bj scf=xqc
 -----------------------------------------------------------

 -------------------------------
 CID_150094894_JID_5533_neutraal
 -------------------------------
 Symbolic Z-matrix:
 Charge =  0 Multiplicity = 1

 SCF Done:  E(RB3LYP) =  -1939.45856743     A.U. after   18 cycles
 SCF Done:  E(RB3LYP) =  -1939.48709029     A.U. after   15 cycles
 SCF Done:  E(RB3LYP) =  -1939.50328314     A.U. after   17 cycles
 SCF Done:  E(RB3LYP) =  -1939.50456460     A.U. after   17 cycles
 SCF Done:  E(RB3LYP) =  -1939.50316184     A.U. after   16 cycles
 SCF Done:  E(RB3LYP) =  -1939.50373553     A.U. after   16 cycles
 SCF Done:  E(RB3LYP) =  -1939.50731929     A.U. after   13 cycles
 SCF Done:  E(RB3LYP) =  -1939.50870704     A.U. after   15 cycles
 SCF Done:  E(RB3LYP) =  -1939.50872286     A.U. after   16 cycles
 SCF Done:  E(RB3LYP) =  -1939.50932444     A.U. after   14 cycles
 SCF Done:  E(RB3LYP) =  -1939.51488944     A.U. after   11 cycles
 SCF Done:  E(RB3LYP) =  -1939.51489014     A.U. after   10 cycles
 SCF Done:  E(RB3LYP) =  -1939.51489051     A.U. after    9 cycles
 SCF Done:  E(RB3LYP) =  -1939.51489071     A.U. after    9 cycles
 SCF Done:  E(RB3LYP) =  -1939.51489077     A.U. after    8 cycles
 Optimization completed.
    -- Stationary point found.
 Normal termination of Gaussian 16 at Thu Dec 10 16:55:19 2020.

 --------------------------------------------------------------------
 #N Geom=AllCheck Guess=TCheck SCRF=Check GenChk RB3LYP/6-31G(d) Freq
 --------------------------------------------------------------------

 Structure from the checkpoint file:  "JID_5533.chk"
 -------------------------------
 CID_150094894_JID_5533_neutraal
 -------------------------------
 Charge =  0 Multiplicity = 1

 SCF Done:  E(RB3LYP) =  -1939.51489077     A.U. after    1 cycles

  Exact polarizability: 136.985   2.252 123.559  11.266   8.121 108.416
 Approx polarizability: 221.355  25.724 263.272  35.930  35.138 214.635

                      1                      2                      3
                      A                      A                      A
 Frequencies --     28.4773                29.9620                41.2879
 Red. masses --      6.7235                11.1322                 6.8827
 Frc consts  --      0.0032                 0.0059                 0.0069
 IR Inten    --      5.8325                 2.5906                 2.4460

                      4                      5                      6
                      A                      A                      A
 Frequencies --     53.8017                62.5756               100.6575
 Red. masses --      9.3519                14.3726                 9.2608
 Frc consts  --      0.0159                 0.0332                 0.0553
 IR Inten    --      1.8088                 0.1030                 0.6413

                      7                      8                      9
                      A                      A                      A
 Frequencies --    116.4129               138.3398               169.8716
 Red. masses --     12.4222                14.8457                17.1501
 Frc consts  --      0.0992                 0.1674                 0.2916
 IR Inten    --      5.3905                 1.2997                 6.9283

                     10                     11                     12
                      A                      A                      A
 Frequencies --    176.7593               216.1926               235.4339
 Red. masses --     13.4168                14.2821                11.9945
 Frc consts  --      0.2470                 0.3933                 0.3917
 IR Inten    --      2.7000                 5.5311                 2.5165

                     13                     14                     15
                      A                      A                      A
 Frequencies --    263.3339               280.1966               283.5766
 Red. masses --      7.1279                10.6226                10.4308
 Frc consts  --      0.2912                 0.4914                 0.4942
 IR Inten    --      7.1104                 1.8223                13.8246

                     16                     17                     18
                      A                      A                      A
 Frequencies --    337.8840               342.5944               366.5780
 Red. masses --      1.4452                 7.5821                10.5806
 Frc consts  --      0.0972                 0.5243                 0.8377
 IR Inten    --    120.7722                20.7032                24.2739

                     19                     20                     21
                      A                      A                      A
 Frequencies --    388.4544               403.3780               453.5764
 Red. masses --     12.1345                 5.6514                11.7429
 Frc consts  --      1.0788                 0.5418                 1.4234
 IR Inten    --      8.5634                21.2085                28.8750

                     22                     23                     24
                      A                      A                      A
 Frequencies --    458.6717               496.9015               518.2262
 Red. masses --      6.1122                 1.1045                14.1421
 Frc consts  --      0.7576                 0.1607                 2.2377
 IR Inten    --     14.4327                71.5402                32.2321

                     25                     26                     27
                      A                      A                      A
 Frequencies --    543.5433               572.3135               596.9687
 Red. masses --     13.0572                 5.1029                 1.2851
 Frc consts  --      2.2728                 0.9848                 0.2698
 IR Inten    --     12.4115               153.5052                 5.6716

                     28                     29                     30
                      A                      A                      A
 Frequencies --    620.3112               644.1147               740.8247
 Red. masses --      1.8805                 3.2484                13.0878
 Frc consts  --      0.4263                 0.7940                 4.2320
 IR Inten    --    219.7800                46.3596                53.0834

                     31                     32                     33
                      A                      A                      A
 Frequencies --    761.9505               768.5772               797.2707
 Red. masses --      9.0580                10.8297                17.3269
 Frc consts  --      3.0984                 3.7691                 6.4891
 IR Inten    --      8.0159                42.7550               128.3125

                     34                     35                     36
                      A                      A                      A
 Frequencies --    888.9132               955.7323               987.5636
 Red. masses --      3.0587                11.3024                 4.9217
 Frc consts  --      1.4240                 6.0826                 2.8281
 IR Inten    --     19.3488                17.6801                84.5815

                     37                     38                     39
                      A                      A                      A
 Frequencies --   1093.5833              1109.2131              1114.5222
 Red. masses --     14.5589                13.9268                 2.0112
 Frc consts  --     10.2585                10.0956                 1.4719
 IR Inten    --    237.7401                53.4813                 4.6148

                     40                     41                     42
                      A                      A                      A
 Frequencies --   1161.0583              1268.0658              1333.7982
 Red. masses --     15.4802                 1.4618                 2.4693
 Frc consts  --     12.2952                 1.3849                 2.5882
 IR Inten    --    127.9907               199.9534               244.2110

                     43                     44                     45
                      A                      A                      A
 Frequencies --   1337.4564              1490.9590              1653.0120
 Red. masses --      3.5874                 1.4424                 1.1909
 Frc consts  --      3.7809                 1.8892                 1.9173
 IR Inten    --     47.1883               148.4798               116.6272

                     46                     47                     48
                      A                      A                      A
 Frequencies --   1840.3802              2221.5790              3333.8628
 Red. masses --      8.6421                13.9960                 1.0653
 Frc consts  --     17.2459                40.6983                 6.9761
 IR Inten    --    245.6672               231.3841                81.1286

                     49                     50                     51
                      A                      A                      A
 Frequencies --   3487.2137              3592.5919              3711.0033
 Red. masses --      1.0760                 1.0463                 1.1035
 Frc consts  --      7.7091                 7.9567                 8.9537
 IR Inten    --     66.9018                55.9439                45.2437

 - Thermochemistry -
 -------------------
 Temperature   298.150 Kelvin.  Pressure   1.00000 Atm.
 Atom     1 has atomic number  6 and mass  12.00000

 Molecular mass:   275.94053 amu.
 Principal axes and moments of inertia in atomic units:
                           1         2         3
     Eigenvalues --  2659.778364887.478755320.86072
           X            0.99978   0.02041   0.00389
           Y           -0.02032   0.99956  -0.02152
           Z           -0.00433   0.02143   0.99976
 This molecule is an asymmetric top.
 Rotational symmetry number  1.
 Warning -- assumption of classical behavior for rotation
           may cause significant error
 Rotational temperatures (Kelvin)      0.03256     0.01772     0.01628
 Rotational constants (GHZ):           0.67853     0.36926     0.33918
 Zero-point vibrational energy     266704.6 (Joules/Mol)
                                   63.74393 (Kcal/Mol)
 Warning -- explicit consideration of  28 degrees of freedom as
           vibrations may cause significant error
 Vibrational temperatures:     40.97    43.11    59.40    77.41    90.03
          (Kelvin)            144.82   167.49   199.04   244.41   254.32
                              311.05   338.74   378.88   403.14   408.00
                              486.14   492.92   527.42   558.90   580.37
                              652.60   659.93   714.93   745.61   782.04
                              823.43   858.90   892.49   926.74  1065.88
                             1096.28  1105.81  1147.09  1278.95  1375.09
                             1420.88  1573.42  1595.91  1603.55  1670.50
                             1824.46  1919.04  1924.30  2145.16  2378.32
                             2647.90  3196.36  4796.68  5017.32  5168.94
                             5339.31

 Zero-point correction=                           0.101582 (Hartree/Particle)
 Thermal correction to Energy=                    0.118483
 Thermal correction to Enthalpy=                  0.119427
 Thermal correction to Gibbs Free Energy=         0.054646
 Sum of electronic and zero-point Energies=          -1939.413308
 Sum of electronic and thermal Energies=             -1939.396408
 Sum of electronic and thermal Enthalpies=           -1939.395464
 Sum of electronic and thermal Free Energies=        -1939.460244

                     E (Thermal)             CV                S
                      KCal/Mol        Cal/Mol-Kelvin    Cal/Mol-Kelvin
 Total                   74.349             58.023            136.342
 Electronic               0.000              0.000              0.000
 Translational            0.889              2.981             42.744
 Rotational               0.889              2.981             32.603
 Vibrational             72.571             52.061             60.995
 Vibration     1          0.593              1.984              5.933
 Vibration     2          0.594              1.984              5.832
 Vibration     3          0.594              1.981              5.196
 Vibration     4          0.596              1.976              4.673
 Vibration     5          0.597              1.972              4.374
 Vibration     6          0.604              1.949              3.442
 Vibration     7          0.608              1.936              3.159
 Vibration     8          0.614              1.915              2.827
 Vibration     9          0.625              1.880              2.437
 Vibration    10          0.628              1.871              2.362
 Vibration    11          0.645              1.816              1.991
 Vibration    12          0.655              1.787              1.837
 Vibration    13          0.670              1.740              1.640
 Vibration    14          0.680              1.710              1.532
 Vibration    15          0.682              1.704              1.512
 Vibration    16          0.718              1.600              1.222
 Vibration    17          0.722              1.590              1.200
 Vibration    18          0.739              1.541              1.094
 Vibration    19          0.757              1.495              1.006
 Vibration    20          0.769              1.463              0.950
 Vibration    21          0.812              1.353              0.785
 Vibration    22          0.817              1.342              0.770
 Vibration    23          0.852              1.257              0.666
 Vibration    24          0.873              1.210              0.614
 Vibration    25          0.899              1.154              0.558
 Vibration    26          0.929              1.091              0.500
 Vibration    27          0.955              1.038              0.455
 Vibration    28          0.980              0.989              0.416

 Optimization completed.
    -- Stationary point found.
 Normal termination of Gaussian 16 at Thu Dec 10 17:02:35 2020.

 ----------------------------------------------------------------------
 # B3LYP/6-311++G(d,p) empiricaldispersion=gd3bj scf=xqc pop=npa geom=c
 heck
 ----------------------------------------------------------------------

 ---------------------------------------
 CID_150094894_JID_5533_Energie_neutraal
 ---------------------------------------
 Structure from the checkpoint file:  "JID_5533.chk"
 Charge =  0 Multiplicity = 1

 SCF Done:  E(RB3LYP) =  -1939.84062361     A.U. after   18 cycles
 Normal termination of Gaussian 16 at Thu Dec 10 17:06:54 2020.

 ----------------------------------------------------------------------
 # B3LYP/6-311++G(d,p) empiricaldispersion=gd3bj scf=xqc pop=npa geom=c
 heck
 ----------------------------------------------------------------------

 -------------------------------------
 CID_150094894_JID_5533_Energie_kation
 -------------------------------------
 Structure from the checkpoint file:  "JID_5533.chk"
 Charge =  1 Multiplicity = 2

 SCF Done:  E(UB3LYP) =  -1939.49329186     A.U. after   33 cycles
 SCF Done:  E(UB3LYP) =  -1939.49329186     a.u. after    1 cycles
 Normal termination of Gaussian 16 at Thu Dec 10 17:16:30 2020.
 Gaussian 16:  ES64L-G16RevA.03 25-Dec-2016

 ----------------------------------------------------------------------
 # B3LYP/6-311++G(d,p) empiricaldispersion=gd3bj scf=xqc pop=npa geom=c
 heck
 ----------------------------------------------------------------------

 ------------------------------------
 CID_150094894_JID_5533_Energie_anion
 ------------------------------------
 Structure from the checkpoint file:  "JID_5533.chk"
 Charge = -1 Multiplicity = 2

                         Standard orientation:
 ---------------------------------------------------------------------
 Center     Atomic      Atomic             Coordinates (Angstroms)
 Number     Number       Type             X           Y           Z
 ---------------------------------------------------------------------
      1          6           0        2.823413    0.510709   -0.346490
      2          8           0        3.353311   -0.554418   -0.098025
      3          7           0        3.265189    1.721323    0.117372
      4          7           0        1.644164    0.633690   -1.127474
      5         16           0        0.829458   -0.730449   -1.675370
      6          7           0       -0.125283   -1.285852   -0.348603
      7          7           0        0.424481   -1.954248    0.767646
      8          7           0        0.995456   -1.163070    1.582397
      9          7           0        1.537935   -0.641959    2.430816
     10         16           0       -1.755421   -0.740696   -0.124528
     11          8           0       -2.266875   -0.420134   -1.474363
     12          8           0       -2.443247   -1.666524    0.769863
     13         16           0       -1.664422    1.425248    0.833311
     14          8           0       -0.290671    1.894463    0.503035
     15          8           0       -2.753484    1.923109   -0.277276
     16          1           0        2.986009    2.581942   -0.331501
     17          1           0        4.174539    1.710222    0.556528
     18          1           0        1.048935    1.437198   -0.925358
     19          1           0       -2.689667    1.359571   -1.096293
 ---------------------------------------------------------------------

 SCF Done:  E(UB3LYP) =  -1939.90476811     A.U. after   26 cycles

 The electronic state is 2-A.
 Alpha  occ. eigenvalues --  -88.88521 -88.82171 -88.78766 -19.03165 -18.99645
 Alpha  occ. eigenvalues --  -18.99484 -18.99289 -18.98389 -14.36104 -14.27674
 Alpha  occ. eigenvalues --  -14.27134 -14.26229 -14.24547 -14.23938 -10.20569
 Alpha  occ. eigenvalues --   -7.95565  -7.89898  -7.86855  -5.91774  -5.91741
 Alpha  occ. eigenvalues --   -5.91366  -5.86313  -5.85921  -5.85571  -5.83457
 Alpha  occ. eigenvalues --   -5.82956  -5.82003  -1.03189  -0.98761  -0.95878
 Alpha  occ. eigenvalues --   -0.95322  -0.90175  -0.88778  -0.88031  -0.83789
 Alpha  occ. eigenvalues --   -0.80790  -0.75370  -0.61160  -0.56614  -0.52983
 Alpha  occ. eigenvalues --   -0.50969  -0.46372  -0.45134  -0.43485  -0.41386
 Alpha  occ. eigenvalues --   -0.40561  -0.40067  -0.37569  -0.35368  -0.34772
 Alpha  occ. eigenvalues --   -0.33590  -0.33244  -0.32860  -0.31438  -0.30613
 Alpha  occ. eigenvalues --   -0.28356  -0.26151  -0.24406  -0.22610  -0.21433
 Alpha  occ. eigenvalues --   -0.20667  -0.19751  -0.19477  -0.19082  -0.18355
 Alpha  occ. eigenvalues --   -0.17670  -0.16272  -0.15750  -0.13296  -0.11977
 Alpha  occ. eigenvalues --    0.00147
 Alpha virt. eigenvalues --    0.05463   0.06707   0.09445   0.10201   0.11082
 Alpha virt. eigenvalues --    0.11450   0.12370   0.12909   0.13270   0.13402
 Alpha virt. eigenvalues --    0.14602   0.14791   0.15543   0.16418   0.16817

  Beta  occ. eigenvalues --  -88.88310 -88.81839 -88.78747 -19.03125 -18.99484
  Beta  occ. eigenvalues --  -18.99387 -18.99287 -18.98070 -14.36012 -14.27447
  Beta  occ. eigenvalues --  -14.27166 -14.25916 -14.24543 -14.23927 -10.20563
  Beta  occ. eigenvalues --   -7.95325  -7.89590  -7.86837  -5.91620  -5.91584
  Beta  occ. eigenvalues --   -5.90965  -5.86113  -5.85465  -5.84862  -5.83407
  Beta  occ. eigenvalues --   -5.82931  -5.81994  -1.02930  -0.98336  -0.95868
  Beta  occ. eigenvalues --   -0.94880  -0.89907  -0.88372  -0.87639  -0.83764
  Beta  occ. eigenvalues --   -0.80741  -0.74980  -0.60914  -0.55495  -0.52202
  Beta  occ. eigenvalues --   -0.50897  -0.46343  -0.44891  -0.42807  -0.41238
  Beta  occ. eigenvalues --   -0.40173  -0.39557  -0.37303  -0.34944  -0.34261
  Beta  occ. eigenvalues --   -0.33381  -0.33040  -0.32675  -0.31085  -0.30208
  Beta  occ. eigenvalues --   -0.27795  -0.24658  -0.23922  -0.22353  -0.21178
  Beta  occ. eigenvalues --   -0.20487  -0.19553  -0.19272  -0.19042  -0.18015
  Beta  occ. eigenvalues --   -0.17452  -0.16081  -0.15155  -0.13168  -0.10371
  Beta virt. eigenvalues --    0.06027   0.06757   0.07989   0.09784   0.10244
  Beta virt. eigenvalues --    0.11303   0.11753   0.12531   0.12996   0.13369
  Beta virt. eigenvalues --    0.13710   0.14801   0.14937   0.15662   0.16504

 Mulliken charges and spin densities:
               1          2
     1  C   -0.089159   0.005249
     2  O   -0.334163   0.000419
     3  N   -0.294254  -0.003416
     4  N   -0.214829  -0.009618
     5  S    0.114969   0.049546
     6  N   -0.168023   0.044728
     7  N   -0.046031  -0.038374
     8  N    0.451826   0.028840
     9  N   -0.365744   0.115458
    10  S   -0.326139   0.283353
    11  O   -0.239828   0.007480
    12  O   -0.130574   0.026889
    13  S    0.182466   0.420787
    14  O   -0.443183   0.067886
    15  O   -0.260004  -0.026345
    16  H    0.232069   0.001897
    17  H    0.279616  -0.000170
    18  H    0.348873   0.002009
    19  H    0.302113   0.023382
 Sum of Mulliken charges =  -1.00000   1.00000

 Dipole moment (field-independent basis, Debye):
    X=              4.2776    Y=              3.5743    Z=             -1.2666  Tot=              5.7164
 Quadrupole moment (field-independent basis, Debye-Ang):
   XX=           -136.7548   YY=           -125.4602   ZZ=           -121.0933
   XY=             11.1704   XZ=             -1.1286   YZ=             -2.5689

 Summary of Natural Population Analysis:

                                       Natural Population
                Natural  -----------------------------------------------
    Atom  No    Charge         Core      Valence    Rydberg      Total
 -----------------------------------------------------------------------
      C    1    0.40031      0.99975     1.57625    0.02369     2.59969
      O    2   -0.32252      0.99987     3.31627    0.00639     4.32252
      N    3   -0.40835      0.99970     2.90154    0.00710     3.90835
      N    4   -0.42778      0.99970     2.91451    0.01357     3.92778
      S    5    0.32606      4.99955     2.64683    0.02756     7.67394
      N    6   -0.34724      0.99981     2.82781    0.01962     3.84724
      N    7   -0.11386      0.99971     2.59597    0.01818     3.61386
      N    8    0.11405      0.99970     2.36852    0.01773     3.38595
      N    9    0.02239      0.99982     2.46499    0.01280     3.47761
      S   10    0.97296      4.99933     1.92668    0.10104     7.02704
      O   11   -0.46416      0.99990     3.45649    0.00777     4.46416
      O   12   -0.44397      0.99991     3.43646    0.00760     4.44397
      S   13    0.73136      4.99964     2.20238    0.06662     7.26864
      O   14   -0.44284      0.99992     3.43349    0.00943     4.44284
      O   15   -0.44810      0.99992     3.43998    0.00820     4.44810
      H   16    0.19228      0.00000     0.30644    0.00128     0.30772
      H   17    0.19363      0.00000     0.30496    0.00141     0.30637
      H   18    0.21424      0.00000     0.28414    0.00162     0.28576
      H   19    0.25154      0.00000     0.24384    0.00462     0.24846
 =======================================================================
   * Total *   -0.00000     26.99621    42.64757    0.35622    70.00000

 Normal termination of Gaussian 16 at Thu Dec 10 17:23:22 2020.
