 Gaussian 16, Revision A.03,

 -----------------------------------------------------------
 # opt freq B3LYP/6-31G(d) empiricaldispersion=gd3bj scf=xqc
 -----------------------------------------------------------

 -------------------------------
 CID_145222925_JID_3524_neutraal
 -------------------------------
 Symbolic Z-matrix:
 Charge =  0 Multiplicity = 1

 SCF Done:  E(RB3LYP) =  -507.432234314     A.U. after   13 cycles
 SCF Done:  E(RB3LYP) =  -507.433991997     A.U. after   11 cycles
 SCF Done:  E(RB3LYP) =  -507.432865447     A.U. after   12 cycles
 SCF Done:  E(RB3LYP) =  -507.432840230     A.U. after   12 cycles
 SCF Done:  E(RB3LYP) =  -507.432937155     A.U. after   12 cycles
 SCF Done:  E(RB3LYP) =  -507.434191693     A.U. after    9 cycles
 SCF Done:  E(RB3LYP) =  -507.434654229     A.U. after   11 cycles
 SCF Done:  E(RB3LYP) =  -507.434724284     A.U. after   10 cycles
 SCF Done:  E(RB3LYP) =  -507.434772399     A.U. after   10 cycles
 SCF Done:  E(RB3LYP) =  -507.434798477     A.U. after   10 cycles
 SCF Done:  E(RB3LYP) =  -507.434845272     A.U. after    9 cycles
 SCF Done:  E(RB3LYP) =  -507.434857001     A.U. after    9 cycles
 SCF Done:  E(RB3LYP) =  -507.434860401     A.U. after    9 cycles
 SCF Done:  E(RB3LYP) =  -507.434860554     A.U. after    7 cycles
 SCF Done:  E(RB3LYP) =  -507.434860550     A.U. after    6 cycles
 Optimization completed.
    -- Stationary point found.
 Normal termination of Gaussian 16 at Wed Dec  9 23:36:33 2020.

 --------------------------------------------------------------------
 #N Geom=AllCheck Guess=TCheck SCRF=Check GenChk RB3LYP/6-31G(d) Freq
 --------------------------------------------------------------------

 Structure from the checkpoint file:  "JID_3524.chk"
 -------------------------------
 CID_145222925_JID_3524_neutraal
 -------------------------------
 Charge =  0 Multiplicity = 1

 SCF Done:  E(RB3LYP) =  -507.434860550     A.U. after    1 cycles

  Exact polarizability: 160.292  -6.761 149.248  -5.723  -4.922  99.018
 Approx polarizability: 200.246 -14.191 248.173 -10.915  -9.881 145.088

                      1                      2                      3
                      A                      A                      A
 Frequencies --     50.2007                58.5533                72.5924
 Red. masses --      3.1869                 3.4488                 2.6745
 Frc consts  --      0.0047                 0.0070                 0.0083
 IR Inten    --      0.1245                 0.0656                 0.0075

                      4                      5                      6
                      A                      A                      A
 Frequencies --     94.5158               133.1646               149.7442
 Red. masses --      1.0455                 2.6168                 2.2187
 Frc consts  --      0.0055                 0.0273                 0.0293
 IR Inten    --      0.1787                 0.2859                 0.2179

                      7                      8                      9
                      A                      A                      A
 Frequencies --    181.6288               220.7303               231.1558
 Red. masses --      2.8828                 2.6319                 3.0459
 Frc consts  --      0.0560                 0.0756                 0.0959
 IR Inten    --      0.4709                 0.7722                 0.4788

                     10                     11                     12
                      A                      A                      A
 Frequencies --    263.5627               273.7510               324.1189
 Red. masses --      2.4493                 1.9213                 2.2925
 Frc consts  --      0.1002                 0.0848                 0.1419
 IR Inten    --      0.3052                 0.0673                 0.3038

                     13                     14                     15
                      A                      A                      A
 Frequencies --    356.2351               361.2126               416.6012
 Red. masses --      2.2756                 2.0642                 2.7630
 Frc consts  --      0.1701                 0.1587                 0.2825
 IR Inten    --      0.1021                 1.1518                 3.0522

                     16                     17                     18
                      A                      A                      A
 Frequencies --    439.1736               479.2342               503.1962
 Red. masses --      2.7659                 2.4028                 2.2904
 Frc consts  --      0.3143                 0.3251                 0.3417
 IR Inten    --      0.5649                 2.8518                 0.2224

                     19                     20                     21
                      A                      A                      A
 Frequencies --    511.8309               557.6350               659.8206
 Red. masses --      2.2863                 2.7604                 2.6460
 Frc consts  --      0.3529                 0.5057                 0.6787
 IR Inten    --      2.0263                 0.8680                 3.5309

                     22                     23                     24
                      A                      A                      A
 Frequencies --    680.1342               724.3860               784.9724
 Red. masses --      1.7567                 2.5263                 2.5576
 Frc consts  --      0.4788                 0.7810                 0.9285
 IR Inten    --      5.6326                 4.0687                 0.8774

                     25                     26                     27
                      A                      A                      A
 Frequencies --    797.3249               829.8387               870.6362
 Red. masses --      1.5515                 2.2182                 1.4426
 Frc consts  --      0.5811                 0.9000                 0.6443
 IR Inten    --      0.0118                 0.9358                 8.2605

                     28                     29                     30
                      A                      A                      A
 Frequencies --    881.9159               919.9187               923.6123
 Red. masses --      1.9567                 1.4600                 1.9374
 Frc consts  --      0.8967                 0.7280                 0.9738
 IR Inten    --      5.7887                37.0084                 6.2470

                     31                     32                     33
                      A                      A                      A
 Frequencies --    935.4589               953.4005               959.8546
 Red. masses --      1.4130                 1.6651                 1.6869
 Frc consts  --      0.7285                 0.8917                 0.9157
 IR Inten    --     27.9525                 3.3554                 3.3516

                     34                     35                     36
                      A                      A                      A
 Frequencies --    996.7071              1000.6736              1027.8535
 Red. masses --      1.6445                 1.6881                 1.1291
 Frc consts  --      0.9625                 0.9960                 0.7028
 IR Inten    --     10.5745                 9.6022                 9.2873

                     37                     38                     39
                      A                      A                      A
 Frequencies --   1033.2022              1039.2304              1064.8590
 Red. masses --      1.6540                 1.1133                 1.9921
 Frc consts  --      1.0403                 0.7084                 1.3309
 IR Inten    --      3.0433                 9.3437                 0.9247

                     40                     41                     42
                      A                      A                      A
 Frequencies --   1070.3225              1092.5934              1097.4719
 Red. masses --      1.5269                 1.9948                 2.1798
 Frc consts  --      1.0306                 1.4030                 1.5469
 IR Inten    --      0.6470                 0.5202                 0.0925

                     43                     44                     45
                      A                      A                      A
 Frequencies --   1121.7907              1132.6558              1172.1631
 Red. masses --      1.8905                 1.7217                 1.7027
 Frc consts  --      1.4017                 1.3014                 1.3784
 IR Inten    --      0.4936                 3.5880                 1.5696

                     46                     47                     48
                      A                      A                      A
 Frequencies --   1186.0187              1220.8770              1250.4665
 Red. masses --      2.0260                 1.2770                 2.0317
 Frc consts  --      1.6791                 1.1215                 1.8717
 IR Inten    --      0.1992                 0.7434                 4.3320

                     49                     50                     51
                      A                      A                      A
 Frequencies --   1275.9519              1306.3369              1323.2862
 Red. masses --      1.4725                 1.2777                 1.2478
 Frc consts  --      1.4124                 1.2846                 1.2873
 IR Inten    --      2.0575                 2.3901                 1.3987

                     52                     53                     54
                      A                      A                      A
 Frequencies --   1340.9154              1347.1997              1349.8317
 Red. masses --      1.3201                 1.2693                 1.3193
 Frc consts  --      1.3985                 1.3573                 1.4163
 IR Inten    --      2.8754                 2.2302                 0.9354

                     55                     56                     57
                      A                      A                      A
 Frequencies --   1356.5281              1377.3313              1394.2086
 Red. masses --      1.2553                 1.4627                 1.3353
 Frc consts  --      1.3610                 1.6349                 1.5293
 IR Inten    --      1.4929                 0.7670                 0.5224

                     58                     59                     60
                      A                      A                      A
 Frequencies --   1396.3715              1405.2524              1413.1122
 Red. masses --      1.3521                 1.4871                 1.4404
 Frc consts  --      1.5533                 1.7302                 1.6946
 IR Inten    --      0.8541                 7.7544                 2.3983

                     61                     62                     63
                      A                      A                      A
 Frequencies --   1433.7060              1447.7715              1480.9413
 Red. masses --      1.4005                 1.2828                 1.2221
 Frc consts  --      1.6961                 1.5841                 1.5791
 IR Inten    --      3.4803                 1.8914                 1.0820

                     64                     65                     66
                      A                      A                      A
 Frequencies --   1483.7364              1511.6139              1512.3484
 Red. masses --      1.2967                 1.0566                 1.0697
 Frc consts  --      1.6819                 1.4224                 1.4416
 IR Inten    --      4.4746                 5.0170                 1.3465

                     67                     68                     69
                      A                      A                      A
 Frequencies --   1518.2542              1521.4612              1523.6532
 Red. masses --      1.0919                 1.0815                 1.0822
 Frc consts  --      1.4829                 1.4751                 1.4802
 IR Inten    --      6.1199                 9.1562                 6.5309

                     70                     71                     72
                      A                      A                      A
 Frequencies --   1531.8909              1684.9656              1722.9801
 Red. masses --      1.0949                 4.2180                 5.0622
 Frc consts  --      1.5139                 7.0557                 8.8542
 IR Inten    --      4.5235                 4.9748                11.7823

                     73                     74                     75
                      A                      A                      A
 Frequencies --   1733.4159              3010.5090              3016.8431
 Red. masses --      4.5833                 1.0823                 1.0787
 Frc consts  --      8.1139                 5.7795                 5.7844
 IR Inten    --     10.2998                 7.6860                13.7779

                     76                     77                     78
                      A                      A                      A
 Frequencies --   3028.0184              3033.9555              3036.2065
 Red. masses --      1.0702                 1.0426                 1.0632
 Frc consts  --      5.7816                 5.6542                 5.7747
 IR Inten    --     17.1287                39.6253                 7.0953

                     79                     80                     81
                      A                      A                      A
 Frequencies --   3040.7051              3049.1073              3073.5871
 Red. masses --      1.0703                 1.0613                 1.0993
 Frc consts  --      5.8305                 5.8135                 6.1188
 IR Inten    --     85.2337                19.6115                20.2664

                     82                     83                     84
                      A                      A                      A
 Frequencies --   3075.8736              3081.9285              3088.2704
 Red. masses --      1.0964                 1.1011                 1.1034
 Frc consts  --      6.1117                 6.1620                 6.2000
 IR Inten    --     43.0218                24.2376                71.7085

                     85                     86                     87
                      A                      A                      A
 Frequencies --   3114.5998              3127.9616              3145.6064
 Red. masses --      1.0921                 1.0841                 1.0946
 Frc consts  --      6.2417                 6.2495                 6.3812
 IR Inten    --     25.0411                27.3506                11.7876

                     88                     89                     90
                      A                      A                      A
 Frequencies --   3154.7122              3173.2904              3188.4079
 Red. masses --      1.0647                 1.0594                 1.0877
 Frc consts  --      6.2431                 6.2856                 6.5151
 IR Inten    --      9.4142                 7.5172                18.7926

                     91                     92                     93
                      A                      A                      A
 Frequencies --   3210.0765              3232.5995              3250.9013
 Red. masses --      1.0861                 1.1156                 1.1152
 Frc consts  --      6.5937                 6.8683                 6.9440
 IR Inten    --     15.4705                22.6003                25.4514

 - Thermochemistry -
 -------------------
 Temperature   298.150 Kelvin.  Pressure   1.00000 Atm.
 Atom     1 has atomic number  6 and mass  12.00000

 Molecular mass:   176.15650 amu.
 Principal axes and moments of inertia in atomic units:
                           1         2         3
     Eigenvalues --  1368.908504017.180794532.59762
           X            0.99997   0.00557  -0.00499
           Y           -0.00566   0.99983  -0.01736
           Z            0.00489   0.01739   0.99984
 This molecule is an asymmetric top.
 Rotational symmetry number  1.
 Warning -- assumption of classical behavior for rotation
           may cause significant error
 Rotational temperatures (Kelvin)      0.06327     0.02156     0.01911
 Rotational constants (GHZ):           1.31838     0.44926     0.39817
 Zero-point vibrational energy     787341.5 (Joules/Mol)
                                  188.17914 (Kcal/Mol)
 Warning -- explicit consideration of  20 degrees of freedom as
           vibrations may cause significant error
 Vibrational temperatures:     72.23    84.25   104.44   135.99   191.59
          (Kelvin)            215.45   261.32   317.58   332.58   379.21
                              393.87   466.33   512.54   519.70   599.40
                              631.87   689.51   723.99   736.41   802.31
                              949.33   978.56  1042.23  1129.40  1147.17
                             1193.95  1252.65  1268.88  1323.56  1328.87
                             1345.92  1371.73  1381.02  1434.04  1439.75
                             1478.85  1486.55  1495.22  1532.09  1539.96
                             1572.00  1579.02  1614.01  1629.64  1686.48
                             1706.42  1756.57  1799.14  1835.81  1879.53
                             1903.91  1929.28  1938.32  1942.11  1951.74
                             1981.67  2005.96  2009.07  2021.84  2033.15
                             2062.78  2083.02  2130.74  2134.77  2174.88
                             2175.93  2184.43  2189.04  2192.20  2204.05
                             2424.29  2478.98  2494.00  4331.45  4340.56
                             4356.64  4365.19  4368.42  4374.90  4386.99
                             4422.21  4425.50  4434.21  4443.33  4481.21
                             4500.44  4525.83  4538.93  4565.66  4587.41
                             4618.58  4650.99  4677.32

 Zero-point correction=                           0.299883 (Hartree/Particle)
 Thermal correction to Energy=                    0.313786
 Thermal correction to Enthalpy=                  0.314730
 Thermal correction to Gibbs Free Energy=         0.259361
 Sum of electronic and zero-point Energies=           -507.134978
 Sum of electronic and thermal Energies=              -507.121075
 Sum of electronic and thermal Enthalpies=            -507.120131
 Sum of electronic and thermal Free Energies=         -507.175499

                     E (Thermal)             CV                S
                      KCal/Mol        Cal/Mol-Kelvin    Cal/Mol-Kelvin
 Total                  196.904             53.481            116.533
 Electronic               0.000              0.000              0.000
 Translational            0.889              2.981             41.406
 Rotational               0.889              2.981             31.589
 Vibrational            195.126             47.519             43.539
 Vibration     1          0.595              1.978              4.809
 Vibration     2          0.596              1.974              4.505
 Vibration     3          0.599              1.967              4.082
 Vibration     4          0.603              1.953              3.564
 Vibration     5          0.613              1.920              2.900
 Vibration     6          0.618              1.903              2.675
 Vibration     7          0.630              1.865              2.312
 Vibration     8          0.647              1.810              1.953
 Vibration     9          0.653              1.793              1.870
 Vibration    10          0.670              1.740              1.638
 Vibration    11          0.676              1.722              1.572
 Vibration    12          0.709              1.627              1.289
 Vibration    13          0.732              1.562              1.138
 Vibration    14          0.735              1.552              1.117
 Vibration    15          0.780              1.434              0.904
 Vibration    16          0.799              1.385              0.829
 Vibration    17          0.836              1.296              0.712
 Vibration    18          0.859              1.243              0.650
 Vibration    19          0.867              1.224              0.629
 Vibration    20          0.913              1.123              0.529

 Optimization completed.
    -- Stationary point found.
 Normal termination of Gaussian 16 at Wed Dec  9 23:45:23 2020.

 ----------------------------------------------------------------------
 # B3LYP/6-311++G(d,p) empiricaldispersion=gd3bj scf=xqc pop=npa geom=c
 heck
 ----------------------------------------------------------------------

 ---------------------------------------
 CID_145222925_JID_3524_Energie_neutraal
 ---------------------------------------
 Structure from the checkpoint file:  "JID_3524.chk"
 Charge =  0 Multiplicity = 1

 SCF Done:  E(RB3LYP) =  -507.573372391     A.U. after   14 cycles
 Normal termination of Gaussian 16 at Wed Dec  9 23:48:50 2020.

 ----------------------------------------------------------------------
 # B3LYP/6-311++G(d,p) empiricaldispersion=gd3bj scf=xqc pop=npa geom=c
 heck
 ----------------------------------------------------------------------

 -------------------------------------
 CID_145222925_JID_3524_Energie_kation
 -------------------------------------
 Structure from the checkpoint file:  "JID_3524.chk"
 Charge =  1 Multiplicity = 2

 SCF Done:  E(UB3LYP) =  -507.280693838     A.U. after   23 cycles
 Normal termination of Gaussian 16 at Wed Dec  9 23:56:24 2020.
 Gaussian 16:  ES64L-G16RevA.03 25-Dec-2016

 ----------------------------------------------------------------------
 # B3LYP/6-311++G(d,p) empiricaldispersion=gd3bj scf=xqc pop=npa geom=c
 heck
 ----------------------------------------------------------------------

 ------------------------------------
 CID_145222925_JID_3524_Energie_anion
 ------------------------------------
 Structure from the checkpoint file:  "JID_3524.chk"
 Charge = -1 Multiplicity = 2

                         Standard orientation:
 ---------------------------------------------------------------------
 Center     Atomic      Atomic             Coordinates (Angstroms)
 Number     Number       Type             X           Y           Z
 ---------------------------------------------------------------------
      1          6           0        2.607706    2.496704   -0.558333
      2          6           0        1.676133    1.502413    0.072793
      3          6           0        1.769053    0.156036    0.110192
      4          6           0        2.911334   -0.534336   -0.508490
      5          6           0        3.251013   -1.824819   -0.374205
      6          6           0        0.739314   -0.719172    0.820743
      7          6           0       -0.257650    0.004553    1.752247
      8          6           0       -1.442436    0.693535    1.052874
      9          6           0       -2.164600   -0.234941    0.057637
     10          6           0       -1.137348   -0.834777   -0.920791
     11          6           0       -0.047554   -1.609330   -0.175915
     12          6           0       -3.256378    0.498631   -0.668639
     13          6           0       -4.553901    0.198112   -0.619632
     14          1           0        3.440903    2.047109   -1.101714
     15          1           0        3.032490    3.161171    0.206750
     16          1           0        2.059850    3.141999   -1.258080
     17          1           0        0.834344    1.965786    0.576987
     18          1           0        3.558567    0.081244   -1.127373
     19          1           0        4.136603   -2.217988   -0.864501
     20          1           0        2.682659   -2.530457    0.223314
     21          1           0        1.318865   -1.394883    1.464657
     22          1           0       -0.669531   -0.755590    2.429932
     23          1           0        0.274703    0.722726    2.387422
     24          1           0       -1.110884    1.583898    0.505343
     25          1           0       -2.155084    1.046194    1.808395
     26          1           0       -2.618185   -1.063737    0.622264
     27          1           0       -0.679305   -0.025657   -1.507122
     28          1           0       -1.647464   -1.493487   -1.633559
     29          1           0        0.637676   -2.072012   -0.891045
     30          1           0       -0.517758   -2.426954    0.388909
     31          1           0       -2.926497    1.341978   -1.279490
     32          1           0       -5.297658    0.767435   -1.170630
     33          1           0       -4.922411   -0.634432   -0.023342
 ---------------------------------------------------------------------

 SCF Done:  E(UB3LYP) =  -507.557240939     A.U. after   33 cycles
 SCF Done:  E(UB3LYP) =  -507.557240939     a.u. after    1 cycles

 The electronic state is 2-A.
 Alpha  occ. eigenvalues --  -10.07609 -10.07040 -10.06551 -10.06210 -10.06154
 Alpha  occ. eigenvalues --  -10.05937 -10.05797 -10.05679 -10.05484 -10.05359
 Alpha  occ. eigenvalues --  -10.05288 -10.04885 -10.04258  -0.73982  -0.70729
 Alpha  occ. eigenvalues --   -0.67067  -0.64443  -0.63263  -0.62185  -0.57077
 Alpha  occ. eigenvalues --   -0.51443  -0.50438  -0.47885  -0.45739  -0.45010
 Alpha  occ. eigenvalues --   -0.39604  -0.37787  -0.36058  -0.35507  -0.34318
 Alpha  occ. eigenvalues --   -0.33900  -0.32538  -0.30887  -0.29822  -0.29401
 Alpha  occ. eigenvalues --   -0.28558  -0.27532  -0.27065  -0.26485  -0.25859
 Alpha  occ. eigenvalues --   -0.24289  -0.23350  -0.22781  -0.21038  -0.19994
 Alpha  occ. eigenvalues --   -0.19318  -0.17885  -0.16074  -0.11266   0.04932
 Alpha virt. eigenvalues --    0.06623   0.06892   0.07586   0.08151   0.08815
 Alpha virt. eigenvalues --    0.09041   0.09533   0.09800   0.10209   0.10603
 Alpha virt. eigenvalues --    0.11370   0.11730   0.12208   0.12519   0.13451

  Beta  occ. eigenvalues --  -10.07607 -10.07030 -10.06529 -10.06209 -10.06151
  Beta  occ. eigenvalues --  -10.05933 -10.05792 -10.05665 -10.05463 -10.05286
  Beta  occ. eigenvalues --  -10.05275 -10.04720 -10.04147  -0.73939  -0.70606
  Beta  occ. eigenvalues --   -0.66986  -0.64268  -0.63208  -0.62125  -0.56983
  Beta  occ. eigenvalues --   -0.51389  -0.50401  -0.47574  -0.45690  -0.44941
  Beta  occ. eigenvalues --   -0.39515  -0.37701  -0.35993  -0.35441  -0.34278
  Beta  occ. eigenvalues --   -0.33854  -0.32493  -0.30721  -0.29776  -0.29322
  Beta  occ. eigenvalues --   -0.28521  -0.27481  -0.27028  -0.26392  -0.25817
  Beta  occ. eigenvalues --   -0.24225  -0.23307  -0.22738  -0.20871  -0.19961
  Beta  occ. eigenvalues --   -0.19265  -0.17494  -0.16052  -0.10501
  Beta virt. eigenvalues --    0.06885   0.07322   0.07797   0.08347   0.08581
  Beta virt. eigenvalues --    0.09136   0.09213   0.09618   0.10158   0.10559
  Beta virt. eigenvalues --    0.10853   0.11671   0.12019   0.12506   0.12678

 Mulliken charges and spin densities:
               1          2
     1  C    0.655443  -1.349559
     2  C    0.035581  -0.615946
     3  C    0.948395   0.150958
     4  C   -0.775767   0.388540
     5  C   -0.170247  -0.282458
     6  C   -1.207583   1.745846
     7  C    0.957180  -1.533174
     8  C   -0.382408   0.022066
     9  C    0.772447  -0.681028
    10  C   -0.161129  -0.347943
    11  C    0.238594  -0.826429
    12  C   -1.234597   1.429160
    13  C    0.247086  -0.879543
    14  H   -0.039860   0.164289
    15  H   -0.019115   0.158531
    16  H   -0.094018   0.240294
    17  H    0.218556  -0.105789
    18  H   -0.051673   0.152357
    19  H   -0.024091   0.135115
    20  H   -0.053899   0.179913
    21  H    0.068020   0.155093
    22  H   -0.479039   0.658331
    23  H   -0.125029   0.286699
    24  H    0.009246   0.080771
    25  H   -0.031672   0.214025
    26  H    0.153740   0.006064
    27  H    0.055072   0.068710
    28  H    0.160044   0.018598
    29  H    0.258179  -0.104390
    30  H   -0.332357   0.474068
    31  H   -0.038647   0.188167
    32  H   -0.185842   0.313872
    33  H   -0.370609   0.494793
 Sum of Mulliken charges =  -1.00000   1.00000

 Dipole moment (field-independent basis, Debye):
    X=              0.9116    Y=              1.2515    Z=             -2.4597  Tot=              2.9064
 Quadrupole moment (field-independent basis, Debye-Ang):
   XX=           -156.0824   YY=           -119.3548   ZZ=           -117.7013
   XY=             -0.7286   XZ=              0.3629   YZ=              6.1121

 Summary of Natural Population Analysis:

                                       Natural Population
                Natural  -----------------------------------------------
    Atom  No    Charge         Core      Valence    Rydberg      Total
 -----------------------------------------------------------------------
      C    1   -0.29857      0.99965     2.29438    0.00455     3.29857
      C    2   -0.05137      0.99948     2.04310    0.00879     3.05137
      C    3   -0.03342      0.99945     2.02178    0.01220     3.03342
      C    4   -0.08909      0.99953     2.08034    0.00922     3.08909
      C    5   -0.17949      0.99959     2.17297    0.00694     3.17949
      C    6   -0.11876      0.99956     2.10651    0.01269     3.11876
      C    7   -0.18942      0.99962     2.17950    0.01030     3.18942
      C    8   -0.18412      0.99960     2.17571    0.00880     3.18412
      C    9   -0.12909      0.99956     2.11779    0.01174     3.12909
      C   10   -0.18644      0.99961     2.17803    0.00880     3.18644
      C   11   -0.18673      0.99961     2.17801    0.00912     3.18673
      C   12   -0.07258      0.99955     2.06176    0.01127     3.07258
      C   13   -0.19645      0.99956     2.18952    0.00737     3.19645
      H   14    0.09769      0.00000     0.40123    0.00108     0.40231
      H   15    0.10024      0.00000     0.39860    0.00116     0.39976
      H   16    0.10107      0.00000     0.39734    0.00159     0.39893
      H   17    0.08804      0.00000     0.41036    0.00160     0.41196
      H   18    0.08907      0.00000     0.40893    0.00200     0.41093
      H   19    0.08804      0.00000     0.41107    0.00089     0.41196
      H   20    0.08924      0.00000     0.40961    0.00114     0.41076
      H   21    0.10510      0.00000     0.39233    0.00257     0.39490
      H   22    0.09939      0.00000     0.39904    0.00157     0.40061
      H   23    0.10274      0.00000     0.39609    0.00117     0.39726
      H   24    0.09220      0.00000     0.40597    0.00183     0.40780
      H   25    0.09927      0.00000     0.39979    0.00095     0.40073
      H   26    0.09509      0.00000     0.40243    0.00248     0.40491
      H   27    0.09719      0.00000     0.40136    0.00144     0.40281
      H   28    0.09824      0.00000     0.40097    0.00079     0.40176
      H   29    0.10481      0.00000     0.39398    0.00121     0.39519
      H   30    0.09491      0.00000     0.40370    0.00138     0.40509
      H   31    0.08997      0.00000     0.40890    0.00113     0.41003
      H   32    0.09162      0.00000     0.40738    0.00100     0.40838
      H   33    0.09162      0.00000     0.40702    0.00137     0.40838
 =======================================================================
   * Total *    0.00000     12.99436    35.85552    0.15012    49.00000

 Normal termination of Gaussian 16 at Thu Dec 10 00:07:34 2020.
