 Gaussian 16, Revision A.03,

 -----------------------------------------------------------
 # opt freq B3LYP/6-31G(d) empiricaldispersion=gd3bj scf=xqc
 -----------------------------------------------------------

 -------------------------------
 CID_115090675_JID_6536_neutraal
 -------------------------------
 Symbolic Z-matrix:
 Charge =  0 Multiplicity = 1

 SCF Done:  E(RB3LYP) =  -1032.42337389     A.U. after   15 cycles
 SCF Done:  E(RB3LYP) =  -1032.42853388     A.U. after   12 cycles
 SCF Done:  E(RB3LYP) =  -1032.42906590     A.U. after   12 cycles
 SCF Done:  E(RB3LYP) =  -1032.42949542     A.U. after   12 cycles
 SCF Done:  E(RB3LYP) =  -1032.42958797     A.U. after   11 cycles
 SCF Done:  E(RB3LYP) =  -1032.42962953     A.U. after   11 cycles
 SCF Done:  E(RB3LYP) =  -1032.42965153     A.U. after   11 cycles
 SCF Done:  E(RB3LYP) =  -1032.42966931     A.U. after   10 cycles
 SCF Done:  E(RB3LYP) =  -1032.42967807     A.U. after   11 cycles
 SCF Done:  E(RB3LYP) =  -1032.42968128     A.U. after    9 cycles
 SCF Done:  E(RB3LYP) =  -1032.42968174     A.U. after    8 cycles
 SCF Done:  E(RB3LYP) =  -1032.42968195     A.U. after    8 cycles
 Optimization completed.
    -- Stationary point found.
 Normal termination of Gaussian 16 at Thu Dec 10 23:30:48 2020.

 --------------------------------------------------------------------
 #N Geom=AllCheck Guess=TCheck SCRF=Check GenChk RB3LYP/6-31G(d) Freq
 --------------------------------------------------------------------

 Structure from the checkpoint file:  "JID_6536.chk"
 -------------------------------
 CID_115090675_JID_6536_neutraal
 -------------------------------
 Charge =  0 Multiplicity = 1

 SCF Done:  E(RB3LYP) =  -1032.42968195     A.U. after    1 cycles

  Exact polarizability: 204.019  -4.068 139.427   0.379   7.094 136.780
 Approx polarizability: 265.652  -2.773 200.810   5.246  28.262 243.042

                      1                      2                      3
                      A                      A                      A
 Frequencies --     26.5139                42.6878                58.9371
 Red. masses --      3.3084                 4.9526                 3.5955
 Frc consts  --      0.0014                 0.0053                 0.0074
 IR Inten    --      0.9059                 0.4729                 2.0881

                      4                      5                      6
                      A                      A                      A
 Frequencies --     63.1241                96.2925               110.2475
 Red. masses --      4.3122                 2.8208                 2.9657
 Frc consts  --      0.0101                 0.0154                 0.0212
 IR Inten    --      0.1929                 0.2133                 0.3934

                      7                      8                      9
                      A                      A                      A
 Frequencies --    139.1020               165.5329               220.3306
 Red. masses --      3.1546                 2.7366                 1.7561
 Frc consts  --      0.0360                 0.0442                 0.0502
 IR Inten    --      0.1201                 1.9819                 5.9927

                     10                     11                     12
                      A                      A                      A
 Frequencies --    231.9674               245.2163               257.5767
 Red. masses --      1.2893                 1.7895                 2.2452
 Frc consts  --      0.0409                 0.0634                 0.0878
 IR Inten    --     20.1460                21.6032                 4.7060

                     13                     14                     15
                      A                      A                      A
 Frequencies --    265.7782               274.8624               287.4414
 Red. masses --      2.2956                 1.3600                 3.1571
 Frc consts  --      0.0955                 0.0605                 0.1537
 IR Inten    --     10.7215                 7.8900                 1.3361

                     16                     17                     18
                      A                      A                      A
 Frequencies --    342.5604               351.7221               387.8363
 Red. masses --      1.7882                 3.1048                 3.2492
 Frc consts  --      0.1236                 0.2263                 0.2880
 IR Inten    --      0.3435                 3.6475                 3.0237

                     19                     20                     21
                      A                      A                      A
 Frequencies --    435.0747               462.5537               471.2022
 Red. masses --      2.5736                 2.8143                 3.2218
 Frc consts  --      0.2870                 0.3548                 0.4215
 IR Inten    --      1.4616                 2.3811                 3.6849

                     22                     23                     24
                      A                      A                      A
 Frequencies --    487.6582               526.2884               578.2208
 Red. masses --      2.9172                 3.1225                 2.2074
 Frc consts  --      0.4087                 0.5096                 0.4348
 IR Inten    --      6.1261                 1.0239                 2.3471

                     25                     26                     27
                      A                      A                      A
 Frequencies --    594.7435               619.4946               645.5953
 Red. masses --      3.2235                 4.0558                 7.2436
 Frc consts  --      0.6718                 0.9171                 1.7788
 IR Inten    --      2.7913                 6.7378                 8.8127

                     28                     29                     30
                      A                      A                      A
 Frequencies --    654.8298               688.2264               776.9891
 Red. masses --      6.8772                 4.9223                 3.2475
 Frc consts  --      1.7375                 1.3737                 1.1551
 IR Inten    --      3.7522                 6.3984                12.7980

                     31                     32                     33
                      A                      A                      A
 Frequencies --    790.3486               803.5130               853.4386
 Red. masses --      1.8453                 1.6760                 1.5739
 Frc consts  --      0.6791                 0.6376                 0.6754
 IR Inten    --      5.8306                 4.8170                 3.8543

                     34                     35                     36
                      A                      A                      A
 Frequencies --    869.0263               874.7181               878.1360
 Red. masses --      1.4254                 2.3121                 2.4743
 Frc consts  --      0.6342                 1.0423                 1.1242
 IR Inten    --     29.6396                72.8156                 8.9558

                     37                     38                     39
                      A                      A                      A
 Frequencies --    904.7631               928.5630               943.3784
 Red. masses --      1.7089                 1.2720                 2.2283
 Frc consts  --      0.8242                 0.6462                 1.1684
 IR Inten    --      3.3583                70.9416                 3.4997

                     40                     41                     42
                      A                      A                      A
 Frequencies --    964.7715              1007.0941              1010.8669
 Red. masses --      2.1262                 1.8405                 1.6938
 Frc consts  --      1.1660                 1.0998                 1.0198
 IR Inten    --      0.0860                 7.4660                 7.5041

                     43                     44                     45
                      A                      A                      A
 Frequencies --   1059.1358              1072.3689              1082.8931
 Red. masses --      2.0332                 2.0242                 2.6832
 Frc consts  --      1.3438                 1.3715                 1.8539
 IR Inten    --     14.6810                 4.0959                10.0654

                     46                     47                     48
                      A                      A                      A
 Frequencies --   1093.8722              1105.4066              1112.4303
 Red. masses --      1.9679                 1.9943                 2.4342
 Frc consts  --      1.3874                 1.4358                 1.7748
 IR Inten    --      2.7703                26.7180                17.4364

                     49                     50                     51
                      A                      A                      A
 Frequencies --   1137.1917              1152.9845              1183.0002
 Red. masses --      2.3959                 2.1970                 1.9112
 Frc consts  --      1.8255                 1.7208                 1.5759
 IR Inten    --     32.1546                25.9317                17.6770

                     52                     53                     54
                      A                      A                      A
 Frequencies --   1187.1536              1209.2540              1223.0947
 Red. masses --      1.5667                 2.4586                 2.3263
 Frc consts  --      1.3009                 2.1182                 2.0504
 IR Inten    --      7.2291                 6.8289                14.2415

                     55                     56                     57
                      A                      A                      A
 Frequencies --   1237.7722              1241.1724              1268.2275
 Red. masses --      1.7368                 2.0559                 1.6072
 Frc consts  --      1.5678                 1.8661                 1.5230
 IR Inten    --      8.6589                11.0553                 8.6565

                     58                     59                     60
                      A                      A                      A
 Frequencies --   1302.2988              1310.1514              1318.4456
 Red. masses --      1.3048                 1.2539                 1.8359
 Frc consts  --      1.3038                 1.2681                 1.8803
 IR Inten    --     20.0610                 6.5807                 8.8212

                     61                     62                     63
                      A                      A                      A
 Frequencies --   1344.2067              1369.8161              1373.2327
 Red. masses --      1.2844                 1.2915                 1.3766
 Frc consts  --      1.3673                 1.4278                 1.5295
 IR Inten    --      3.2553                 7.4155                35.4427

                     64                     65                     66
                      A                      A                      A
 Frequencies --   1374.9404              1385.6877              1403.2910
 Red. masses --      1.2942                 1.3851                 1.4222
 Frc consts  --      1.4415                 1.5669                 1.6500
 IR Inten    --      3.2056                 4.7765                 6.1142

                     67                     68                     69
                      A                      A                      A
 Frequencies --   1406.4820              1410.2514              1422.9109
 Red. masses --      1.2990                 1.5104                 1.4310
 Frc consts  --      1.5140                 1.7698                 1.7071
 IR Inten    --      7.0854                 7.5597                23.9046

                     70                     71                     72
                      A                      A                      A
 Frequencies --   1432.8749              1433.4784              1440.7738
 Red. masses --      1.3588                 1.2338                 1.2653
 Frc consts  --      1.6437                 1.4937                 1.5475
 IR Inten    --      5.7732                 5.0569                22.8522

                     73                     74                     75
                      A                      A                      A
 Frequencies --   1504.6954              1513.8311              1516.8546
 Red. masses --      1.0965                 1.0866                 1.0677
 Frc consts  --      1.4627                 1.4671                 1.4474
 IR Inten    --      1.5827                 6.6237                 2.2732

                     76                     77                     78
                      A                      A                      A
 Frequencies --   1519.2725              1522.6499              1524.9331
 Red. masses --      1.0748                 1.0919                 1.0691
 Frc consts  --      1.4617                 1.4916                 1.4648
 IR Inten    --      0.6350                 5.8729                 6.7914

                     79                     80                     81
                      A                      A                      A
 Frequencies --   1529.0049              1534.0096              1542.6179
 Red. masses --      1.0542                 1.0825                 1.1333
 Frc consts  --      1.4520                 1.5008                 1.5890
 IR Inten    --      4.3533                 0.5286                 2.2982

                     82                     83                     84
                      A                      A                      A
 Frequencies --   1550.4108              1602.7729              1692.3739
 Red. masses --      4.7878                 6.2545                 1.0914
 Frc consts  --      6.7808                 9.4664                 1.8417
 IR Inten    --      9.1796                20.8256                30.6706

                     85                     86                     87
                      A                      A                      A
 Frequencies --   2930.9467              2966.9656              3030.6020
 Red. masses --      1.0727                 1.0809                 1.0663
 Frc consts  --      5.4292                 5.6062                 5.7702
 IR Inten    --     63.1383                30.1332                30.9100

                     88                     89                     90
                      A                      A                      A
 Frequencies --   3041.5344              3045.0548              3045.9019
 Red. masses --      1.0366                 1.0830                 1.0613
 Frc consts  --      5.6501                 5.9164                 5.8014
 IR Inten    --     17.6174                19.8048                23.4840

                     91                     92                     93
                      A                      A                      A
 Frequencies --   3053.1576              3054.5993              3056.8797
 Red. masses --      1.0614                 1.0384                 1.0629
 Frc consts  --      5.8296                 5.7084                 5.8522
 IR Inten    --     12.9090                28.3490                22.0999

                     94                     95                     96
                      A                      A                      A
 Frequencies --   3076.5174              3082.2705              3091.5259
 Red. masses --      1.0872                 1.0939                 1.1048
 Frc consts  --      6.0630                 6.1229                 6.2212
 IR Inten    --     55.2043                52.3665                43.7123

                     97                     98                     99
                      A                      A                      A
 Frequencies --   3097.4257              3102.1390              3111.3608
 Red. masses --      1.1010                 1.1044                 1.1028
 Frc consts  --      6.2234                 6.2620                 6.2900
 IR Inten    --     18.6733                35.0638                46.5102

                    100                    101                    102
                      A                      A                      A
 Frequencies --   3118.5833              3119.3075              3134.6629
 Red. masses --      1.1005                 1.1024                 1.1033
 Frc consts  --      6.3062                 6.3197                 6.3872
 IR Inten    --     38.1649                29.8670                37.5642

                    103                    104                    105
                      A                      A                      A
 Frequencies --   3225.8637              3446.7684              3535.1849
 Red. masses --      1.0936                 1.0492                 1.0923
 Frc consts  --      6.7049                 7.3438                 8.0427
 IR Inten    --     13.8130                 2.9705                 2.4639

 - Thermochemistry -
 -------------------
 Temperature   298.150 Kelvin.  Pressure   1.00000 Atm.
 Atom     1 has atomic number  6 and mass  12.00000

 Molecular mass:   239.14562 amu.
 Principal axes and moments of inertia in atomic units:
                           1         2         3
     Eigenvalues --  1978.289366737.020417365.99761
           X            0.99997  -0.00259   0.00739
           Y            0.00266   0.99996  -0.00886
           Z           -0.00737   0.00888   0.99993
 This molecule is an asymmetric top.
 Rotational symmetry number  1.
 Warning -- assumption of classical behavior for rotation
           may cause significant error
 Rotational temperatures (Kelvin)      0.04378     0.01286     0.01176
 Rotational constants (GHZ):           0.91227     0.26788     0.24501
 Zero-point vibrational energy     857439.6 (Joules/Mol)
                                  204.93298 (Kcal/Mol)
 Warning -- explicit consideration of  26 degrees of freedom as
           vibrations may cause significant error
 Vibrational temperatures:     38.15    61.42    84.80    90.82   138.54
          (Kelvin)            158.62   200.14   238.16   317.01   333.75
                              352.81   370.60   382.40   395.47   413.56
                              492.87   506.05   558.01   625.98   665.51
                              677.95   701.63   757.21   831.93   855.70
                              891.31   928.87   942.15   990.20  1117.91
                             1137.14  1156.08  1227.91  1250.34  1258.52
                             1263.44  1301.75  1336.00  1357.31  1388.09
                             1448.98  1454.41  1523.86  1542.90  1558.04
                             1573.84  1590.43  1600.54  1636.17  1658.89
                             1702.07  1708.05  1739.85  1759.76  1780.88
                             1785.77  1824.70  1873.72  1885.02  1896.95
                             1934.01  1970.86  1975.78  1978.23  1993.70
                             2019.02  2023.61  2029.04  2047.25  2061.59
                             2062.46  2072.95  2164.92  2178.07  2182.42
                             2185.89  2190.75  2194.04  2199.90  2207.10
                             2219.48  2230.70  2306.03  2434.95  4216.98
                             4268.80  4360.36  4376.09  4381.15  4382.37
                             4392.81  4394.89  4398.17  4426.42  4434.70
                             4448.02  4456.50  4463.29  4476.55  4486.95
                             4487.99  4510.08  4641.30  4959.13  5086.34

 Zero-point correction=                           0.326581 (Hartree/Particle)
 Thermal correction to Energy=                    0.343237
 Thermal correction to Enthalpy=                  0.344181
 Thermal correction to Gibbs Free Energy=         0.281513
 Sum of electronic and zero-point Energies=          -1032.103100
 Sum of electronic and thermal Energies=             -1032.086445
 Sum of electronic and thermal Enthalpies=           -1032.085501
 Sum of electronic and thermal Free Energies=        -1032.148169

                     E (Thermal)             CV                S
                      KCal/Mol        Cal/Mol-Kelvin    Cal/Mol-Kelvin
 Total                  215.385             63.617            131.898
 Electronic               0.000              0.000              0.000
 Translational            0.889              2.981             42.317
 Rotational               0.889              2.981             32.951
 Vibrational            213.607             57.655             56.630
 Vibration     1          0.593              1.984              6.075
 Vibration     2          0.595              1.980              5.130
 Vibration     3          0.596              1.974              4.492
 Vibration     4          0.597              1.972              4.357
 Vibration     5          0.603              1.952              3.528
 Vibration     6          0.606              1.941              3.265
 Vibration     7          0.615              1.914              2.816
 Vibration     8          0.624              1.885              2.486
 Vibration     9          0.647              1.810              1.956
 Vibration    10          0.653              1.792              1.864
 Vibration    11          0.660              1.771              1.765
 Vibration    12          0.667              1.750              1.678
 Vibration    13          0.672              1.736              1.624
 Vibration    14          0.677              1.720              1.565
 Vibration    15          0.685              1.697              1.489
 Vibration    16          0.722              1.590              1.200
 Vibration    17          0.728              1.572              1.158
 Vibration    18          0.756              1.496              1.008
 Vibration    19          0.796              1.394              0.842
 Vibration    20          0.820              1.333              0.759
 Vibration    21          0.828              1.314              0.734
 Vibration    22          0.844              1.277              0.690
 Vibration    23          0.881              1.192              0.596
 Vibration    24          0.935              1.078              0.489
 Vibration    25          0.952              1.043              0.459
 Vibration    26          0.979              0.991              0.417

                           ! Non-Optimized Parameters !
 Normal termination of Gaussian 16 at Thu Dec 10 23:45:09 2020.

 ----------------------------------------------------------------------
 # B3LYP/6-311++G(d,p) empiricaldispersion=gd3bj scf=xqc pop=npa geom=c
 heck
 ----------------------------------------------------------------------

 ---------------------------------------
 CID_115090675_JID_6536_Energie_neutraal
 ---------------------------------------
 Structure from the checkpoint file:  "JID_6536.chk"
 Charge =  0 Multiplicity = 1

 SCF Done:  E(RB3LYP) =  -1032.63361496     A.U. after   15 cycles
 Normal termination of Gaussian 16 at Thu Dec 10 23:53:07 2020.

 ----------------------------------------------------------------------
 # B3LYP/6-311++G(d,p) empiricaldispersion=gd3bj scf=xqc pop=npa geom=c
 heck
 ----------------------------------------------------------------------

 -------------------------------------
 CID_115090675_JID_6536_Energie_kation
 -------------------------------------
 Structure from the checkpoint file:  "JID_6536.chk"
 Charge =  1 Multiplicity = 2

 SCF Done:  E(UB3LYP) =  -1032.34758421     A.U. after   29 cycles
 Normal termination of Gaussian 16 at Fri Dec 11 00:14:35 2020.
 Gaussian 16:  ES64L-G16RevA.03 25-Dec-2016

 ----------------------------------------------------------------------
 # B3LYP/6-311++G(d,p) empiricaldispersion=gd3bj scf=xqc pop=npa geom=c
 heck
 ----------------------------------------------------------------------

 ------------------------------------
 CID_115090675_JID_6536_Energie_anion
 ------------------------------------
 Structure from the checkpoint file:  "JID_6536.chk"
 Charge = -1 Multiplicity = 2

                         Standard orientation:
 ---------------------------------------------------------------------
 Center     Atomic      Atomic             Coordinates (Angstroms)
 Number     Number       Type             X           Y           Z
 ---------------------------------------------------------------------
      1          6           0        2.018283    2.805221    0.408716
      2          6           0        1.615456    1.875228   -0.745245
      3          7           0        1.994858    0.459604   -0.620252
      4          6           0        3.439941    0.264168   -0.763843
      5          6           0        3.801402   -1.217790   -0.843148
      6          6           0        3.298355   -1.946676    0.404516
      7          6           0        1.798460   -1.700248    0.570890
      8          6           0        1.470885   -0.193135    0.588942
      9          6           0       -0.012486    0.013233    0.711303
     10          7           0       -0.603253    0.530592    1.748021
     11          6           0       -1.972024    0.553069    1.583230
     12          6           0       -2.456301    0.058635    0.406923
     13         16           0       -1.112411   -0.477750   -0.579060
     14          6           0       -3.886519   -0.040790   -0.046300
     15          6           0       -4.119532    0.711502   -1.369320
     16          7           0       -4.305126   -1.454176   -0.072732
     17          1           0        1.500684    2.535607    1.334650
     18          1           0        1.743223    3.837349    0.163480
     19          1           0        3.097252    2.785115    0.596548
     20          1           0        0.530102    1.924259   -0.877874
     21          1           0        2.058404    2.233229   -1.682183
     22          1           0        4.003267    0.720528    0.073495
     23          1           0        3.754196    0.780828   -1.677823
     24          1           0        4.887695   -1.323990   -0.949847
     25          1           0        3.335836   -1.650737   -1.737610
     26          1           0        3.502288   -3.022180    0.342783
     27          1           0        3.833298   -1.570569    1.288345
     28          1           0        1.257251   -2.163825   -0.263000
     29          1           0        1.420155   -2.148718    1.496208
     30          1           0        1.903109    0.237902    1.509224
     31          1           0       -2.592284    0.954630    2.376978
     32          1           0       -4.486748    0.445258    0.733959
     33          1           0       -3.540987    0.255643   -2.181790
     34          1           0       -5.179848    0.675656   -1.646317
     35          1           0       -3.820238    1.762525   -1.289797
     36          1           0       -5.260699   -1.508829   -0.426156
     37          1           0       -3.728249   -1.962327   -0.743570
 ---------------------------------------------------------------------

 SCF Done:  E(UB3LYP) =  -1032.62159195     A.U. after   33 cycles
 SCF Done:  E(UB3LYP) =  -1032.62159195     a.u. after    1 cycles

 The electronic state is 2-A.
 Alpha  occ. eigenvalues --  -88.77351 -14.21385 -14.21200 -14.19677 -10.12949
 Alpha  occ. eigenvalues --  -10.11721 -10.11719 -10.10099 -10.09986 -10.09670
 Alpha  occ. eigenvalues --  -10.09626 -10.08113 -10.08012 -10.07671 -10.06429
 Alpha  occ. eigenvalues --  -10.06420  -7.86001  -5.82264  -5.81923  -5.81614
 Alpha  occ. eigenvalues --   -0.86524  -0.83619  -0.79631  -0.71565  -0.69834
 Alpha  occ. eigenvalues --   -0.68803  -0.64692  -0.64253  -0.62014  -0.56856
 Alpha  occ. eigenvalues --   -0.54837  -0.52895  -0.50995  -0.47273  -0.45846
 Alpha  occ. eigenvalues --   -0.44291  -0.41308  -0.39475  -0.38497  -0.36845
 Alpha  occ. eigenvalues --   -0.35898  -0.35289  -0.35151  -0.34002  -0.32892
 Alpha  occ. eigenvalues --   -0.32302  -0.31611  -0.31184  -0.29850  -0.29614
 Alpha  occ. eigenvalues --   -0.28907  -0.27888  -0.27557  -0.27193  -0.26124
 Alpha  occ. eigenvalues --   -0.24743  -0.24638  -0.24227  -0.23237  -0.22861
 Alpha  occ. eigenvalues --   -0.17965  -0.17607  -0.15070  -0.14123  -0.12795
 Alpha  occ. eigenvalues --    0.04161
 Alpha virt. eigenvalues --    0.05463   0.06198   0.06956   0.07488   0.07888
 Alpha virt. eigenvalues --    0.08191   0.08718   0.09345   0.09455   0.09996
 Alpha virt. eigenvalues --    0.10717   0.10870   0.11291   0.11378   0.12019

  Beta  occ. eigenvalues --  -88.77338 -14.21379 -14.21194 -14.19630 -10.12846
  Beta  occ. eigenvalues --  -10.11722 -10.11712 -10.10028 -10.09966 -10.09662
  Beta  occ. eigenvalues --  -10.09625 -10.08104 -10.08004 -10.07656 -10.06417
  Beta  occ. eigenvalues --  -10.06380  -7.85987  -5.82258  -5.81917  -5.81577
  Beta  occ. eigenvalues --   -0.86450  -0.83594  -0.79542  -0.71543  -0.69734
  Beta  occ. eigenvalues --   -0.68737  -0.64666  -0.64186  -0.61942  -0.56814
  Beta  occ. eigenvalues --   -0.54775  -0.52824  -0.50957  -0.47215  -0.45770
  Beta  occ. eigenvalues --   -0.44222  -0.41261  -0.39436  -0.38462  -0.36765
  Beta  occ. eigenvalues --   -0.35863  -0.35221  -0.35132  -0.33954  -0.32826
  Beta  occ. eigenvalues --   -0.32254  -0.31544  -0.31143  -0.29793  -0.29562
  Beta  occ. eigenvalues --   -0.28804  -0.27836  -0.27510  -0.27130  -0.26083
  Beta  occ. eigenvalues --   -0.24708  -0.24616  -0.24185  -0.23205  -0.22826
  Beta  occ. eigenvalues --   -0.17787  -0.17567  -0.15015  -0.13787  -0.12767
  Beta virt. eigenvalues --    0.06068   0.06648   0.06884   0.07354   0.07715
  Beta virt. eigenvalues --    0.08284   0.08496   0.09007   0.09552   0.09845
  Beta virt. eigenvalues --    0.10219   0.10910   0.10995   0.11402   0.11521

 Mulliken charges and spin densities:
               1          2
     1  C   -0.169829  -0.397380
     2  C   -0.097502   0.119322
     3  N    0.122493   0.112219
     4  C   -0.043578  -0.159961
     5  C    0.515853  -0.881734
     6  C   -0.450088   0.066293
     7  C    0.042754  -0.385377
     8  C   -0.315513  -0.038866
     9  C    0.232594  -0.241700
    10  N    0.087301   0.049665
    11  C    0.617903  -0.230774
    12  C    1.559308  -1.356012
    13  S   -0.131462  -0.184011
    14  C   -2.885484   2.074521
    15  C    0.927149  -1.542410
    16  N   -0.145232  -0.197036
    17  H    0.043359   0.129880
    18  H   -0.099028   0.236942
    19  H   -0.037564   0.170007
    20  H    0.067570   0.028182
    21  H   -0.055724   0.238094
    22  H    0.170518  -0.069687
    23  H   -0.307830   0.469736
    24  H   -0.494844   0.671196
    25  H    0.195694  -0.073160
    26  H    0.036562   0.129420
    27  H    0.076544   0.044090
    28  H    0.108140   0.005423
    29  H    0.175627   0.012512
    30  H    0.184765   0.026222
    31  H    0.058863   0.109105
    32  H   -0.103706   0.291437
    33  H   -0.150982   0.301404
    34  H   -0.754719   0.898474
    35  H    0.078647   0.066132
    36  H   -0.198961   0.439898
    37  H    0.140401   0.067936
 Sum of Mulliken charges =  -1.00000   1.00000

 Dipole moment (field-independent basis, Debye):
    X=              4.2686    Y=             -0.7721    Z=              2.0512  Tot=              4.7984
 Quadrupole moment (field-independent basis, Debye-Ang):
   XX=           -223.0947   YY=           -141.0649   ZZ=           -141.0415
   XY=             -8.4773   XZ=             -1.4690   YZ=              1.8384

 Summary of Natural Population Analysis:

                                       Natural Population
                Natural  -----------------------------------------------
    Atom  No    Charge         Core      Valence    Rydberg      Total
 -----------------------------------------------------------------------
      C    1   -0.30047      0.99966     2.29674    0.00407     3.30047
      C    2   -0.08700      0.99962     2.07617    0.01121     3.08700
      N    3   -0.28018      0.99971     2.76824    0.01223     3.78018
      C    4   -0.08447      0.99961     2.07236    0.01250     3.08447
      C    5   -0.19417      0.99963     2.18528    0.00927     3.19417
      C    6   -0.19009      0.99963     2.18196    0.00850     3.19009
      C    7   -0.18603      0.99961     2.17871    0.00772     3.18603
      C    8   -0.03034      0.99950     2.01772    0.01312     3.03034
      C    9    0.05802      0.99957     1.92338    0.01903     2.94198
      N   10   -0.24452      0.99964     2.73395    0.01092     3.74452
      C   11   -0.02352      0.99944     2.00970    0.01439     3.02352
      C   12   -0.09011      0.99947     2.07715    0.01349     3.09011
      S   13    0.18627      4.99937     2.79608    0.01827     7.81373
      C   14   -0.03124      0.99955     2.01798    0.01371     3.03124
      C   15   -0.28797      0.99965     2.28218    0.00614     3.28797
      N   16   -0.41500      0.99977     2.90453    0.01070     3.91500
      H   17    0.10424      0.00000     0.39458    0.00118     0.39576
      H   18    0.09945      0.00000     0.39951    0.00104     0.40055
      H   19    0.09522      0.00000     0.40380    0.00098     0.40478
      H   20    0.09940      0.00000     0.39921    0.00139     0.40060
      H   21    0.09312      0.00000     0.40579    0.00109     0.40688
      H   22    0.07915      0.00000     0.41921    0.00165     0.42085
      H   23    0.09916      0.00000     0.39934    0.00149     0.40084
      H   24    0.10012      0.00000     0.39869    0.00119     0.39988
      H   25    0.09638      0.00000     0.40230    0.00132     0.40362
      H   26    0.09807      0.00000     0.40113    0.00080     0.40193
      H   27    0.09368      0.00000     0.40516    0.00115     0.40632
      H   28    0.09966      0.00000     0.39891    0.00143     0.40034
      H   29    0.10266      0.00000     0.39655    0.00079     0.39734
      H   30    0.09668      0.00000     0.40087    0.00245     0.40332
      H   31    0.09856      0.00000     0.40024    0.00120     0.40144
      H   32    0.09683      0.00000     0.40099    0.00218     0.40317
      H   33    0.09834      0.00000     0.40034    0.00133     0.40166
      H   34    0.10039      0.00000     0.39765    0.00195     0.39961
      H   35    0.10156      0.00000     0.39723    0.00122     0.39844
      H   36    0.17686      0.00000     0.31993    0.00322     0.32314
      H   37    0.17128      0.00000     0.32692    0.00180     0.32872
 =======================================================================
   * Total *    0.00000     19.99343    44.79049    0.21609    65.00000

 Normal termination of Gaussian 16 at Fri Dec 11 00:39:26 2020.
