 Gaussian 16, Revision A.03,

 -----------------------------------------------------------
 # opt freq B3LYP/6-31G(d) empiricaldispersion=gd3bj scf=xqc
 -----------------------------------------------------------

 ------------------------------
 CID_61328218_JID_4481_neutraal
 ------------------------------
 Symbolic Z-matrix:
 Charge =  0 Multiplicity = 1

 SCF Done:  E(RB3LYP) =  -708.891261277     A.U. after   15 cycles
 SCF Done:  E(RB3LYP) =  -708.896034066     A.U. after   12 cycles
 SCF Done:  E(RB3LYP) =  -708.896489249     A.U. after   13 cycles
 SCF Done:  E(RB3LYP) =  -708.896642859     A.U. after   13 cycles
 SCF Done:  E(RB3LYP) =  -708.897198587     A.U. after   11 cycles
 SCF Done:  E(RB3LYP) =  -708.897332415     A.U. after   11 cycles
 SCF Done:  E(RB3LYP) =  -708.897284025     A.U. after   12 cycles
 SCF Done:  E(RB3LYP) =  -708.897816667     A.U. after   12 cycles
 SCF Done:  E(RB3LYP) =  -708.897996829     A.U. after   13 cycles
 SCF Done:  E(RB3LYP) =  -708.897349981     A.U. after   13 cycles
 SCF Done:  E(RB3LYP) =  -708.898656826     A.U. after   11 cycles
 SCF Done:  E(RB3LYP) =  -708.898666638     A.U. after   10 cycles
 SCF Done:  E(RB3LYP) =  -708.898670098     A.U. after    9 cycles
 SCF Done:  E(RB3LYP) =  -708.898671505     A.U. after    8 cycles
 SCF Done:  E(RB3LYP) =  -708.898671609     A.U. after    7 cycles
 SCF Done:  E(RB3LYP) =  -708.898671629     A.U. after    6 cycles
 Optimization completed.
    -- Stationary point found.
 Normal termination of Gaussian 16 at Thu Dec 10 10:07:38 2020.

 --------------------------------------------------------------------
 #N Geom=AllCheck Guess=TCheck SCRF=Check GenChk RB3LYP/6-31G(d) Freq
 --------------------------------------------------------------------

 Structure from the checkpoint file:  "JID_4481.chk"
 ------------------------------
 CID_61328218_JID_4481_neutraal
 ------------------------------
 Charge =  0 Multiplicity = 1

 SCF Done:  E(RB3LYP) =  -708.898671629     A.U. after    1 cycles

  Exact polarizability: 131.806  -0.713 108.857  -7.492   2.138  94.806
 Approx polarizability: 155.618  -4.991 162.041 -13.019  11.474 153.449

                      1                      2                      3
                      A                      A                      A
 Frequencies --     27.3871                31.4342                45.4862
 Red. masses --      5.4357                 4.5347                 4.4929
 Frc consts  --      0.0024                 0.0026                 0.0055
 IR Inten    --      0.6500                 0.4114                 1.8560

                      4                      5                      6
                      A                      A                      A
 Frequencies --     49.2767                63.9964                81.3527
 Red. masses --      4.7273                 3.1889                 3.5662
 Frc consts  --      0.0068                 0.0077                 0.0139
 IR Inten    --      0.9613                 3.1108                 1.6439

                      7                      8                      9
                      A                      A                      A
 Frequencies --    125.8494               133.1073               162.9396
 Red. masses --      1.8443                 2.5125                 4.4970
 Frc consts  --      0.0172                 0.0262                 0.0703
 IR Inten    --      1.6457                 4.8260                 0.5821

                     10                     11                     12
                      A                      A                      A
 Frequencies --    167.8479               227.2614               246.8426
 Red. masses --      2.0334                 1.0516                 1.1222
 Frc consts  --      0.0338                 0.0320                 0.0403
 IR Inten    --      1.4768                 0.1326                 0.3673

                     13                     14                     15
                      A                      A                      A
 Frequencies --    281.7299               299.0410               310.6602
 Red. masses --      2.9084                 5.5650                 3.1880
 Frc consts  --      0.1360                 0.2932                 0.1813
 IR Inten    --      3.7688                 4.2153                 1.8547

                     16                     17                     18
                      A                      A                      A
 Frequencies --    354.4277               396.6655               403.0160
 Red. masses --      2.4758                 2.8299                 2.4364
 Frc consts  --      0.1832                 0.2623                 0.2332
 IR Inten    --      8.4928                 9.1202                 1.6321

                     19                     20                     21
                      A                      A                      A
 Frequencies --    415.1453               441.4649               500.9813
 Red. masses --      2.7547                 1.7471                 2.7376
 Frc consts  --      0.2797                 0.2006                 0.4048
 IR Inten    --      1.1975                 2.0395                 8.5385

                     22                     23                     24
                      A                      A                      A
 Frequencies --    521.9588               531.6292               587.0045
 Red. masses --      3.0644                 3.6563                 4.2608
 Frc consts  --      0.4919                 0.6088                 0.8650
 IR Inten    --      8.7127                16.1146                18.2236

                     25                     26                     27
                      A                      A                      A
 Frequencies --    612.6373               698.6947               732.1496
 Red. masses --      3.9519                 1.4875                 6.4525
 Frc consts  --      0.8739                 0.4278                 2.0379
 IR Inten    --     81.9583               104.3914                15.9374

                     28                     29                     30
                      A                      A                      A
 Frequencies --    786.5119               828.8214               850.0919
 Red. masses --      3.7483                 2.7321                 4.5213
 Frc consts  --      1.3661                 1.1058                 1.9250
 IR Inten    --     17.6263                 2.6199                 5.6618

                     31                     32                     33
                      A                      A                      A
 Frequencies --    902.7103               945.0422               958.0575
 Red. masses --      1.5634                 1.2201                 2.1869
 Frc consts  --      0.7506                 0.6420                 1.1827
 IR Inten    --      7.8593                 1.6948                 2.7765

                     34                     35                     36
                      A                      A                      A
 Frequencies --    964.9153               980.9738              1006.1189
 Red. masses --      2.9798                 1.4918                 2.1949
 Frc consts  --      1.6346                 0.8458                 1.3091
 IR Inten    --     12.4009                 2.8681                13.8411

                     37                     38                     39
                      A                      A                      A
 Frequencies --   1035.2003              1071.1158              1128.6176
 Red. masses --      2.2152                 2.0295                 1.6356
 Frc consts  --      1.3987                 1.3719                 1.2275
 IR Inten    --     24.7777                37.2798                28.4881

                     40                     41                     42
                      A                      A                      A
 Frequencies --   1148.8277              1152.6835              1167.3519
 Red. masses --      3.0799                 2.0463                 1.5863
 Frc consts  --      2.3949                 1.6019                 1.2736
 IR Inten    --    113.9306                49.8704                 3.9262

                     43                     44                     45
                      A                      A                      A
 Frequencies --   1201.2663              1207.5624              1215.3967
 Red. masses --      2.1486                 1.8627                 2.2566
 Frc consts  --      1.8268                 1.6004                 1.9640
 IR Inten    --    167.2099                42.6470                39.5780

                     46                     47                     48
                      A                      A                      A
 Frequencies --   1259.2001              1288.2355              1328.9730
 Red. masses --      2.6100                 1.2458                 1.4783
 Frc consts  --      2.4382                 1.2181                 1.5384
 IR Inten    --      9.6117                13.8648                43.9443

                     49                     50                     51
                      A                      A                      A
 Frequencies --   1338.4361              1350.4021              1380.8036
 Red. masses --      1.2940                 1.2967                 1.3736
 Frc consts  --      1.3657                 1.3932                 1.5430
 IR Inten    --     25.0136                 1.2201                14.7547

                     52                     53                     54
                      A                      A                      A
 Frequencies --   1390.7423              1400.2303              1410.6066
 Red. masses --      1.4120                 2.2186                 1.3415
 Frc consts  --      1.6090                 2.5629                 1.5728
 IR Inten    --      2.3892                46.2303                15.7368

                     55                     56                     57
                      A                      A                      A
 Frequencies --   1420.9983              1430.4824              1450.4148
 Red. masses --      1.3493                 1.2788                 1.2319
 Frc consts  --      1.6053                 1.5417                 1.5269
 IR Inten    --      0.5883                 3.0551                 3.8792

                     58                     59                     60
                      A                      A                      A
 Frequencies --   1465.1495              1492.0363              1496.2137
 Red. masses --      1.9162                 1.1491                 1.1493
 Frc consts  --      2.4236                 1.5072                 1.5158
 IR Inten    --     64.4778                16.0539                 4.3817

                     61                     62                     63
                      A                      A                      A
 Frequencies --   1506.6032              1519.2938              1522.2025
 Red. masses --      1.1403                 1.0510                 1.0568
 Frc consts  --      1.5250                 1.4293                 1.4427
 IR Inten    --      7.7829                 5.1122                 5.4208

                     64                     65                     66
                      A                      A                      A
 Frequencies --   1523.8925              1534.0743              1541.5828
 Red. masses --      1.0963                 1.0531                 1.0507
 Frc consts  --      1.5000                 1.4602                 1.4712
 IR Inten    --     16.2622                 6.4812                13.0158

                     67                     68                     69
                      A                      A                      A
 Frequencies --   1546.1431              1551.8471              1751.5211
 Red. masses --      1.1169                 1.1453                 9.4774
 Frc consts  --      1.5731                 1.6251                17.1305
 IR Inten    --     10.9806                18.1088               241.1983

                     70                     71                     72
                      A                      A                      A
 Frequencies --   1852.1622              3010.6124              3027.9804
 Red. masses --     10.0918                 1.0827                 1.0522
 Frc consts  --     20.3974                 5.7819                 5.6841
 IR Inten    --    272.8748                23.7262                43.7901

                     73                     74                     75
                      A                      A                      A
 Frequencies --   3037.6661              3042.6895              3052.2971
 Red. masses --      1.0614                 1.0427                 1.0623
 Frc consts  --      5.7703                 5.6875                 5.8314
 IR Inten    --     40.2658                65.6830                 9.6838

                     76                     77                     78
                      A                      A                      A
 Frequencies --   3054.6635              3085.3316              3104.9381
 Red. masses --      1.0376                 1.0581                 1.0992
 Frc consts  --      5.7043                 5.9342                 6.2433
 IR Inten    --     19.2108                22.9073                21.6194

                     79                     80                     81
                      A                      A                      A
 Frequencies --   3106.0862              3115.3267              3117.1586
 Red. masses --      1.0936                 1.1022                 1.0989
 Frc consts  --      6.2161                 6.3026                 6.2913
 IR Inten    --     32.4022                13.6517                 7.2155

                     82                     83                     84
                      A                      A                      A
 Frequencies --   3120.9325              3129.1551              3140.1132
 Red. masses --      1.1017                 1.1017                 1.1054
 Frc consts  --      6.3221                 6.3557                 6.4218
 IR Inten    --     58.9217                25.2105                 5.9694

                     85                     86                     87
                      A                      A                      A
 Frequencies --   3140.8724              3193.3236              3680.2372
 Red. masses --      1.0982                 1.0970                 1.0640
 Frc consts  --      6.3829                 6.5907                 8.4909
 IR Inten    --     18.3463                 1.3188                57.6970

 - Thermochemistry -
 -------------------
 Temperature   298.150 Kelvin.  Pressure   1.00000 Atm.
 Atom     1 has atomic number  6 and mass  12.00000

 Molecular mass:   203.11576 amu.
 Principal axes and moments of inertia in atomic units:
                           1         2         3
     Eigenvalues --  1483.038565342.548285922.21002
           X            0.99983   0.01745  -0.00520
           Y           -0.01740   0.99980   0.00956
           Z            0.00536  -0.00946   0.99994
 This molecule is an asymmetric top.
 Rotational symmetry number  1.
 Warning -- assumption of classical behavior for rotation
           may cause significant error
 Rotational temperatures (Kelvin)      0.05840     0.01621     0.01463
 Rotational constants (GHZ):           1.21692     0.33781     0.30474
 Zero-point vibrational energy     699294.3 (Joules/Mol)
                                  167.13536 (Kcal/Mol)
 Warning -- explicit consideration of  25 degrees of freedom as
           vibrations may cause significant error
 Vibrational temperatures:     39.40    45.23    65.44    70.90    92.08
          (Kelvin)            117.05   181.07   191.51   234.43   241.50
                              326.98   355.15   405.35   430.25   446.97
                              509.94   570.71   579.85   597.30   635.17
                              720.80   750.98   764.90   844.57   881.45
                             1005.27  1053.40  1131.62  1192.49  1223.09
                             1298.80  1359.70  1378.43  1388.30  1411.40
                             1447.58  1489.42  1541.10  1623.83  1652.91
                             1658.45  1679.56  1728.35  1737.41  1748.68
                             1811.71  1853.48  1912.10  1925.71  1942.93
                             1986.67  2000.97  2014.62  2029.55  2044.50
                             2058.15  2086.82  2108.02  2146.71  2152.72
                             2167.67  2185.92  2190.11  2192.54  2207.19
                             2217.99  2224.56  2232.76  2520.05  2664.85
                             4331.60  4356.59  4370.52  4377.75  4391.57
                             4394.98  4439.10  4467.31  4468.97  4482.26
                             4484.90  4490.33  4502.16  4517.92  4519.01
                             4594.48  5295.04

 Zero-point correction=                           0.266347 (Hartree/Particle)
 Thermal correction to Energy=                    0.282605
 Thermal correction to Enthalpy=                  0.283549
 Thermal correction to Gibbs Free Energy=         0.220406
 Sum of electronic and zero-point Energies=           -708.632324
 Sum of electronic and thermal Energies=              -708.616067
 Sum of electronic and thermal Enthalpies=            -708.615123
 Sum of electronic and thermal Free Energies=         -708.678265

                     E (Thermal)             CV                S
                      KCal/Mol        Cal/Mol-Kelvin    Cal/Mol-Kelvin
 Total                  177.337             57.521            132.895
 Electronic               0.000              0.000              0.000
 Translational            0.889              2.981             41.830
 Rotational               0.889              2.981             32.217
 Vibrational            175.560             51.560             58.847
 Vibration     1          0.593              1.984              6.010
 Vibration     2          0.594              1.983              5.737
 Vibration     3          0.595              1.979              5.005
 Vibration     4          0.595              1.978              4.846
 Vibration     5          0.597              1.971              4.330
 Vibration     6          0.600              1.962              3.858
 Vibration     7          0.611              1.927              3.009
 Vibration     8          0.613              1.920              2.901
 Vibration     9          0.623              1.888              2.515
 Vibration    10          0.625              1.882              2.459
 Vibration    11          0.651              1.799              1.900
 Vibration    12          0.661              1.768              1.753
 Vibration    13          0.681              1.707              1.523
 Vibration    14          0.692              1.675              1.422
 Vibration    15          0.700              1.653              1.359
 Vibration    16          0.730              1.566              1.146
 Vibration    17          0.763              1.477              0.975
 Vibration    18          0.768              1.464              0.952
 Vibration    19          0.779              1.437              0.909
 Vibration    20          0.801              1.380              0.822
 Vibration    21          0.856              1.248              0.656
 Vibration    22          0.877              1.201              0.605
 Vibration    23          0.887              1.180              0.584
 Vibration    24          0.944              1.060              0.473
 Vibration    25          0.972              1.005              0.428

 Optimization completed.
    -- Stationary point found.
 Normal termination of Gaussian 16 at Thu Dec 10 10:16:18 2020.

 ----------------------------------------------------------------------
 # B3LYP/6-311++G(d,p) empiricaldispersion=gd3bj scf=xqc pop=npa geom=c
 heck
 ----------------------------------------------------------------------

 --------------------------------------
 CID_61328218_JID_4481_Energie_neutraal
 --------------------------------------
 Structure from the checkpoint file:  "JID_4481.chk"
 Charge =  0 Multiplicity = 1

 SCF Done:  E(RB3LYP) =  -709.118488140     A.U. after   14 cycles
 Normal termination of Gaussian 16 at Thu Dec 10 10:19:36 2020.

 ----------------------------------------------------------------------
 # B3LYP/6-311++G(d,p) empiricaldispersion=gd3bj scf=xqc pop=npa geom=c
 heck
 ----------------------------------------------------------------------

 ------------------------------------
 CID_61328218_JID_4481_Energie_kation
 ------------------------------------
 Structure from the checkpoint file:  "JID_4481.chk"
 Charge =  1 Multiplicity = 2

 SCF Done:  E(UB3LYP) =  -708.797236696     A.U. after   26 cycles
 Normal termination of Gaussian 16 at Thu Dec 10 10:27:34 2020.
 Gaussian 16:  ES64L-G16RevA.03 25-Dec-2016

 ----------------------------------------------------------------------
 # B3LYP/6-311++G(d,p) empiricaldispersion=gd3bj scf=xqc pop=npa geom=c
 heck
 ----------------------------------------------------------------------

 -----------------------------------
 CID_61328218_JID_4481_Energie_anion
 -----------------------------------
 Structure from the checkpoint file:  "JID_4481.chk"
 Charge = -1 Multiplicity = 2

                         Standard orientation:
 ---------------------------------------------------------------------
 Center     Atomic      Atomic             Coordinates (Angstroms)
 Number     Number       Type             X           Y           Z
 ---------------------------------------------------------------------
      1          6           0        2.025695    1.815439   -0.361584
      2          6           0        3.040969    0.669327   -0.407861
      3          6           0        4.420222    1.120431    0.086942
      4          6           0        2.573467   -0.534278    0.428882
      5          7           0        1.266350   -1.061044    0.039510
      6          6           0        1.228742   -1.926546   -1.131571
      7          6           0        0.190669   -0.808004    0.843614
      8          8           0        0.258086   -0.100977    1.848206
      9          6           0       -1.160067   -1.418415    0.440518
     10          8           0       -1.645228   -0.916169   -0.803838
     11          6           0       -1.956566    0.458225   -0.782026
     12          6           0       -3.295984    0.822351   -0.151481
     13          8           0       -3.694502    1.961835   -0.074886
     14          8           0       -3.990702   -0.244266    0.298347
     15          1           0        1.841841    2.133083    0.670565
     16          1           0        1.066329    1.508963   -0.790375
     17          1           0        2.387273    2.679228   -0.930722
     18          1           0        3.146897    0.345850   -1.454388
     19          1           0        4.364651    1.467332    1.126293
     20          1           0        5.150917    0.303782    0.044418
     21          1           0        4.803966    1.947232   -0.520477
     22          1           0        3.306004   -1.348815    0.348076
     23          1           0        2.499861   -0.243735    1.478845
     24          1           0        0.221453   -1.976312   -1.540583
     25          1           0        1.879568   -1.509594   -1.906242
     26          1           0        1.586941   -2.938704   -0.895574
     27          1           0       -1.092257   -2.502732    0.313729
     28          1           0       -1.856468   -1.200103    1.254355
     29          1           0       -1.191177    1.055014   -0.267817
     30          1           0       -1.991641    0.794676   -1.822868
     31          1           0       -4.812719    0.117570    0.680961
 ---------------------------------------------------------------------

 SCF Done:  E(UB3LYP) =  -709.108261994     A.U. after   32 cycles

 The electronic state is 2-A.
 Alpha  occ. eigenvalues --  -19.08498 -19.05383 -19.03001 -18.99670 -14.25279
 Alpha  occ. eigenvalues --  -10.22110 -10.17784 -10.14844 -10.13577 -10.10510
 Alpha  occ. eigenvalues --  -10.10421 -10.08437 -10.07062 -10.06326  -1.02718
 Alpha  occ. eigenvalues --   -0.96844  -0.94343  -0.93735  -0.84558  -0.71446
 Alpha  occ. eigenvalues --   -0.67712  -0.62349  -0.61959  -0.59499  -0.58117
 Alpha  occ. eigenvalues --   -0.52976  -0.48554  -0.45415  -0.44277  -0.42388
 Alpha  occ. eigenvalues --   -0.41092  -0.39270  -0.38850  -0.38027  -0.37984
 Alpha  occ. eigenvalues --   -0.35752  -0.34820  -0.33611  -0.32737  -0.31905
 Alpha  occ. eigenvalues --   -0.31181  -0.30696  -0.29894  -0.29041  -0.28927
 Alpha  occ. eigenvalues --   -0.27878  -0.25828  -0.25199  -0.24655  -0.23898
 Alpha  occ. eigenvalues --   -0.23782  -0.22422  -0.18638  -0.15877  -0.15264
 Alpha  occ. eigenvalues --    0.04009
 Alpha virt. eigenvalues --    0.05541   0.06805   0.07262   0.08057   0.08396
 Alpha virt. eigenvalues --    0.08599   0.09294   0.10230   0.10378   0.10620
 Alpha virt. eigenvalues --    0.11739   0.12077   0.12543   0.12877   0.13479

  Beta  occ. eigenvalues --  -19.08446 -19.05379 -19.02988 -18.99668 -14.25275
  Beta  occ. eigenvalues --  -10.22103 -10.17783 -10.14820 -10.13563 -10.10495
  Beta  occ. eigenvalues --  -10.10373 -10.08421 -10.07039 -10.06312  -1.02647
  Beta  occ. eigenvalues --   -0.96835  -0.94339  -0.93679  -0.84544  -0.71415
  Beta  occ. eigenvalues --   -0.67669  -0.62303  -0.61898  -0.59460  -0.58069
  Beta  occ. eigenvalues --   -0.52881  -0.48506  -0.45367  -0.44244  -0.42353
  Beta  occ. eigenvalues --   -0.41059  -0.39228  -0.38811  -0.37993  -0.37939
  Beta  occ. eigenvalues --   -0.35712  -0.34791  -0.33580  -0.32702  -0.31861
  Beta  occ. eigenvalues --   -0.31143  -0.30659  -0.29873  -0.29017  -0.28902
  Beta  occ. eigenvalues --   -0.27859  -0.25803  -0.25172  -0.24623  -0.23859
  Beta  occ. eigenvalues --   -0.23740  -0.22396  -0.18601  -0.15864  -0.15242
  Beta virt. eigenvalues --    0.06308   0.06866   0.07581   0.07816   0.08306
  Beta virt. eigenvalues --    0.08656   0.09046   0.09692   0.10538   0.10639
  Beta virt. eigenvalues --    0.11005   0.11837   0.12281   0.12864   0.13006

 Mulliken charges and spin densities:
               1          2
     1  C    0.101864  -0.599965
     2  C   -0.082975   0.658597
     3  C    0.189149  -0.894957
     4  C   -0.483152  -0.219209
     5  N    0.053906   0.213753
     6  C    1.238411  -1.539363
     7  C   -0.366712   0.351658
     8  O   -0.264885   0.008611
     9  C   -0.050351  -0.720873
    10  O    0.013804   0.000040
    11  C    0.385933  -0.594533
    12  C   -0.039547   0.054172
    13  O   -0.278026   0.006380
    14  O   -0.162676  -0.016857
    15  H    0.126190   0.034800
    16  H   -0.063675   0.192452
    17  H   -0.017381   0.160940
    18  H   -0.141034   0.294167
    19  H    0.112299   0.011405
    20  H   -0.258086   0.395624
    21  H   -0.147026   0.286329
    22  H    0.032833   0.137772
    23  H    0.072857   0.141652
    24  H    0.112924   0.087724
    25  H   -0.357066   0.519509
    26  H   -0.542348   0.707426
    27  H   -0.088924   0.275625
    28  H    0.090286   0.128012
    29  H    0.363720  -0.148998
    30  H   -0.209253   0.433154
    31  H   -0.341057   0.634956
 Sum of Mulliken charges =  -1.00000   1.00000

 Dipole moment (field-independent basis, Debye):
    X=              0.5114    Y=              1.0278    Z=              1.5274  Tot=              1.9107
 Quadrupole moment (field-independent basis, Debye-Ang):
   XX=           -173.3372   YY=           -127.8725   ZZ=           -121.4878
   XY=              8.1545   XZ=             10.4062   YZ=             -3.3898

 Summary of Natural Population Analysis:

                                       Natural Population
                Natural  -----------------------------------------------
    Atom  No    Charge         Core      Valence    Rydberg      Total
 -----------------------------------------------------------------------
      C    1   -0.28544      0.99965     2.27931    0.00649     3.28544
      C    2   -0.11879      0.99961     2.11002    0.00916     3.11879
      C    3   -0.28384      0.99965     2.27778    0.00640     3.28384
      C    4   -0.08480      0.99958     2.07331    0.01191     3.08480
      N    5   -0.25134      0.99964     2.73871    0.01299     3.75134
      C    6   -0.17934      0.99962     2.17157    0.00815     3.17934
      C    7    0.32453      0.99963     1.65274    0.02311     2.67547
      O    8   -0.32670      0.99988     3.32168    0.00513     4.32670
      C    9   -0.05038      0.99954     2.03881    0.01203     3.05038
      O   10   -0.29078      0.99989     3.28109    0.00980     4.29078
      C   11   -0.06283      0.99953     2.04960    0.01370     3.06283
      C   12    0.39427      0.99974     1.58161    0.02438     2.60573
      O   13   -0.30642      0.99987     3.30024    0.00631     4.30642
      O   14   -0.33874      0.99988     3.33108    0.00779     4.33874
      H   15    0.10144      0.00000     0.39779    0.00078     0.39856
      H   16    0.09973      0.00000     0.39903    0.00124     0.40027
      H   17    0.09805      0.00000     0.40122    0.00073     0.40195
      H   18    0.09460      0.00000     0.40268    0.00272     0.40540
      H   19    0.09516      0.00000     0.40398    0.00086     0.40484
      H   20    0.10060      0.00000     0.39841    0.00099     0.39940
      H   21    0.10040      0.00000     0.39879    0.00081     0.39960
      H   22    0.09732      0.00000     0.40154    0.00114     0.40268
      H   23    0.11112      0.00000     0.38757    0.00131     0.38888
      H   24    0.11102      0.00000     0.38702    0.00197     0.38898
      H   25    0.10093      0.00000     0.39689    0.00218     0.39907
      H   26    0.09398      0.00000     0.40411    0.00191     0.40602
      H   27    0.10007      0.00000     0.39859    0.00135     0.39993
      H   28    0.09975      0.00000     0.39863    0.00162     0.40025
      H   29    0.10279      0.00000     0.39574    0.00146     0.39721
      H   30    0.10911      0.00000     0.38968    0.00121     0.39089
      H   31    0.24453      0.00000     0.24165    0.01381     0.25547
 =======================================================================
   * Total *    0.00000     13.99570    40.81087    0.19343    55.00000

 Normal termination of Gaussian 16 at Thu Dec 10 10:37:06 2020.
