 Gaussian 16, Revision A.03,

 -----------------------------------------------------------
 # opt freq B3LYP/6-31G(d) empiricaldispersion=gd3bj scf=xqc
 -----------------------------------------------------------

 -------------------------------
 CID_140189980_JID_5708_neutraal
 -------------------------------
 Symbolic Z-matrix:
 Charge =  0 Multiplicity = 1

 SCF Done:  E(RB3LYP) =  -1046.46532082     A.U. after   15 cycles
 SCF Done:  E(RB3LYP) =  -1046.46950102     A.U. after   12 cycles
 SCF Done:  E(RB3LYP) =  -1046.46991628     A.U. after   12 cycles
 SCF Done:  E(RB3LYP) =  -1046.47000508     A.U. after   11 cycles
 SCF Done:  E(RB3LYP) =  -1046.47013122     A.U. after   12 cycles
 SCF Done:  E(RB3LYP) =  -1046.47028085     A.U. after   12 cycles
 SCF Done:  E(RB3LYP) =  -1046.46890772     A.U. after   15 cycles
 SCF Done:  E(RB3LYP) =  -1046.47061942     A.U. after   12 cycles
 SCF Done:  E(RB3LYP) =  -1046.47060024     A.U. after   12 cycles
 SCF Done:  E(RB3LYP) =  -1046.47093197     A.U. after   12 cycles
 SCF Done:  E(RB3LYP) =  -1046.47104280     A.U. after    9 cycles
 SCF Done:  E(RB3LYP) =  -1046.47104296     A.U. after    8 cycles
 SCF Done:  E(RB3LYP) =  -1046.47104289     A.U. after    8 cycles
 SCF Done:  E(RB3LYP) =  -1046.47104284     A.U. after    7 cycles
 SCF Done:  E(RB3LYP) =  -1046.47104280     A.U. after    7 cycles
 Optimization completed.
    -- Stationary point found.
 Normal termination of Gaussian 16 at Thu Dec 10 16:41:01 2020.

 --------------------------------------------------------------------
 #N Geom=AllCheck Guess=TCheck SCRF=Check GenChk RB3LYP/6-31G(d) Freq
 --------------------------------------------------------------------

 Structure from the checkpoint file:  "JID_5708.chk"
 -------------------------------
 CID_140189980_JID_5708_neutraal
 -------------------------------
 Charge =  0 Multiplicity = 1

 SCF Done:  E(RB3LYP) =  -1046.47104280     A.U. after    1 cycles

  Exact polarizability: 186.270 -11.778 105.943   1.234   9.733 121.830
 Approx polarizability: 250.727 -16.388 157.692   2.797  21.642 215.786

                      1                      2                      3
                      A                      A                      A
 Frequencies --     16.2991                31.8118                45.6496
 Red. masses --      4.2041                 4.2853                 6.2455
 Frc consts  --      0.0007                 0.0026                 0.0077
 IR Inten    --      2.8605                 0.1963                 0.1793

                      4                      5                      6
                      A                      A                      A
 Frequencies --     66.4962                92.2223               131.5192
 Red. masses --      7.2046                 6.8426                 4.1809
 Frc consts  --      0.0188                 0.0343                 0.0426
 IR Inten    --      0.1685                 0.2636                 0.8235

                      7                      8                      9
                      A                      A                      A
 Frequencies --    163.2007               205.2728               215.1292
 Red. masses --      4.2707                 2.5649                 3.1635
 Frc consts  --      0.0670                 0.0637                 0.0863
 IR Inten    --      0.0670                 0.4072                 0.5092

                     10                     11                     12
                      A                      A                      A
 Frequencies --    243.1980               269.1144               311.0651
 Red. masses --      1.3081                 4.8322                 2.9147
 Frc consts  --      0.0456                 0.2062                 0.1662
 IR Inten    --      0.1012                 0.0812                 0.2542

                     13                     14                     15
                      A                      A                      A
 Frequencies --    354.9356               370.5710               411.4252
 Red. masses --      4.2062                 5.7396                 3.8699
 Frc consts  --      0.3122                 0.4644                 0.3859
 IR Inten    --      0.9112                 0.7817                 6.0432

                     16                     17                     18
                      A                      A                      A
 Frequencies --    422.3831               488.1116               514.1625
 Red. masses --      4.5945                 6.1574                 4.3540
 Frc consts  --      0.4829                 0.8643                 0.6782
 IR Inten    --      7.4886                 8.0233                13.7992

                     19                     20                     21
                      A                      A                      A
 Frequencies --    540.2751               561.5844               593.5955
 Red. masses --      1.8819                 1.6917                 1.8661
 Frc consts  --      0.3236                 0.3143                 0.3874
 IR Inten    --      9.4810                19.3944                91.3296

                     22                     23                     24
                      A                      A                      A
 Frequencies --    613.0204               653.6270               680.4854
 Red. masses --      1.8978                 7.8626                 2.6837
 Frc consts  --      0.4202                 1.9791                 0.7322
 IR Inten    --     92.5225                 3.1645                50.7558

                     25                     26                     27
                      A                      A                      A
 Frequencies --    726.4215               772.1128               773.4095
 Red. masses --      6.0508                 3.5230                 6.1711
 Frc consts  --      1.8812                 1.2374                 2.1748
 IR Inten    --      0.5463                36.6905                45.2498

                     28                     29                     30
                      A                      A                      A
 Frequencies --    787.9011               800.2562               850.5320
 Red. masses --      1.7963                 2.2845                 1.5847
 Frc consts  --      0.6570                 0.8620                 0.6754
 IR Inten    --      0.4154                 4.8513                12.7204

                     31                     32                     33
                      A                      A                      A
 Frequencies --    894.5622               938.7921               952.9580
 Red. masses --      2.7508                 1.3983                 3.2029
 Frc consts  --      1.2970                 0.7261                 1.7137
 IR Inten    --      3.6406                 0.7236                11.4268

                     34                     35                     36
                      A                      A                      A
 Frequencies --    961.4300               972.6378               992.2324
 Red. masses --      1.4900                 1.3725                 1.1905
 Frc consts  --      0.8115                 0.7650                 0.6905
 IR Inten    --      1.7663                 3.2383                 5.3504

                     37                     38                     39
                      A                      A                      A
 Frequencies --    994.0648              1003.8412              1040.0080
 Red. masses --      3.1950                 1.3406                 4.0012
 Frc consts  --      1.8601                 0.7959                 2.5498
 IR Inten    --     13.8557                 5.5177                27.9228

                     40                     41                     42
                      A                      A                      A
 Frequencies --   1059.4242              1078.4278              1091.3654
 Red. masses --      1.6921                 1.9653                 1.3805
 Frc consts  --      1.1190                 1.3467                 0.9688
 IR Inten    --      1.9282                10.6130                 0.2200

                     43                     44                     45
                      A                      A                      A
 Frequencies --   1122.2121              1167.7474              1181.6133
 Red. masses --      4.5440                 1.9317                 1.4525
 Frc consts  --      3.3716                 1.5520                 1.1948
 IR Inten    --     30.8545                48.0961                20.7651

                     46                     47                     48
                      A                      A                      A
 Frequencies --   1200.9894              1230.0506              1288.9258
 Red. masses --      1.3008                 1.6254                 6.9532
 Frc consts  --      1.1054                 1.4490                 6.8059
 IR Inten    --      4.7449               215.4005                16.5339

                     49                     50                     51
                      A                      A                      A
 Frequencies --   1330.7089              1338.0655              1382.0474
 Red. masses --      3.1252                 1.4928                 2.6311
 Frc consts  --      3.2606                 1.5747                 2.9610
 IR Inten    --     24.6111                 4.0018                 7.5172

                     52                     53                     54
                      A                      A                      A
 Frequencies --   1387.8067              1419.1270              1452.9004
 Red. masses --      1.2967                 2.4781                 2.5399
 Frc consts  --      1.4715                 2.9405                 3.1589
 IR Inten    --      4.4719                22.7226                93.7416

                     55                     56                     57
                      A                      A                      A
 Frequencies --   1464.7541              1486.4095              1500.0018
 Red. masses --      1.8407                 1.1159                 1.0514
 Frc consts  --      2.3268                 1.4527                 1.3938
 IR Inten    --     58.5704                 1.1000                 9.5431

                     58                     59                     60
                      A                      A                      A
 Frequencies --   1516.3948              1520.1050              1528.9987
 Red. masses --      1.1102                 1.8508                 1.5926
 Frc consts  --      1.5041                 2.5198                 2.1937
 IR Inten    --     38.5151                25.6694                 3.8308

                     61                     62                     63
                      A                      A                      A
 Frequencies --   1606.7314              1636.6351              1851.5018
 Red. masses --      5.4726                 5.9943                 7.8119
 Frc consts  --      8.3239                 9.4600                15.7782
 IR Inten    --     22.6681                 1.4104               597.1370

                     64                     65                     66
                      A                      A                      A
 Frequencies --   3065.4626              3148.6255              3159.9993
 Red. masses --      1.0303                 1.1083                 1.0528
 Frc consts  --      5.7044                 6.4736                 6.1941
 IR Inten    --     18.8996                 8.6459                 9.1374

                     67                     68                     69
                      A                      A                      A
 Frequencies --   3163.1582              3163.5774              3167.1491
 Red. masses --      1.0918                 1.1021                 1.0573
 Frc consts  --      6.4361                 6.4989                 6.2489
 IR Inten    --     22.7769                 0.4146                 4.8581

                     70                     71                     72
                      A                      A                      A
 Frequencies --   3214.8215              3229.6408              3241.9465
 Red. masses --      1.0874                 1.0944                 1.1200
 Frc consts  --      6.6212                 6.7256                 6.9354
 IR Inten    --      7.4709                 7.2684                 1.1281

                     73                     74                     75
                      A                      A                      A
 Frequencies --   3255.7338              3604.0895              3732.6789
 Red. masses --      1.1165                 1.0759                 1.0645
 Frc consts  --      6.9727                 8.2344                 8.7388
 IR Inten    --     14.5514                31.1031                72.0827

 - Thermochemistry -
 -------------------
 Temperature   298.150 Kelvin.  Pressure   1.00000 Atm.
 Atom     1 has atomic number  6 and mass  12.00000

 Molecular mass:   224.06195 amu.
 Principal axes and moments of inertia in atomic units:
                           1         2         3
     Eigenvalues --  1714.029106699.453937138.35541
           X            0.99980  -0.01855  -0.00754
           Y            0.01885   0.99889   0.04324
           Z            0.00673  -0.04337   0.99904
 This molecule is an asymmetric top.
 Rotational symmetry number  1.
 Warning -- assumption of classical behavior for rotation
           may cause significant error
 Rotational temperatures (Kelvin)      0.05053     0.01293     0.01213
 Rotational constants (GHZ):           1.05292     0.26939     0.25282
 Zero-point vibrational energy     558932.0 (Joules/Mol)
                                  133.58797 (Kcal/Mol)
 Warning -- explicit consideration of  22 degrees of freedom as
           vibrations may cause significant error
 Vibrational temperatures:     23.45    45.77    65.68    95.67   132.69
          (Kelvin)            189.23   234.81   295.34   309.52   349.91
                              387.20   447.55   510.67   533.17   591.95
                              607.72   702.28   739.77   777.34   807.99
                              854.05   882.00   940.42   979.07  1045.16
                             1110.90  1112.76  1133.61  1151.39  1223.73
                             1287.08  1350.71  1371.09  1383.28  1399.41
                             1427.60  1430.24  1444.30  1496.34  1524.28
                             1551.62  1570.23  1614.61  1680.13  1700.08
                             1727.96  1769.77  1854.48  1914.59  1925.18
                             1988.46  1996.74  2041.81  2090.40  2107.45
                             2138.61  2158.17  2181.75  2187.09  2199.89
                             2311.73  2354.75  2663.90  4410.52  4530.17
                             4546.53  4551.08  4551.68  4556.82  4625.41
                             4646.73  4664.44  4684.27  5185.48  5370.49

 Zero-point correction=                           0.212886 (Hartree/Particle)
 Thermal correction to Energy=                    0.227464
 Thermal correction to Enthalpy=                  0.228408
 Thermal correction to Gibbs Free Energy=         0.168670
 Sum of electronic and zero-point Energies=          -1046.258157
 Sum of electronic and thermal Energies=             -1046.243579
 Sum of electronic and thermal Enthalpies=           -1046.242634
 Sum of electronic and thermal Free Energies=        -1046.302373

                     E (Thermal)             CV                S
                      KCal/Mol        Cal/Mol-Kelvin    Cal/Mol-Kelvin
 Total                  142.736             54.177            125.730
 Electronic               0.000              0.000              0.000
 Translational            0.889              2.981             42.123
 Rotational               0.889              2.981             32.772
 Vibrational            140.958             48.216             50.836
 Vibration     1          0.593              1.986              7.041
 Vibration     2          0.594              1.983              5.713
 Vibration     3          0.595              1.979              4.997
 Vibration     4          0.598              1.970              4.254
 Vibration     5          0.602              1.955              3.612
 Vibration     6          0.612              1.922              2.924
 Vibration     7          0.623              1.888              2.512
 Vibration     8          0.640              1.832              2.085
 Vibration     9          0.645              1.818              2.000
 Vibration    10          0.659              1.774              1.779
 Vibration    11          0.674              1.730              1.602
 Vibration    12          0.700              1.653              1.357
 Vibration    13          0.731              1.565              1.144
 Vibration    14          0.743              1.533              1.077
 Vibration    15          0.775              1.445              0.922
 Vibration    16          0.785              1.422              0.884
 Vibration    17          0.844              1.276              0.689
 Vibration    18          0.869              1.219              0.624
 Vibration    19          0.895              1.161              0.565
 Vibration    20          0.917              1.114              0.521
 Vibration    21          0.951              1.045              0.461
 Vibration    22          0.972              1.004              0.428

                           ! Non-Optimized Parameters !
 Normal termination of Gaussian 16 at Thu Dec 10 16:49:47 2020.

 ----------------------------------------------------------------------
 # B3LYP/6-311++G(d,p) empiricaldispersion=gd3bj scf=xqc pop=npa geom=c
 heck
 ----------------------------------------------------------------------

 ---------------------------------------
 CID_140189980_JID_5708_Energie_neutraal
 ---------------------------------------
 Structure from the checkpoint file:  "JID_5708.chk"
 Charge =  0 Multiplicity = 1

 SCF Done:  E(RB3LYP) =  -1046.68828974     A.U. after   15 cycles
 Normal termination of Gaussian 16 at Thu Dec 10 16:54:23 2020.

 ----------------------------------------------------------------------
 # B3LYP/6-311++G(d,p) empiricaldispersion=gd3bj scf=xqc pop=npa geom=c
 heck
 ----------------------------------------------------------------------

 -------------------------------------
 CID_140189980_JID_5708_Energie_kation
 -------------------------------------
 Structure from the checkpoint file:  "JID_5708.chk"
 Charge =  1 Multiplicity = 2

 SCF Done:  E(UB3LYP) =  -1046.39443195     A.U. after   26 cycles
 Normal termination of Gaussian 16 at Thu Dec 10 17:05:13 2020.
 Gaussian 16:  ES64L-G16RevA.03 25-Dec-2016

 ----------------------------------------------------------------------
 # B3LYP/6-311++G(d,p) empiricaldispersion=gd3bj scf=xqc pop=npa geom=c
 heck
 ----------------------------------------------------------------------

 ------------------------------------
 CID_140189980_JID_5708_Energie_anion
 ------------------------------------
 Structure from the checkpoint file:  "JID_5708.chk"
 Charge = -1 Multiplicity = 2

                         Standard orientation:
 ---------------------------------------------------------------------
 Center     Atomic      Atomic             Coordinates (Angstroms)
 Number     Number       Type             X           Y           Z
 ---------------------------------------------------------------------
      1          6           0       -4.605999    0.818734    0.968625
      2         16           0       -3.985039    0.117756   -0.592900
      3          6           0       -2.260432   -0.128944   -0.248039
      4          6           0       -1.461497   -0.637325   -1.289965
      5          7           0       -0.160668   -0.883236   -1.173860
      6          6           0        0.436383   -0.631300    0.006141
      7          6           0       -0.265108   -0.110064    1.091618
      8          6           0       -1.631463    0.140859    0.969430
      9          6           0        1.916665   -0.883371    0.053956
     10          6           0        2.557130   -1.481243    1.277519
     11          6           0        2.416806   -2.306528    0.024979
     12          7           0        2.706754    0.059096   -0.703780
     13          6           0        2.921286    1.356693   -0.325512
     14          8           0        3.334922    2.237328   -1.055572
     15          8           0        2.653788    1.556480    0.997832
     16          1           0       -5.670638    1.004123    0.809056
     17          1           0       -4.112920    1.765488    1.204924
     18          1           0       -4.489696    0.115783    1.797906
     19          1           0       -1.909111   -0.852205   -2.259533
     20          1           0        0.256794    0.109797    2.016437
     21          1           0       -2.182381    0.543925    1.811685
     22          1           0        3.540162   -1.110269    1.544289
     23          1           0        1.912611   -1.711857    2.119995
     24          1           0        1.667601   -3.091189   -0.002339
     25          1           0        3.310262   -2.502659   -0.559763
     26          1           0        2.692670   -0.054707   -1.709763
     27          1           0        2.870367    2.493116    1.146379
 ---------------------------------------------------------------------

 SCF Done:  E(UB3LYP) =  -1046.68106132     A.U. after   33 cycles
 SCF Done:  E(UB3LYP) =  -1046.68106132     a.u. after    1 cycles

 The electronic state is 2-A.
 Alpha  occ. eigenvalues --  -88.74842 -19.07219 -19.00713 -14.25000 -14.19365
 Alpha  occ. eigenvalues --  -10.23065 -10.13138 -10.10164 -10.09868 -10.09592
 Alpha  occ. eigenvalues --  -10.09184 -10.09016 -10.08912 -10.07054 -10.06996
 Alpha  occ. eigenvalues --   -7.83439  -5.79841  -5.79443  -5.78839  -1.01793
 Alpha  occ. eigenvalues --   -0.92277  -0.85995  -0.83018  -0.76054  -0.72108
 Alpha  occ. eigenvalues --   -0.67623  -0.64639  -0.57531  -0.55727  -0.53044
 Alpha  occ. eigenvalues --   -0.51814  -0.51231  -0.48470  -0.44252  -0.41978
 Alpha  occ. eigenvalues --   -0.40916  -0.38753  -0.38091  -0.37196  -0.36154
 Alpha  occ. eigenvalues --   -0.34855  -0.33401  -0.32937  -0.31696  -0.29763
 Alpha  occ. eigenvalues --   -0.29662  -0.29411  -0.28561  -0.27593  -0.24284
 Alpha  occ. eigenvalues --   -0.23091  -0.22207  -0.21687  -0.20021  -0.18939
 Alpha  occ. eigenvalues --   -0.17698  -0.17193  -0.15243  -0.11070   0.04365
 Alpha virt. eigenvalues --    0.06333   0.06471   0.07555   0.08167   0.08639
 Alpha virt. eigenvalues --    0.09073   0.09538   0.10077   0.10575   0.11076
 Alpha virt. eigenvalues --    0.11420   0.12252   0.12696   0.13166   0.13709

  Beta  occ. eigenvalues --  -88.74834 -19.07185 -19.00706 -14.24987 -14.19141
  Beta  occ. eigenvalues --  -10.23064 -10.13139 -10.10157 -10.09843 -10.09553
  Beta  occ. eigenvalues --  -10.09103 -10.09014 -10.08910 -10.07032 -10.06831
  Beta  occ. eigenvalues --   -7.83431  -5.79827  -5.79428  -5.78831  -1.01753
  Beta  occ. eigenvalues --   -0.92243  -0.85927  -0.82767  -0.76035  -0.71935
  Beta  occ. eigenvalues --   -0.67428  -0.64505  -0.57438  -0.55625  -0.52931
  Beta  occ. eigenvalues --   -0.51719  -0.51131  -0.48367  -0.44168  -0.41944
  Beta  occ. eigenvalues --   -0.40885  -0.38668  -0.38046  -0.37132  -0.36127
  Beta  occ. eigenvalues --   -0.34775  -0.33358  -0.32832  -0.31648  -0.29657
  Beta  occ. eigenvalues --   -0.29339  -0.29123  -0.28534  -0.27503  -0.24221
  Beta  occ. eigenvalues --   -0.23050  -0.22118  -0.21650  -0.19723  -0.18715
  Beta  occ. eigenvalues --   -0.17587  -0.16668  -0.15010  -0.10786
  Beta virt. eigenvalues --    0.06640   0.07426   0.07771   0.08146   0.08330
  Beta virt. eigenvalues --    0.08794   0.09256   0.09740   0.10216   0.11200
  Beta virt. eigenvalues --    0.11341   0.11678   0.12281   0.12798   0.13267

 Mulliken charges and spin densities:
               1          2
     1  C    0.611070  -1.164103
     2  S   -0.146110  -0.563771
     3  C    0.260677   0.500077
     4  C   -0.494902   0.424849
     5  N    0.049420   0.105902
     6  C    0.494141  -0.818820
     7  C    0.476148  -0.833584
     8  C   -0.087588   0.124335
     9  C   -0.260709   0.297684
    10  C   -0.300224  -0.119329
    11  C   -0.381146   0.017339
    12  N   -0.127854  -0.040946
    13  C    0.415441  -0.255689
    14  O   -0.341354   0.006247
    15  O   -0.218872   0.012598
    16  H   -0.619529   0.795948
    17  H   -0.188418   0.377011
    18  H   -0.401220   0.598646
    19  H    0.164539   0.011713
    20  H   -0.394595   0.617789
    21  H   -0.254809   0.427905
    22  H    0.068255   0.091324
    23  H    0.110294   0.029821
    24  H    0.136885   0.034141
    25  H    0.128257   0.005169
    26  H    0.326755  -0.007595
    27  H   -0.024552   0.325341
 Sum of Mulliken charges =  -1.00000   1.00000

 Dipole moment (field-independent basis, Debye):
    X=              6.4892    Y=             -4.1807    Z=             -2.8177  Tot=              8.2175
 Quadrupole moment (field-independent basis, Debye-Ang):
   XX=           -183.3323   YY=           -125.7185   ZZ=           -128.4669
   XY=             -5.2558   XZ=             16.0418   YZ=             -0.3621

 Summary of Natural Population Analysis:

                                       Natural Population
                Natural  -----------------------------------------------
    Atom  No    Charge         Core      Valence    Rydberg      Total
 -----------------------------------------------------------------------
      C    1   -0.35149      0.99963     2.34515    0.00672     3.35149
      S    2    0.12805      4.99954     2.85153    0.02088     7.87195
      C    3   -0.10640      0.99941     2.09471    0.01228     3.10640
      C    4    0.02842      0.99953     1.95874    0.01331     2.97158
      N    5   -0.20770      0.99968     2.69827    0.00975     3.70770
      C    6    0.08404      0.99947     1.90030    0.01618     2.91596
      C    7   -0.10410      0.99951     2.09545    0.00914     3.10410
      C    8   -0.07348      0.99949     2.06278    0.01121     3.07348
      C    9    0.03996      0.99950     1.94393    0.01662     2.96004
      C   10   -0.18942      0.99959     2.18106    0.00877     3.18942
      C   11   -0.18906      0.99959     2.18163    0.00783     3.18906
      N   12   -0.32559      0.99963     2.81608    0.00988     3.82559
      C   13    0.46045      0.99974     1.51475    0.02506     2.53955
      O   14   -0.33400      0.99987     3.32852    0.00561     4.33400
      O   15   -0.34920      0.99988     3.34288    0.00644     4.34920
      H   16    0.11161      0.00000     0.38665    0.00174     0.38839
      H   17    0.10498      0.00000     0.39275    0.00227     0.39502
      H   18    0.10761      0.00000     0.38963    0.00276     0.39239
      H   19    0.08677      0.00000     0.41197    0.00126     0.41323
      H   20    0.10675      0.00000     0.39168    0.00157     0.39325
      H   21    0.10453      0.00000     0.39375    0.00173     0.39547
      H   22    0.10689      0.00000     0.39212    0.00098     0.39311
      H   23    0.10699      0.00000     0.39215    0.00086     0.39301
      H   24    0.10744      0.00000     0.39175    0.00080     0.39256
      H   25    0.10171      0.00000     0.39733    0.00096     0.39829
      H   26    0.19995      0.00000     0.29833    0.00172     0.30005
      H   27    0.24429      0.00000     0.25035    0.00536     0.25571
 =======================================================================
   * Total *   -0.00000     18.99406    39.80425    0.20169    59.00000

 Normal termination of Gaussian 16 at Thu Dec 10 17:18:29 2020.
