 Gaussian 16, Revision A.03,

 -----------------------------------------------------------
 # opt freq B3LYP/6-31G(d) empiricaldispersion=gd3bj scf=xqc
 -----------------------------------------------------------

 -------------------------------
 CID_116405499_JID_8999_neutraal
 -------------------------------
 Symbolic Z-matrix:
 Charge =  0 Multiplicity = 1

 SCF Done:  E(RB3LYP) =  -1508.47848205     A.U. after   15 cycles
 SCF Done:  E(RB3LYP) =  -1508.48435293     A.U. after   12 cycles
 SCF Done:  E(RB3LYP) =  -1508.48503565     A.U. after   13 cycles
 SCF Done:  E(RB3LYP) =  -1508.48628287     A.U. after   12 cycles
 SCF Done:  E(RB3LYP) =  -1508.48791792     A.U. after   13 cycles
 SCF Done:  E(RB3LYP) =  -1508.48720259     A.U. after   15 cycles
 SCF Done:  E(RB3LYP) =  -1508.49018863     A.U. after   12 cycles
 SCF Done:  E(RB3LYP) =  -1508.49056242     A.U. after   12 cycles
 SCF Done:  E(RB3LYP) =  -1508.49060505     A.U. after   13 cycles
 SCF Done:  E(RB3LYP) =  -1508.49091931     A.U. after   12 cycles
 SCF Done:  E(RB3LYP) =  -1508.49128319     A.U. after    9 cycles
 SCF Done:  E(RB3LYP) =  -1508.49128336     A.U. after    9 cycles
 SCF Done:  E(RB3LYP) =  -1508.49128347     A.U. after    7 cycles
 SCF Done:  E(RB3LYP) =  -1508.49128350     A.U. after    6 cycles
 SCF Done:  E(RB3LYP) =  -1508.49128351     A.U. after    6 cycles
 Optimization completed.
    -- Stationary point found.
 Normal termination of Gaussian 16 at Fri Dec 11 23:36:42 2020.

 --------------------------------------------------------------------
 #N Geom=AllCheck Guess=TCheck SCRF=Check GenChk RB3LYP/6-31G(d) Freq
 --------------------------------------------------------------------

 Structure from the checkpoint file:  "JID_8999.chk"
 -------------------------------
 CID_116405499_JID_8999_neutraal
 -------------------------------
 Charge =  0 Multiplicity = 1

 SCF Done:  E(RB3LYP) =  -1508.49128351     A.U. after    1 cycles

  Exact polarizability: 236.873  13.929 177.765 -12.479   2.692 130.789
 Approx polarizability: 330.049  18.070 290.921 -26.749  11.443 212.097

                      1                      2                      3
                      A                      A                      A
 Frequencies --     25.7875                28.7835                52.2496
 Red. masses --      3.7787                 5.6928                 7.1460
 Frc consts  --      0.0015                 0.0028                 0.0115
 IR Inten    --      0.0428                 0.4837                 1.1293

                      4                      5                      6
                      A                      A                      A
 Frequencies --     81.2581                85.9591                98.0828
 Red. masses --      4.7739                 1.1958                 4.0181
 Frc consts  --      0.0186                 0.0052                 0.0228
 IR Inten    --      0.3308                 0.1849                 0.1827

                      7                      8                      9
                      A                      A                      A
 Frequencies --    121.0466               131.6160               145.4603
 Red. masses --      4.4097                 4.0007                 4.9243
 Frc consts  --      0.0381                 0.0408                 0.0614
 IR Inten    --      1.7060                 0.1739                 2.1396

                     10                     11                     12
                      A                      A                      A
 Frequencies --    197.8547               227.9132               238.1441
 Red. masses --      4.0514                 2.9973                 2.7861
 Frc consts  --      0.0934                 0.0917                 0.0931
 IR Inten    --      1.8829                 1.1423                 2.7246

                     13                     14                     15
                      A                      A                      A
 Frequencies --    247.0270               256.9283               275.6645
 Red. masses --      1.0779                 2.3009                 1.6786
 Frc consts  --      0.0388                 0.0895                 0.0752
 IR Inten    --      0.1064                 0.3481                 0.3749

                     16                     17                     18
                      A                      A                      A
 Frequencies --    298.0864               310.5456               326.9009
 Red. masses --      1.8653                 3.3934                 3.4276
 Frc consts  --      0.0977                 0.1928                 0.2158
 IR Inten    --      0.4124                 1.7005                 4.3194

                     19                     20                     21
                      A                      A                      A
 Frequencies --    350.0524               361.7095               372.1851
 Red. masses --      3.5798                 6.4896                 3.1021
 Frc consts  --      0.2584                 0.5002                 0.2532
 IR Inten    --      0.8293                 5.2094                 0.3884

                     22                     23                     24
                      A                      A                      A
 Frequencies --    391.7534               426.4451               447.1546
 Red. masses --      2.7376                 2.6273                 2.2520
 Frc consts  --      0.2475                 0.2815                 0.2653
 IR Inten    --      1.1104                 0.0075                 5.4236

                     25                     26                     27
                      A                      A                      A
 Frequencies --    477.5225               478.7534               483.9493
 Red. masses --      3.1069                 2.9285                 7.7281
 Frc consts  --      0.4174                 0.3955                 1.0664
 IR Inten    --      9.4959                13.6917                 1.2480

                     28                     29                     30
                      A                      A                      A
 Frequencies --    568.0100               583.9488               595.4610
 Red. masses --      3.3569                 1.7355                 2.3009
 Frc consts  --      0.6381                 0.3487                 0.4807
 IR Inten    --      4.1780                48.1800                35.2994

                     31                     32                     33
                      A                      A                      A
 Frequencies --    617.1085               643.3310               676.4644
 Red. masses --      2.9756                 4.0815                 4.6740
 Frc consts  --      0.6676                 0.9953                 1.2602
 IR Inten    --      7.1171                38.9787                 0.0927

                     34                     35                     36
                      A                      A                      A
 Frequencies --    683.3119               723.5366               757.2649
 Red. masses --      4.4098                 3.9992                 6.1778
 Frc consts  --      1.2131                 1.2335                 2.0873
 IR Inten    --     10.7855                21.7551                33.4551

                     37                     38                     39
                      A                      A                      A
 Frequencies --    762.3017               803.2375               839.0366
 Red. masses --      6.7194                 2.8693                 2.8054
 Frc consts  --      2.3006                 1.0907                 1.1636
 IR Inten    --     21.9703                 5.6238                 4.6342

                     40                     41                     42
                      A                      A                      A
 Frequencies --    889.0716               905.1446               918.6515
 Red. masses --      1.5341                 2.0876                 2.2790
 Frc consts  --      0.7145                 1.0077                 1.1332
 IR Inten    --      5.5471                 9.4541                 2.0323

                     43                     44                     45
                      A                      A                      A
 Frequencies --    932.0702               957.5020               964.7771
 Red. masses --      1.9596                 2.1624                 1.4416
 Frc consts  --      1.0030                 1.1681                 0.7906
 IR Inten    --      3.2825                 1.7951                 2.3319

                     46                     47                     48
                      A                      A                      A
 Frequencies --    995.1411              1010.2749              1033.7248
 Red. masses --      1.8328                 1.7123                 2.0955
 Frc consts  --      1.0694                 1.0297                 1.3193
 IR Inten    --     24.4079                 8.6617                38.1940

                     49                     50                     51
                      A                      A                      A
 Frequencies --   1048.1224              1053.6319              1063.1877
 Red. masses --      1.4307                 4.0926                 1.5706
 Frc consts  --      0.9260                 2.6769                 1.0460
 IR Inten    --      4.4720                64.6225                33.7393

                     52                     53                     54
                      A                      A                      A
 Frequencies --   1117.1989              1138.1265              1168.4517
 Red. masses --      1.9353                 2.2609                 2.0857
 Frc consts  --      1.4232                 1.7255                 1.6777
 IR Inten    --     53.9485                42.2813                17.7768

                     55                     56                     57
                      A                      A                      A
 Frequencies --   1182.6865              1197.7574              1206.2882
 Red. masses --      1.6390                 2.2797                 1.8687
 Frc consts  --      1.3507                 1.9269                 1.6021
 IR Inten    --    113.8479                73.0825               111.7649

                     58                     59                     60
                      A                      A                      A
 Frequencies --   1209.9598              1222.5202              1247.9455
 Red. masses --      2.4943                 1.9743                 2.0115
 Frc consts  --      2.1515                 1.7385                 1.8457
 IR Inten    --     12.4654                 1.4762                46.6680

                     61                     62                     63
                      A                      A                      A
 Frequencies --   1249.6801              1278.6986              1317.6736
 Red. masses --      2.1953                 1.3687                 1.4227
 Frc consts  --      2.0200                 1.3185                 1.4553
 IR Inten    --     21.9638                 0.3436                 3.8251

                     64                     65                     66
                      A                      A                      A
 Frequencies --   1346.3944              1382.3333              1395.7621
 Red. masses --      1.3490                 2.8138                 1.2913
 Frc consts  --      1.4408                 3.1679                 1.4821
 IR Inten    --     23.5309                46.0296                 8.8403

                     67                     68                     69
                      A                      A                      A
 Frequencies --   1399.2758              1416.8003              1420.8735
 Red. masses --      1.5488                 1.4728                 1.3586
 Frc consts  --      1.7867                 1.7419                 1.6160
 IR Inten    --    113.8339                12.3798                15.6248

                     70                     71                     72
                      A                      A                      A
 Frequencies --   1429.7010              1433.5229              1452.1495
 Red. masses --      1.2455                 1.3108                 1.2389
 Frc consts  --      1.5000                 1.5870                 1.5392
 IR Inten    --      4.4608                 9.6391                 7.8153

                     73                     74                     75
                      A                      A                      A
 Frequencies --   1453.3707              1490.1696              1494.1469
 Red. masses --      2.4511                 1.0988                 1.1216
 Frc consts  --      3.0504                 1.4376                 1.4753
 IR Inten    --     13.4824                 1.0056                17.7756

                     76                     77                     78
                      A                      A                      A
 Frequencies --   1498.5845              1506.9211              1512.4740
 Red. masses --      1.5447                 1.0980                 1.3147
 Frc consts  --      2.0438                 1.4691                 1.7719
 IR Inten    --     47.5464                 3.3437                59.5481

                     79                     80                     81
                      A                      A                      A
 Frequencies --   1513.7901              1520.3015              1525.5124
 Red. masses --      1.3940                 1.0757                 1.0945
 Frc consts  --      1.8821                 1.4649                 1.5008
 IR Inten    --     33.8577                 2.2160                18.4523

                     82                     83                     84
                      A                      A                      A
 Frequencies --   1529.8358              1534.6522              1541.8104
 Red. masses --      1.0636                 1.0782                 1.0644
 Frc consts  --      1.4666                 1.4961                 1.4908
 IR Inten    --      3.9883                 4.1830                10.1590

                     85                     86                     87
                      A                      A                      A
 Frequencies --   1607.2786              1810.2317              2981.4596
 Red. masses --      5.7300                 9.6417                 1.0698
 Frc consts  --      8.7215                18.6154                 5.6031
 IR Inten    --     16.9378               428.4485                51.6891

                     88                     89                     90
                      A                      A                      A
 Frequencies --   3022.2954              3041.8845              3042.1211
 Red. masses --      1.0586                 1.0424                 1.0438
 Frc consts  --      5.6974                 5.6829                 5.6914
 IR Inten    --     28.8859                17.0753                21.8355

                     91                     92                     93
                      A                      A                      A
 Frequencies --   3047.7560              3050.0908              3060.7100
 Red. masses --      1.0423                 1.0606                 1.0880
 Frc consts  --      5.7046                 5.8134                 6.0053
 IR Inten    --     58.8467                11.8099                12.8203

                     94                     95                     96
                      A                      A                      A
 Frequencies --   3064.5960              3070.1028              3099.4983
 Red. masses --      1.0633                 1.1033                 1.1017
 Frc consts  --      5.8840                 6.1272                 6.2361
 IR Inten    --     20.5455                34.2694                24.4538

                     97                     98                     99
                      A                      A                      A
 Frequencies --   3109.1282              3110.4991              3117.4201
 Red. masses --      1.0912                 1.0991                 1.0945
 Frc consts  --      6.2147                 6.2653                 6.2670
 IR Inten    --     11.1215                 9.8080                31.6428

                    100                    101                    102
                      A                      A                      A
 Frequencies --   3118.7120              3131.1579              3146.0784
 Red. masses --      1.1047                 1.1028                 1.1034
 Frc consts  --      6.3308                 6.3701                 6.4343
 IR Inten    --     17.5193                21.4954                 2.1193

                    103                    104                    105
                      A                      A                      A
 Frequencies --   3151.4312              3230.5277              3702.0760
 Red. masses --      1.0989                 1.0931                 1.0642
 Frc consts  --      6.4302                 6.7213                 8.5930
 IR Inten    --     33.0616                 0.8688                87.1727

 - Thermochemistry -
 -------------------
 Temperature   298.150 Kelvin.  Pressure   1.00000 Atm.
 Atom     1 has atomic number  6 and mass  12.00000

 Molecular mass:   285.08572 amu.
 Principal axes and moments of inertia in atomic units:
                           1         2         3
     Eigenvalues --  2417.05252********************
           X            0.99995   0.00661  -0.00697
           Y           -0.00656   0.99996   0.00678
           Z            0.00701  -0.00674   0.99995
 This molecule is an asymmetric top.
 Rotational symmetry number  1.
 Warning -- assumption of classical behavior for rotation
           may cause significant error
 Rotational temperatures (Kelvin)      0.03583     0.00762     0.00689
 Rotational constants (GHZ):           0.74667     0.15874     0.14356
 Zero-point vibrational energy     807560.5 (Joules/Mol)
                                  193.01159 (Kcal/Mol)
 Warning -- explicit consideration of  31 degrees of freedom as
           vibrations may cause significant error
 Vibrational temperatures:     37.10    41.41    75.18   116.91   123.68
          (Kelvin)            141.12   174.16   189.37   209.28   284.67
                              327.92   342.64   355.42   369.66   396.62
                              428.88   446.81   470.34   503.65   520.42
                              535.49   563.65   613.56   643.36   687.05
                              688.82   696.30   817.24   840.17   856.74
                              887.88   925.61   973.28   983.13  1041.01
                             1089.54  1096.78  1155.68  1207.19  1279.18
                             1302.30  1321.73  1341.04  1377.63  1388.10
                             1431.79  1453.56  1487.30  1508.01  1515.94
                             1529.69  1607.40  1637.51  1681.14  1701.62
                             1723.31  1735.58  1740.86  1758.93  1795.52
                             1798.01  1839.76  1895.84  1937.16  1988.87
                             2008.19  2013.25  2038.46  2044.32  2057.02
                             2062.52  2089.32  2091.08  2144.02  2149.74
                             2156.13  2168.12  2176.11  2178.01  2187.37
                             2194.87  2201.09  2208.02  2218.32  2312.52
                             2604.52  4289.66  4348.41  4376.59  4376.93
                             4385.04  4388.40  4403.68  4409.27  4417.19
                             4459.49  4473.34  4475.31  4485.27  4487.13
                             4505.04  4526.51  4534.21  4648.01  5326.46

 Zero-point correction=                           0.307584 (Hartree/Particle)
 Thermal correction to Energy=                    0.326443
 Thermal correction to Enthalpy=                  0.327387
 Thermal correction to Gibbs Free Energy=         0.259532
 Sum of electronic and zero-point Energies=          -1508.183700
 Sum of electronic and thermal Energies=             -1508.164840
 Sum of electronic and thermal Enthalpies=           -1508.163896
 Sum of electronic and thermal Free Energies=        -1508.231751

                     E (Thermal)             CV                S
                      KCal/Mol        Cal/Mol-Kelvin    Cal/Mol-Kelvin
 Total                  204.846             71.415            142.813
 Electronic               0.000              0.000              0.000
 Translational            0.889              2.981             42.841
 Rotational               0.889              2.981             34.201
 Vibrational            203.069             65.454             65.771
 Vibration     1          0.593              1.985              6.130
 Vibration     2          0.593              1.984              5.912
 Vibration     3          0.596              1.977              4.730
 Vibration     4          0.600              1.962              3.860
 Vibration     5          0.601              1.959              3.750
 Vibration     6          0.604              1.951              3.492
 Vibration     7          0.609              1.932              3.084
 Vibration     8          0.612              1.922              2.922
 Vibration     9          0.617              1.908              2.731
 Vibration    10          0.637              1.843              2.153
 Vibration    11          0.651              1.798              1.895
 Vibration    12          0.656              1.782              1.817
 Vibration    13          0.661              1.768              1.752
 Vibration    14          0.667              1.751              1.683
 Vibration    15          0.677              1.718              1.560
 Vibration    16          0.691              1.677              1.428
 Vibration    17          0.699              1.654              1.359
 Vibration    18          0.711              1.622              1.275
 Vibration    19          0.727              1.575              1.166
 Vibration    20          0.736              1.551              1.115
 Vibration    21          0.744              1.529              1.071
 Vibration    22          0.759              1.488              0.993
 Vibration    23          0.788              1.413              0.870
 Vibration    24          0.806              1.367              0.804
 Vibration    25          0.834              1.300              0.717
 Vibration    26          0.835              1.297              0.713
 Vibration    27          0.840              1.286              0.699
 Vibration    28          0.924              1.100              0.508
 Vibration    29          0.941              1.066              0.478
 Vibration    30          0.953              1.041              0.458
 Vibration    31          0.977              0.996              0.421

 Optimization completed.
    -- Stationary point found.
 Normal termination of Gaussian 16 at Fri Dec 11 23:55:14 2020.

 ----------------------------------------------------------------------
 # B3LYP/6-311++G(d,p) empiricaldispersion=gd3bj scf=xqc pop=npa geom=c
 heck
 ----------------------------------------------------------------------

 ---------------------------------------
 CID_116405499_JID_8999_Energie_neutraal
 ---------------------------------------
 Structure from the checkpoint file:  "JID_8999.chk"
 Charge =  0 Multiplicity = 1

 SCF Done:  E(RB3LYP) =  -1508.74749107     A.U. after   16 cycles
 Normal termination of Gaussian 16 at Sat Dec 12 00:04:41 2020.

 ----------------------------------------------------------------------
 # B3LYP/6-311++G(d,p) empiricaldispersion=gd3bj scf=xqc pop=npa geom=c
 heck
 ----------------------------------------------------------------------

 -------------------------------------
 CID_116405499_JID_8999_Energie_kation
 -------------------------------------
 Structure from the checkpoint file:  "JID_8999.chk"
 Charge =  1 Multiplicity = 2

 SCF Done:  E(UB3LYP) =  -1508.46990702     A.U. after   28 cycles
 Normal termination of Gaussian 16 at Sat Dec 12 00:28:12 2020.
 Gaussian 16:  ES64L-G16RevA.03 25-Dec-2016

 ----------------------------------------------------------------------
 # B3LYP/6-311++G(d,p) empiricaldispersion=gd3bj scf=xqc pop=npa geom=c
 heck
 ----------------------------------------------------------------------

 ------------------------------------
 CID_116405499_JID_8999_Energie_anion
 ------------------------------------
 Structure from the checkpoint file:  "JID_8999.chk"
 Charge = -1 Multiplicity = 2

                         Standard orientation:
 ---------------------------------------------------------------------
 Center     Atomic      Atomic             Coordinates (Angstroms)
 Number     Number       Type             X           Y           Z
 ---------------------------------------------------------------------
      1          6           0       -1.007433    2.943289    0.271797
      2          6           0       -1.643161    1.607922    0.032437
      3          6           0       -1.039310    0.472538   -0.479094
      4          6           0       -1.948661   -0.612595   -0.595782
      5          6           0       -3.225025   -0.305543   -0.181999
      6         16           0       -3.324949    1.344052    0.367489
      7          6           0       -4.415545   -1.147905   -0.142329
      8          8           0       -5.513024   -0.794563    0.246884
      9          8           0       -4.171426   -2.407103   -0.597277
     10          6           0        0.420074    0.388786   -0.859919
     11          7           0        1.298187    0.644497    0.281577
     12          6           0        1.224873   -0.344198    1.351500
     13          6           0        2.007940   -1.630875    1.073122
     14         16           0        3.799559   -1.294973    0.866041
     15          6           0        3.707592    0.028788   -0.437995
     16          6           0        2.655643    1.083675   -0.012955
     17          6           0        5.086871    0.697331   -0.460118
     18          6           0        3.415799   -0.593577   -1.809377
     19          1           0       -0.928437    3.513708   -0.663333
     20          1           0       -1.581237    3.547543    0.980298
     21          1           0        0.002449    2.794327    0.663840
     22          1           0       -1.676652   -1.593551   -0.969089
     23          1           0       -5.023271   -2.875825   -0.528149
     24          1           0        0.587882   -0.587137   -1.344171
     25          1           0        0.654598    1.146749   -1.617445
     26          1           0        1.615322    0.114636    2.268222
     27          1           0        0.168972   -0.581328    1.522537
     28          1           0        1.931590   -2.319696    1.920168
     29          1           0        1.618039   -2.149621    0.190324
     30          1           0        3.037448    1.575677    0.890990
     31          1           0        2.598889    1.847033   -0.801470
     32          1           0        5.323025    1.157794    0.504265
     33          1           0        5.871700   -0.029533   -0.695206
     34          1           0        5.109912    1.477680   -1.231308
     35          1           0        4.252479   -1.224451   -2.124331
     36          1           0        2.518568   -1.215771   -1.802948
     37          1           0        3.275310    0.192535   -2.563291
 ---------------------------------------------------------------------

 SCF Done:  E(UB3LYP) =  -1508.75594660     A.U. after   33 cycles
 SCF Done:  E(UB3LYP) =  -1508.75594660     a.u. after    1 cycles

 The electronic state is 2-A.
 Alpha  occ. eigenvalues --  -88.74559 -88.72361 -19.02818 -18.95281 -14.20662
 Alpha  occ. eigenvalues --  -10.14119 -10.12660 -10.10783 -10.10622 -10.09927
 Alpha  occ. eigenvalues --  -10.09298 -10.08692 -10.08067 -10.05345 -10.05253
 Alpha  occ. eigenvalues --  -10.04455 -10.04006 -10.02937  -7.83220  -7.81021
 Alpha  occ. eigenvalues --   -5.79589  -5.79261  -5.78592  -5.77310  -5.76952
 Alpha  occ. eigenvalues --   -5.76641  -0.96255  -0.86833  -0.83519  -0.74686
 Alpha  occ. eigenvalues --   -0.73658  -0.69116  -0.64403  -0.63299  -0.61256
 Alpha  occ. eigenvalues --   -0.60723  -0.57399  -0.56629  -0.54100  -0.50363
 Alpha  occ. eigenvalues --   -0.48651  -0.44536  -0.42441  -0.40148  -0.38938
 Alpha  occ. eigenvalues --   -0.38295  -0.37375  -0.36745  -0.35566  -0.34363
 Alpha  occ. eigenvalues --   -0.34135  -0.32843  -0.32317  -0.31542  -0.31175
 Alpha  occ. eigenvalues --   -0.30712  -0.30363  -0.29550  -0.29156  -0.28225
 Alpha  occ. eigenvalues --   -0.27421  -0.26627  -0.26399  -0.25167  -0.24157
 Alpha  occ. eigenvalues --   -0.23545  -0.23137  -0.22406  -0.21411  -0.20072
 Alpha  occ. eigenvalues --   -0.18614  -0.14474  -0.13763  -0.11806  -0.11083
 Alpha  occ. eigenvalues --   -0.09804   0.04144
 Alpha virt. eigenvalues --    0.05453   0.07390   0.07783   0.07898   0.08847
 Alpha virt. eigenvalues --    0.09124   0.09720   0.10095   0.10698   0.10867
 Alpha virt. eigenvalues --    0.11323   0.12069   0.12291   0.12988   0.13451

  Beta  occ. eigenvalues --  -88.74557 -88.72304 -19.02766 -18.95034 -14.20666
  Beta  occ. eigenvalues --  -10.13871 -10.12657 -10.10774 -10.10614 -10.09921
  Beta  occ. eigenvalues --  -10.09290 -10.08680 -10.08056 -10.05374 -10.04821
  Beta  occ. eigenvalues --  -10.04322 -10.04132 -10.02715  -7.83217  -7.80969
  Beta  occ. eigenvalues --   -5.79586  -5.79260  -5.78590  -5.77287  -5.76930
  Beta  occ. eigenvalues --   -5.76445  -0.96000  -0.86460  -0.83519  -0.74514
  Beta  occ. eigenvalues --   -0.73467  -0.69104  -0.64219  -0.62983  -0.61231
  Beta  occ. eigenvalues --   -0.60701  -0.57181  -0.56268  -0.54045  -0.50219
  Beta  occ. eigenvalues --   -0.48325  -0.44498  -0.42173  -0.40085  -0.38844
  Beta  occ. eigenvalues --   -0.38204  -0.37329  -0.36535  -0.35507  -0.34291
  Beta  occ. eigenvalues --   -0.33850  -0.32808  -0.32215  -0.31459  -0.30718
  Beta  occ. eigenvalues --   -0.30262  -0.29748  -0.29484  -0.29136  -0.28140
  Beta  occ. eigenvalues --   -0.27369  -0.26609  -0.26364  -0.24973  -0.24042
  Beta  occ. eigenvalues --   -0.23441  -0.22998  -0.21725  -0.21331  -0.19788
  Beta  occ. eigenvalues --   -0.17560  -0.14461  -0.13523  -0.11075  -0.10773
  Beta  occ. eigenvalues --   -0.08141
  Beta virt. eigenvalues --    0.05674   0.07346   0.07764   0.07889   0.08886
  Beta virt. eigenvalues --    0.09072   0.09549   0.09634   0.10033   0.10752
  Beta virt. eigenvalues --    0.10792   0.11283   0.12070   0.12286   0.12994

 Mulliken charges and spin densities:
               1          2
     1  C   -0.511724  -0.079086
     2  C    0.388888   0.314808
     3  C   -0.202776  -0.090231
     4  C   -0.516807   0.190131
     5  C   -0.098743  -0.082710
     6  S   -0.573981   0.125066
     7  C    0.577850   0.218693
     8  O   -0.406227   0.086671
     9  O   -0.229755   0.012466
    10  C   -0.430995   0.088438
    11  N    0.334943   0.004455
    12  C   -0.437880   0.106507
    13  C   -0.338952  -0.156113
    14  S   -0.142664  -0.094474
    15  C    0.542336   0.696772
    16  C   -0.565386  -0.493518
    17  C   -0.024884  -0.524331
    18  C   -0.386857  -0.319485
    19  H    0.149954   0.010126
    20  H    0.098194   0.032250
    21  H    0.129344   0.047949
    22  H    0.156355  -0.011647
    23  H    0.266564  -0.000235
    24  H    0.083746  -0.006259
    25  H    0.098985   0.012622
    26  H    0.106033   0.027512
    27  H    0.155233   0.070534
    28  H    0.146681   0.063431
    29  H    0.134589   0.042547
    30  H    0.159490   0.012668
    31  H    0.124709   0.050836
    32  H    0.026306   0.113294
    33  H    0.045629   0.100905
    34  H   -0.066349   0.198734
    35  H    0.021097   0.130236
    36  H    0.108740   0.022411
    37  H    0.078317   0.078026
 Sum of Mulliken charges =  -1.00000   1.00000

 Dipole moment (field-independent basis, Debye):
    X=              7.6945    Y=             -0.4047    Z=             -0.5356  Tot=              7.7237
 Quadrupole moment (field-independent basis, Debye-Ang):
   XX=           -228.8399   YY=           -141.0115   ZZ=           -138.8376
   XY=              4.8568   XZ=              3.4634   YZ=             -0.3205

 Summary of Natural Population Analysis:

                                       Natural Population
                Natural  -----------------------------------------------
    Atom  No    Charge         Core      Valence    Rydberg      Total
 -----------------------------------------------------------------------
      C    1   -0.30628      0.99962     2.30098    0.00567     3.30628
      C    2   -0.00767      0.99944     1.99698    0.01125     3.00767
      C    3   -0.10165      0.99942     2.08944    0.01279     3.10165
      C    4   -0.05735      0.99946     2.04913    0.00877     3.05735
      C    5   -0.14335      0.99944     2.13184    0.01207     3.14335
      S    6    0.23574      4.99939     2.74340    0.02147     7.76426
      C    7    0.41068      0.99959     1.56609    0.02364     2.58932
      O    8   -0.31046      0.99987     3.30376    0.00683     4.31046
      O    9   -0.35560      0.99988     3.34745    0.00827     4.35560
      C   10   -0.08360      0.99957     2.07382    0.01021     3.08360
      N   11   -0.28386      0.99972     2.77112    0.01301     3.78386
      C   12   -0.09051      0.99960     2.08052    0.01039     3.09051
      C   13   -0.25943      0.99959     2.25101    0.00883     3.25943
      S   14    0.08256      4.99957     2.90199    0.01588     7.91744
      C   15   -0.10258      0.99956     2.08832    0.01470     3.10258
      C   16   -0.08520      0.99954     2.07143    0.01422     3.08520
      C   17   -0.29197      0.99961     2.28450    0.00786     3.29197
      C   18   -0.29244      0.99960     2.28455    0.00829     3.29244
      H   19    0.10122      0.00000     0.39766    0.00112     0.39878
      H   20    0.10062      0.00000     0.39856    0.00082     0.39938
      H   21    0.11152      0.00000     0.38654    0.00194     0.38848
      H   22    0.10176      0.00000     0.39718    0.00107     0.39824
      H   23    0.23079      0.00000     0.26614    0.00308     0.26921
      H   24    0.08104      0.00000     0.41642    0.00254     0.41896
      H   25    0.09563      0.00000     0.40327    0.00110     0.40437
      H   26    0.09302      0.00000     0.40588    0.00110     0.40698
      H   27    0.11342      0.00000     0.38532    0.00127     0.38658
      H   28    0.10626      0.00000     0.39221    0.00154     0.39374
      H   29    0.10069      0.00000     0.39777    0.00154     0.39931
      H   30    0.09665      0.00000     0.40218    0.00117     0.40335
      H   31    0.09699      0.00000     0.40191    0.00110     0.40301
      H   32    0.10397      0.00000     0.39513    0.00090     0.39603
      H   33    0.10280      0.00000     0.39632    0.00088     0.39720
      H   34    0.10198      0.00000     0.39699    0.00103     0.39802
      H   35    0.10148      0.00000     0.39745    0.00107     0.39852
      H   36    0.10371      0.00000     0.39539    0.00090     0.39629
      H   37    0.09943      0.00000     0.39962    0.00095     0.40057
 =======================================================================
   * Total *   -0.00000     25.99248    49.76827    0.23924    76.00000

 Normal termination of Gaussian 16 at Sat Dec 12 00:55:58 2020.
