 Gaussian 16, Revision A.03,

 -----------------------------------------------------------
 # opt freq B3LYP/6-31G(d) empiricaldispersion=gd3bj scf=xqc
 -----------------------------------------------------------

 ------------------------------
 CID_82285171_JID_6186_neutraal
 ------------------------------
 Symbolic Z-matrix:
 Charge =  0 Multiplicity = 1

 SCF Done:  E(RB3LYP) =  -705.802332846     A.U. after   14 cycles
 SCF Done:  E(RB3LYP) =  -705.805476586     A.U. after   12 cycles
 SCF Done:  E(RB3LYP) =  -705.805835640     A.U. after   12 cycles
 SCF Done:  E(RB3LYP) =  -705.806009848     A.U. after   10 cycles
 SCF Done:  E(RB3LYP) =  -705.806052351     A.U. after   10 cycles
 SCF Done:  E(RB3LYP) =  -705.806073507     A.U. after   10 cycles
 SCF Done:  E(RB3LYP) =  -705.806079375     A.U. after    9 cycles
 SCF Done:  E(RB3LYP) =  -705.806085089     A.U. after    9 cycles
 SCF Done:  E(RB3LYP) =  -705.806090477     A.U. after   10 cycles
 SCF Done:  E(RB3LYP) =  -705.806089605     A.U. after    9 cycles
 SCF Done:  E(RB3LYP) =  -705.806401011     A.U. after   10 cycles
 SCF Done:  E(RB3LYP) =  -705.806401088     A.U. after    7 cycles
 SCF Done:  E(RB3LYP) =  -705.806401122     A.U. after    7 cycles
 SCF Done:  E(RB3LYP) =  -705.806401165     A.U. after    7 cycles
 SCF Done:  E(RB3LYP) =  -705.806401176     A.U. after    6 cycles
 Optimization completed.
    -- Stationary point found.
 Normal termination of Gaussian 16 at Thu Dec 10 21:25:43 2020.

 --------------------------------------------------------------------
 #N Geom=AllCheck Guess=TCheck SCRF=Check GenChk RB3LYP/6-31G(d) Freq
 --------------------------------------------------------------------

 Structure from the checkpoint file:  "JID_6186.chk"
 ------------------------------
 CID_82285171_JID_6186_neutraal
 ------------------------------
 Charge =  0 Multiplicity = 1

 SCF Done:  E(RB3LYP) =  -705.806401176     A.U. after    1 cycles

  Exact polarizability: 245.876  -4.392 138.054  10.135   3.694  80.000
 Approx polarizability: 318.626  -5.290 243.434  22.557   6.338 119.634

                      1                      2                      3
                      A                      A                      A
 Frequencies --     27.1501                37.2914                61.6152
 Red. masses --      3.9351                 4.1330                 3.6562
 Frc consts  --      0.0017                 0.0034                 0.0082
 IR Inten    --      0.3885                 0.8980                 1.0668

                      4                      5                      6
                      A                      A                      A
 Frequencies --     80.4497               103.5795               119.6364
 Red. masses --      4.2893                 3.6408                 4.5494
 Frc consts  --      0.0164                 0.0230                 0.0384
 IR Inten    --      2.1819                 2.5402                 1.0616

                      7                      8                      9
                      A                      A                      A
 Frequencies --    146.1568               200.9721               238.5597
 Red. masses --      2.7341                 2.7973                 3.4632
 Frc consts  --      0.0344                 0.0666                 0.1161
 IR Inten    --      2.3987                 7.9244                 1.2510

                     10                     11                     12
                      A                      A                      A
 Frequencies --    263.0986               266.4836               298.1456
 Red. masses --      1.2236                 5.1489                 1.2087
 Frc consts  --      0.0499                 0.2154                 0.0633
 IR Inten    --      4.4123                 3.3113                88.0125

                     13                     14                     15
                      A                      A                      A
 Frequencies --    337.5839               360.4883               397.9596
 Red. masses --      3.9731                 2.7226                 4.4534
 Frc consts  --      0.2668                 0.2085                 0.4155
 IR Inten    --      5.0085                16.4109                 0.7670

                     16                     17                     18
                      A                      A                      A
 Frequencies --    426.8179               458.0000               472.6527
 Red. masses --      3.2788                 4.4432                 3.0598
 Frc consts  --      0.3519                 0.5491                 0.4027
 IR Inten    --      0.1149                 3.2518                 4.7111

                     19                     20                     21
                      A                      A                      A
 Frequencies --    515.6748               542.4669               608.3484
 Red. masses --      3.3124                 2.4968                 4.5168
 Frc consts  --      0.5190                 0.4329                 0.9849
 IR Inten    --      0.2569                 7.1072                18.7080

                     22                     23                     24
                      A                      A                      A
 Frequencies --    643.8535               658.2185               678.7927
 Red. masses --      5.1997                 5.0961                 5.6102
 Frc consts  --      1.2700                 1.3008                 1.5230
 IR Inten    --      2.8209                10.0307                 9.8084

                     25                     26                     27
                      A                      A                      A
 Frequencies --    705.3818               719.3091               785.6552
 Red. masses --      2.6130                 4.2940                 1.4685
 Frc consts  --      0.7660                 1.3090                 0.5340
 IR Inten    --     18.8613                 0.1739                 9.9625

                     28                     29                     30
                      A                      A                      A
 Frequencies --    814.1247               823.4490               852.9684
 Red. masses --      1.3311                 5.1829                 1.5831
 Frc consts  --      0.5198                 2.0706                 0.6786
 IR Inten    --     13.3473                 2.1609                36.3342

                     31                     32                     33
                      A                      A                      A
 Frequencies --    867.0882               870.0898               904.9273
 Red. masses --      1.2839                 1.8969                 1.3550
 Frc consts  --      0.5687                 0.8461                 0.6538
 IR Inten    --     38.6256                32.6583                55.1546

                     34                     35                     36
                      A                      A                      A
 Frequencies --    918.9518               924.5135               971.0452
 Red. masses --      2.0034                 1.3054                 1.3389
 Frc consts  --      0.9968                 0.6574                 0.7438
 IR Inten    --     17.8625                 0.3678                 1.9909

                     37                     38                     39
                      A                      A                      A
 Frequencies --    980.4504              1030.3737              1038.9155
 Red. masses --      6.4104                 2.9052                 2.7559
 Frc consts  --      3.6307                 1.8172                 1.7526
 IR Inten    --     57.1462                 6.9546                22.0607

                     40                     41                     42
                      A                      A                      A
 Frequencies --   1063.5269              1077.6169              1086.9201
 Red. masses --      1.9336                 3.8815                 3.9300
 Frc consts  --      1.2886                 2.6557                 2.7355
 IR Inten    --     20.6987                26.4815                51.8797

                     43                     44                     45
                      A                      A                      A
 Frequencies --   1117.5658              1143.7656              1179.2598
 Red. masses --      1.9220                 1.2951                 1.3526
 Frc consts  --      1.4143                 0.9982                 1.1083
 IR Inten    --      6.3141                11.5619                 3.0066

                     46                     47                     48
                      A                      A                      A
 Frequencies --   1186.9141              1202.0355              1211.3512
 Red. masses --      1.2715                 1.3606                 1.2343
 Frc consts  --      1.0553                 1.1583                 1.0671
 IR Inten    --      0.7695                27.7007                 3.3215

                     49                     50                     51
                      A                      A                      A
 Frequencies --   1220.4317              1235.1931              1255.9022
 Red. masses --      1.3632                 1.7843                 1.4523
 Frc consts  --      1.1963                 1.6039                 1.3496
 IR Inten    --     10.5904                 3.6733                14.4563

                     52                     53                     54
                      A                      A                      A
 Frequencies --   1286.6528              1301.6324              1347.5050
 Red. masses --      3.1905                 4.5460                 1.4622
 Frc consts  --      3.1119                 4.5379                 1.5643
 IR Inten    --     34.0928               276.2363                28.6468

                     55                     56                     57
                      A                      A                      A
 Frequencies --   1357.8159              1371.9063              1377.5369
 Red. masses --      1.2701                 1.6915                 4.0424
 Frc consts  --      1.3797                 1.8758                 4.5195
 IR Inten    --      6.7303                27.3742                26.5051

                     58                     59                     60
                      A                      A                      A
 Frequencies --   1425.0242              1437.0829              1443.4365
 Red. masses --      3.7009                 2.0415                 2.5866
 Frc consts  --      4.4279                 2.4840                 3.1752
 IR Inten    --      2.4785                 6.3967                78.9403

                     61                     62                     63
                      A                      A                      A
 Frequencies --   1452.9221              1490.3027              1501.3606
 Red. masses --      3.1436                 3.6085                 1.2283
 Frc consts  --      3.9098                 4.7221                 1.6313
 IR Inten    --      3.9486                 0.4721                32.0674

                     64                     65                     66
                      A                      A                      A
 Frequencies --   1508.0908              1521.0490              1535.9894
 Red. masses --      1.1277                 1.0477                 1.0671
 Frc consts  --      1.5111                 1.4281                 1.4833
 IR Inten    --      4.8787                 5.6807                58.5022

                     67                     68                     69
                      A                      A                      A
 Frequencies --   1538.6294              1573.1420              1619.7893
 Red. masses --      1.0926                 2.7338                 5.4419
 Frc consts  --      1.5240                 3.9861                 8.4123
 IR Inten    --      1.4284               319.0679                 9.7604

                     70                     71                     72
                      A                      A                      A
 Frequencies --   1647.0947              1681.1997              1694.5794
 Red. masses --      6.9526                 5.8664                 1.0906
 Frc consts  --     11.1131                 9.7693                 1.8451
 IR Inten    --     15.0520                 9.9310                36.6452

                     73                     74                     75
                      A                      A                      A
 Frequencies --   2953.2410              3024.2071              3051.5296
 Red. masses --      1.0732                 1.0350                 1.0623
 Frc consts  --      5.5146                 5.5772                 5.8281
 IR Inten    --     75.3184                62.4481                19.2008

                     76                     77                     78
                      A                      A                      A
 Frequencies --   3073.0794              3082.3279              3097.9607
 Red. masses --      1.0872                 1.1066                 1.1037
 Frc consts  --      6.0492                 6.1943                 6.2411
 IR Inten    --     83.5266                44.5936                23.4945

                     79                     80                     81
                      A                      A                      A
 Frequencies --   3160.6218              3209.1460              3217.0524
 Red. masses --      1.0995                 1.0886                 1.0900
 Frc consts  --      6.4711                 6.6053                 6.6464
 IR Inten    --     28.7340                14.3892                 5.1687

                     82                     83                     84
                      A                      A                      A
 Frequencies --   3233.6493              3246.5757              3256.3916
 Red. masses --      1.0921                 1.0930                 1.0960
 Frc consts  --      6.7282                 6.7875                 6.8476
 IR Inten    --      9.9743                 0.2384                 3.9947

                     85                     86                     87
                      A                      A                      A
 Frequencies --   3284.1447              3467.1369              3551.2984
 Red. masses --      1.0968                 1.0499                 1.0919
 Frc consts  --      6.9699                 7.4362                 8.1138
 IR Inten    --      0.3383                 3.4452                 0.0632

 - Thermochemistry -
 -------------------
 Temperature   298.150 Kelvin.  Pressure   1.00000 Atm.
 Atom     1 has atomic number  6 and mass  12.00000

 Molecular mass:   217.12151 amu.
 Principal axes and moments of inertia in atomic units:
                           1         2         3
     Eigenvalues --   967.176739268.409519711.31117
           X            0.99999  -0.00247  -0.00421
           Y            0.00253   0.99988   0.01535
           Z            0.00418  -0.01536   0.99987
 This molecule is an asymmetric top.
 Rotational symmetry number  1.
 Warning -- assumption of classical behavior for rotation
           may cause significant error
 Rotational temperatures (Kelvin)      0.08955     0.00935     0.00892
 Rotational constants (GHZ):           1.86599     0.19472     0.18584
 Zero-point vibrational energy     682785.5 (Joules/Mol)
                                  163.18966 (Kcal/Mol)
 Warning -- explicit consideration of  21 degrees of freedom as
           vibrations may cause significant error
 Vibrational temperatures:     39.06    53.65    88.65   115.75   149.03
          (Kelvin)            172.13   210.29   289.15   343.23   378.54
                              383.41   428.97   485.71   518.66   572.58
                              614.10   658.96   680.04   741.94   780.49
                              875.28   926.36   947.03   976.63  1014.89
                             1034.93  1130.38  1171.34  1184.76  1227.23
                             1247.55  1251.87  1301.99  1322.17  1330.17
                             1397.12  1410.65  1482.48  1494.77  1530.18
                             1550.45  1563.84  1607.93  1645.62  1696.69
                             1707.70  1729.46  1742.86  1755.93  1777.17
                             1806.96  1851.21  1872.76  1938.76  1953.59
                             1973.87  1981.97  2050.29  2067.64  2076.78
                             2090.43  2144.21  2160.12  2169.81  2188.45
                             2209.95  2213.74  2263.40  2330.52  2369.80
                             2418.87  2438.12  4249.06  4351.16  4390.47
                             4421.48  4434.78  4457.27  4547.43  4617.25
                             4628.62  4652.50  4671.10  4685.22  4725.15
                             4988.44  5109.53

 Zero-point correction=                           0.260059 (Hartree/Particle)
 Thermal correction to Energy=                    0.274779
 Thermal correction to Enthalpy=                  0.275723
 Thermal correction to Gibbs Free Energy=         0.216755
 Sum of electronic and zero-point Energies=           -705.546342
 Sum of electronic and thermal Energies=              -705.531622
 Sum of electronic and thermal Enthalpies=            -705.530678
 Sum of electronic and thermal Free Energies=         -705.589646

                     E (Thermal)             CV                S
                      KCal/Mol        Cal/Mol-Kelvin    Cal/Mol-Kelvin
 Total                  172.426             55.932            124.109
 Electronic               0.000              0.000              0.000
 Translational            0.889              2.981             42.029
 Rotational               0.889              2.981             32.832
 Vibrational            170.649             49.970             49.248
 Vibration     1          0.593              1.984              6.027
 Vibration     2          0.594              1.982              5.398
 Vibration     3          0.597              1.973              4.405
 Vibration     4          0.600              1.962              3.880
 Vibration     5          0.605              1.946              3.386
 Vibration     6          0.609              1.933              3.106
 Vibration     7          0.617              1.907              2.722
 Vibration     8          0.638              1.839              2.124
 Vibration     9          0.657              1.782              1.814
 Vibration    10          0.670              1.740              1.641
 Vibration    11          0.672              1.735              1.619
 Vibration    12          0.691              1.677              1.427
 Vibration    13          0.718              1.600              1.224
 Vibration    14          0.735              1.554              1.120
 Vibration    15          0.764              1.475              0.970
 Vibration    16          0.788              1.412              0.869
 Vibration    17          0.816              1.343              0.772
 Vibration    18          0.830              1.311              0.730
 Vibration    19          0.871              1.215              0.620
 Vibration    20          0.898              1.156              0.560
 Vibration    21          0.967              1.014              0.436

 Optimization completed.
    -- Stationary point found.
 Normal termination of Gaussian 16 at Thu Dec 10 21:34:11 2020.

 ----------------------------------------------------------------------
 # B3LYP/6-311++G(d,p) empiricaldispersion=gd3bj scf=xqc pop=npa geom=c
 heck
 ----------------------------------------------------------------------

 --------------------------------------
 CID_82285171_JID_6186_Energie_neutraal
 --------------------------------------
 Structure from the checkpoint file:  "JID_6186.chk"
 Charge =  0 Multiplicity = 1

 SCF Done:  E(RB3LYP) =  -706.002164348     A.U. after   15 cycles
 Normal termination of Gaussian 16 at Thu Dec 10 21:38:21 2020.

 ----------------------------------------------------------------------
 # B3LYP/6-311++G(d,p) empiricaldispersion=gd3bj scf=xqc pop=npa geom=c
 heck
 ----------------------------------------------------------------------

 ------------------------------------
 CID_82285171_JID_6186_Energie_kation
 ------------------------------------
 Structure from the checkpoint file:  "JID_6186.chk"
 Charge =  1 Multiplicity = 2

 SCF Done:  E(UB3LYP) =  -705.728441955     A.U. after   25 cycles
 Normal termination of Gaussian 16 at Thu Dec 10 21:48:18 2020.
 Gaussian 16:  ES64L-G16RevA.03 25-Dec-2016

 ----------------------------------------------------------------------
 # B3LYP/6-311++G(d,p) empiricaldispersion=gd3bj scf=xqc pop=npa geom=c
 heck
 ----------------------------------------------------------------------

 -----------------------------------
 CID_82285171_JID_6186_Energie_anion
 -----------------------------------
 Structure from the checkpoint file:  "JID_6186.chk"
 Charge = -1 Multiplicity = 2

                         Standard orientation:
 ---------------------------------------------------------------------
 Center     Atomic      Atomic             Coordinates (Angstroms)
 Number     Number       Type             X           Y           Z
 ---------------------------------------------------------------------
      1          6           0        5.652882   -0.925951    0.290213
      2          8           0        4.882006    0.257189    0.410781
      3          6           0        3.538353    0.167433    0.191190
      4          6           0        2.817264    1.364131    0.316782
      5          6           0        1.445281    1.384236    0.124373
      6          6           0        0.768369    0.203605   -0.208904
      7          6           0        1.482809   -0.983899   -0.353582
      8          6           0        2.863435   -1.009731   -0.145091
      9          7           0       -0.636060    0.231681   -0.393927
     10          6           0       -1.521222   -0.804235   -0.280598
     11          6           0       -2.781150   -0.303249   -0.551602
     12          6           0       -2.546043    1.072378   -0.812948
     13          7           0       -1.258325    1.394006   -0.719225
     14          6           0       -4.096491   -1.024375   -0.504993
     15          6           0       -4.812065   -0.875436    0.848241
     16          7           0       -5.122556    0.532128    1.108203
     17          1           0        6.682668   -0.637090    0.506388
     18          1           0        5.597363   -1.341043   -0.724926
     19          1           0        5.331229   -1.691093    1.009330
     20          1           0        3.357368    2.269061    0.574698
     21          1           0        0.879872    2.302821    0.220791
     22          1           0        0.975386   -1.895748   -0.650143
     23          1           0        3.395041   -1.945872   -0.264526
     24          1           0       -1.201086   -1.795883    0.001370
     25          1           0       -3.273672    1.829866   -1.074364
     26          1           0       -4.759383   -0.632986   -1.284967
     27          1           0       -3.945524   -2.091474   -0.708630
     28          1           0       -5.758562   -1.428079    0.808686
     29          1           0       -4.190591   -1.351765    1.628519
     30          1           0       -5.644374    0.614769    1.978825
     31          1           0       -4.251727    1.042854    1.248863
 ---------------------------------------------------------------------

 SCF Done:  E(UB3LYP) =  -705.992801699     A.U. after   33 cycles
 SCF Done:  E(UB3LYP) =  -705.992801699     a.u. after    1 cycles

 The electronic state is 2-A.
 Alpha  occ. eigenvalues --  -19.06352 -14.30024 -14.23345 -14.20303 -10.14146
 Alpha  occ. eigenvalues --  -10.13053 -10.12204 -10.10731 -10.10274 -10.09479
 Alpha  occ. eigenvalues --  -10.08660 -10.08639 -10.08421 -10.08296 -10.08271
 Alpha  occ. eigenvalues --  -10.07901  -0.97987  -0.95846  -0.79600  -0.78361
 Alpha  occ. eigenvalues --   -0.73503  -0.70791  -0.66626  -0.66232  -0.63347
 Alpha  occ. eigenvalues --   -0.60252  -0.54562  -0.52879  -0.51713  -0.48021
 Alpha  occ. eigenvalues --   -0.47573  -0.45312  -0.43323  -0.40612  -0.39875
 Alpha  occ. eigenvalues --   -0.38107  -0.37982  -0.36922  -0.35892  -0.35596
 Alpha  occ. eigenvalues --   -0.34110  -0.33810  -0.32486  -0.31489  -0.30630
 Alpha  occ. eigenvalues --   -0.29339  -0.28466  -0.27894  -0.27441  -0.26207
 Alpha  occ. eigenvalues --   -0.24288  -0.23992  -0.20024  -0.18113  -0.17081
 Alpha  occ. eigenvalues --   -0.15977  -0.15197  -0.11835   0.03846
 Alpha virt. eigenvalues --    0.05222   0.06193   0.06814   0.07265   0.07509
 Alpha virt. eigenvalues --    0.08147   0.08642   0.08982   0.09393   0.09966
 Alpha virt. eigenvalues --    0.10762   0.10991   0.11695   0.11878   0.12240

  Beta  occ. eigenvalues --  -19.06336 -14.30010 -14.23302 -14.20276 -10.14108
  Beta  occ. eigenvalues --  -10.13005 -10.12175 -10.10672 -10.10252 -10.09480
  Beta  occ. eigenvalues --  -10.08664 -10.08572 -10.08416 -10.08286 -10.08255
  Beta  occ. eigenvalues --  -10.07901  -0.97946  -0.95791  -0.79555  -0.78292
  Beta  occ. eigenvalues --   -0.73444  -0.70722  -0.66548  -0.66175  -0.63288
  Beta  occ. eigenvalues --   -0.60184  -0.54477  -0.52836  -0.51639  -0.47985
  Beta  occ. eigenvalues --   -0.47494  -0.45258  -0.43278  -0.40557  -0.39823
  Beta  occ. eigenvalues --   -0.38053  -0.37917  -0.36874  -0.35757  -0.35549
  Beta  occ. eigenvalues --   -0.34064  -0.33774  -0.32434  -0.31460  -0.30592
  Beta  occ. eigenvalues --   -0.29232  -0.28395  -0.27852  -0.27399  -0.26176
  Beta  occ. eigenvalues --   -0.24242  -0.23859  -0.19971  -0.17995  -0.16929
  Beta  occ. eigenvalues --   -0.15869  -0.15020  -0.11680
  Beta virt. eigenvalues --    0.05988   0.06374   0.06735   0.07343   0.07523
  Beta virt. eigenvalues --    0.08029   0.08255   0.08671   0.09443   0.10101
  Beta virt. eigenvalues --    0.10300   0.11001   0.11125   0.11778   0.11985

 Mulliken charges and spin densities:
               1          2
     1  C    0.775578  -1.094856
     2  O   -0.214210   0.054863
     3  C   -1.162235   0.536978
     4  C   -0.434413   0.037886
     5  C    0.060312   0.233366
     6  C    0.531874  -1.426231
     7  C    1.349341  -1.032013
     8  C   -0.276779   0.710484
     9  N    0.324332   0.030287
    10  C    0.457919  -0.959465
    11  C    0.118918   0.653630
    12  C   -0.244108  -0.020420
    13  N   -0.119596   0.055404
    14  C   -0.913319   0.212835
    15  C    0.714365  -1.169612
    16  N   -0.495253   0.081152
    17  H   -0.502919   0.673594
    18  H   -0.172408   0.325362
    19  H   -0.303859   0.463153
    20  H    0.167616   0.007988
    21  H    0.166684   0.055093
    22  H   -0.653032   0.809552
    23  H   -0.123948   0.341645
    24  H    0.140120   0.027079
    25  H    0.123328   0.019073
    26  H    0.112603   0.036761
    27  H   -0.230835   0.388425
    28  H   -0.239588   0.391938
    29  H   -0.105477   0.223142
    30  H   -0.070714   0.307437
    31  H    0.219706   0.025470
 Sum of Mulliken charges =  -1.00000   1.00000

 Dipole moment (field-independent basis, Debye):
    X=             -1.6321    Y=              3.6438    Z=             -0.0552  Tot=              3.9930
 Quadrupole moment (field-independent basis, Debye-Ang):
   XX=           -228.4000   YY=           -131.3523   ZZ=           -122.7871
   XY=              9.9920   XZ=              4.4726   YZ=              0.8274

 Summary of Natural Population Analysis:

                                       Natural Population
                Natural  -----------------------------------------------
    Atom  No    Charge         Core      Valence    Rydberg      Total
 -----------------------------------------------------------------------
      C    1   -0.10092      0.99960     2.09216    0.00915     3.10092
      O    2   -0.27324      0.99986     3.26366    0.00973     4.27324
      C    3    0.16106      0.99938     1.82547    0.01409     2.83894
      C    4   -0.11435      0.99953     2.10597    0.00885     3.11435
      C    5   -0.09742      0.99954     2.09025    0.00764     3.09742
      C    6    0.06837      0.99946     1.92029    0.01187     2.93163
      C    7   -0.08903      0.99954     2.08028    0.00921     3.08903
      C    8   -0.14054      0.99953     2.13194    0.00907     3.14054
      N    9   -0.09929      0.99962     2.58755    0.01212     3.59929
      C   10    0.00340      0.99950     1.98675    0.01035     2.99660
      C   11   -0.07330      0.99952     2.06328    0.01049     3.07330
      C   12   -0.01468      0.99958     2.00128    0.01382     3.01468
      N   13   -0.14914      0.99973     2.63841    0.01100     3.64914
      C   14   -0.20249      0.99960     2.19269    0.01021     3.20249
      C   15   -0.08276      0.99964     2.07228    0.01084     3.08276
      N   16   -0.42679      0.99977     2.91603    0.01099     3.92679
      H   17    0.09389      0.00000     0.40478    0.00133     0.40611
      H   18    0.08478      0.00000     0.41364    0.00159     0.41522
      H   19    0.08701      0.00000     0.41093    0.00206     0.41299
      H   20    0.10472      0.00000     0.39435    0.00093     0.39528
      H   21    0.11389      0.00000     0.38501    0.00110     0.38611
      H   22    0.10548      0.00000     0.39299    0.00152     0.39452
      H   23    0.10922      0.00000     0.38902    0.00176     0.39078
      H   24    0.10638      0.00000     0.39235    0.00127     0.39362
      H   25    0.09961      0.00000     0.39942    0.00097     0.40039
      H   26    0.10313      0.00000     0.39565    0.00122     0.39687
      H   27    0.10489      0.00000     0.39392    0.00119     0.39511
      H   28    0.08981      0.00000     0.40851    0.00168     0.41019
      H   29    0.07745      0.00000     0.42074    0.00180     0.42255
      H   30    0.17537      0.00000     0.32283    0.00181     0.32463
      H   31    0.17547      0.00000     0.32254    0.00199     0.32453
 =======================================================================
   * Total *   -0.00000     15.99341    41.81495    0.19164    58.00000

 Normal termination of Gaussian 16 at Thu Dec 10 22:01:15 2020.
