 Gaussian 16, Revision A.03,

 -----------------------------------------------------------
 # opt freq B3LYP/6-31G(d) empiricaldispersion=gd3bj scf=xqc
 -----------------------------------------------------------

 -------------------------------
 CID_103120675_JID_6049_neutraal
 -------------------------------
 Symbolic Z-matrix:
 Charge =  0 Multiplicity = 1

 SCF Done:  E(RB3LYP) =  -737.890325043     A.U. after   15 cycles
 SCF Done:  E(RB3LYP) =  -737.895781675     A.U. after   13 cycles
 SCF Done:  E(RB3LYP) =  -737.896498989     A.U. after   12 cycles
 SCF Done:  E(RB3LYP) =  -737.897108056     A.U. after   12 cycles
 SCF Done:  E(RB3LYP) =  -737.897278376     A.U. after   12 cycles
 SCF Done:  E(RB3LYP) =  -737.897342539     A.U. after   12 cycles
 SCF Done:  E(RB3LYP) =  -737.897392316     A.U. after   10 cycles
 SCF Done:  E(RB3LYP) =  -737.897418750     A.U. after   10 cycles
 SCF Done:  E(RB3LYP) =  -737.897423809     A.U. after    9 cycles
 SCF Done:  E(RB3LYP) =  -737.897424786     A.U. after    8 cycles
 SCF Done:  E(RB3LYP) =  -737.897425165     A.U. after    8 cycles
 SCF Done:  E(RB3LYP) =  -737.897425410     A.U. after    7 cycles
 SCF Done:  E(RB3LYP) =  -737.897425550     A.U. after    7 cycles
 SCF Done:  E(RB3LYP) =  -737.897425650     A.U. after    7 cycles
 SCF Done:  E(RB3LYP) =  -737.897425706     A.U. after    7 cycles
 Optimization completed.
    -- Stationary point found.
 Normal termination of Gaussian 16 at Thu Dec 10 21:10:28 2020.

 --------------------------------------------------------------------
 #N Geom=AllCheck Guess=TCheck SCRF=Check GenChk RB3LYP/6-31G(d) Freq
 --------------------------------------------------------------------

 Structure from the checkpoint file:  "JID_6049.chk"
 -------------------------------
 CID_103120675_JID_6049_neutraal
 -------------------------------
 Charge =  0 Multiplicity = 1

 SCF Done:  E(RB3LYP) =  -737.897425706     A.U. after    1 cycles

  Exact polarizability: 189.567 -11.665 139.139 -25.193  -5.652  85.563
 Approx polarizability: 266.860 -26.047 268.032 -51.443 -14.983 135.609

                      1                      2                      3
                      A                      A                      A
 Frequencies --     24.4256                27.1381                48.3400
 Red. masses --      4.3422                 5.4299                 4.2044
 Frc consts  --      0.0015                 0.0024                 0.0058
 IR Inten    --      0.6528                 0.1819                 2.0132

                      4                      5                      6
                      A                      A                      A
 Frequencies --    103.4660               113.9141               136.1301
 Red. masses --      4.0981                 3.3885                 5.0104
 Frc consts  --      0.0258                 0.0259                 0.0547
 IR Inten    --      2.1536                 1.7520                 0.1406

                      7                      8                      9
                      A                      A                      A
 Frequencies --    157.7498               202.2712               220.4299
 Red. masses --      3.4322                 1.5505                 4.7268
 Frc consts  --      0.0503                 0.0374                 0.1353
 IR Inten    --      1.0313                 2.2968                 1.2895

                     10                     11                     12
                      A                      A                      A
 Frequencies --    267.3328               286.2914               313.0349
 Red. masses --      4.9167                 1.9020                 3.8660
 Frc consts  --      0.2070                 0.0918                 0.2232
 IR Inten    --      4.2911                 7.5441                 1.1112

                     13                     14                     15
                      A                      A                      A
 Frequencies --    378.9983               408.6358               420.6069
 Red. masses --      2.4257                 7.5551                 2.5016
 Frc consts  --      0.2053                 0.7433                 0.2607
 IR Inten    --      6.1823                 1.8870                 2.1604

                     16                     17                     18
                      A                      A                      A
 Frequencies --    432.9205               527.9082               565.0698
 Red. masses --      2.8694                 4.6929                 3.5103
 Frc consts  --      0.3169                 0.7706                 0.6604
 IR Inten    --      9.6928                 2.5854                 5.2234

                     19                     20                     21
                      A                      A                      A
 Frequencies --    597.4130               610.8522               630.7379
 Red. masses --      4.8244                 5.0095                 3.2486
 Frc consts  --      1.0145                 1.1013                 0.7615
 IR Inten    --     15.3066                 8.2938                45.8891

                     22                     23                     24
                      A                      A                      A
 Frequencies --    648.8647               703.2568               732.6615
 Red. masses --      4.4226                 5.7723                 2.2039
 Frc consts  --      1.0971                 1.6820                 0.6970
 IR Inten    --      4.3452                15.3313                44.9977

                     25                     26                     27
                      A                      A                      A
 Frequencies --    745.1638               767.3960               800.3414
 Red. masses --      1.7618                 3.1470                 3.5361
 Frc consts  --      0.5764                 1.0919                 1.3345
 IR Inten    --    129.2387                14.1609                 6.9503

                     28                     29                     30
                      A                      A                      A
 Frequencies --    817.5533               825.5744               830.8387
 Red. masses --      1.4102                 3.6344                 2.4692
 Frc consts  --      0.5553                 1.4595                 1.0042
 IR Inten    --     32.8808                 3.8930                56.6220

                     31                     32                     33
                      A                      A                      A
 Frequencies --    897.9020               904.3023               907.6822
 Red. masses --      2.2227                 2.0136                 2.6296
 Frc consts  --      1.0558                 0.9702                 1.2765
 IR Inten    --     11.7289                13.4678                14.0779

                     34                     35                     36
                      A                      A                      A
 Frequencies --    940.5274               967.4299               999.9095
 Red. masses --      1.2528                 1.4054                 2.0720
 Frc consts  --      0.6529                 0.7750                 1.2206
 IR Inten    --      0.6615                 1.5229                 8.2996

                     37                     38                     39
                      A                      A                      A
 Frequencies --   1023.6882              1060.3788              1071.2177
 Red. masses --      1.9864                 2.2898                 2.4564
 Frc consts  --      1.2265                 1.5170                 1.6607
 IR Inten    --      9.5112                 5.7585                41.8309

                     40                     41                     42
                      A                      A                      A
 Frequencies --   1139.5136              1164.2705              1179.4427
 Red. masses --      2.9341                 1.4891                 2.4852
 Frc consts  --      2.2448                 1.1893                 2.0369
 IR Inten    --     10.8403                 3.6690                55.8345

                     43                     44                     45
                      A                      A                      A
 Frequencies --   1196.5407              1207.7417              1218.0152
 Red. masses --      2.0547                 2.0832                 1.4184
 Frc consts  --      1.7332                 1.7903                 1.2398
 IR Inten    --     18.3292                15.6037                 9.6282

                     46                     47                     48
                      A                      A                      A
 Frequencies --   1255.6869              1274.0487              1303.0183
 Red. masses --      2.6517                 2.0109                 2.4783
 Frc consts  --      2.4634                 1.9231                 2.4792
 IR Inten    --     62.1239                21.1718                13.4016

                     49                     50                     51
                      A                      A                      A
 Frequencies --   1325.5501              1331.4858              1346.1415
 Red. masses --      1.5873                 1.7156                 3.4582
 Frc consts  --      1.6433                 1.7920                 3.6921
 IR Inten    --     28.3841                51.1707                60.0560

                     52                     53                     54
                      A                      A                      A
 Frequencies --   1374.1605              1392.5011              1407.9363
 Red. masses --      2.2118                 1.6737                 1.2488
 Frc consts  --      2.4607                 1.9122                 1.4586
 IR Inten    --     16.3068                70.1670                 7.8883

                     55                     56                     57
                      A                      A                      A
 Frequencies --   1435.4794              1478.2080              1483.4455
 Red. masses --      2.7651                 1.4381                 1.2501
 Frc consts  --      3.3571                 1.8515                 1.6208
 IR Inten    --    143.6019                19.1797                 9.4132

                     58                     59                     60
                      A                      A                      A
 Frequencies --   1486.5038              1502.7397              1507.0240
 Red. masses --      2.1955                 2.8469                 1.1781
 Frc consts  --      2.8583                 3.7878                 1.5765
 IR Inten    --      4.0964                 3.3942                 7.4013

                     61                     62                     63
                      A                      A                      A
 Frequencies --   1518.1208              1524.4420              1534.7787
 Red. masses --      1.1823                 1.1060                 1.1828
 Frc consts  --      1.6054                 1.5144                 1.6415
 IR Inten    --     23.4064                 1.2255                21.4599

                     64                     65                     66
                      A                      A                      A
 Frequencies --   1551.2543              1558.6903              1569.0052
 Red. masses --      1.0804                 6.5185                 4.3348
 Frc consts  --      1.5318                 9.3308                 6.2874
 IR Inten    --      4.6784                 4.7533               275.9069

                     67                     68                     69
                      A                      A                      A
 Frequencies --   1667.9046              1740.8936              2943.5317
 Red. masses --      6.3620                 7.2706                 1.0626
 Frc consts  --     10.4277                12.9827                 5.4247
 IR Inten    --     13.0426               223.1364                91.1076

                     70                     71                     72
                      A                      A                      A
 Frequencies --   3041.2041              3072.0080              3087.3535
 Red. masses --      1.0638                 1.0709                 1.0809
 Frc consts  --      5.7970                 5.9546                 6.0701
 IR Inten    --     31.9332                50.8912                 7.6079

                     73                     74                     75
                      A                      A                      A
 Frequencies --   3100.0185              3123.8581              3134.1203
 Red. masses --      1.0808                 1.1018                 1.1044
 Frc consts  --      6.1195                 6.3349                 6.3918
 IR Inten    --     58.4253                28.7833                34.3270

                     76                     77                     78
                      A                      A                      A
 Frequencies --   3219.8435              3232.3975              3269.4710
 Red. masses --      1.0904                 1.0926                 1.0962
 Frc consts  --      6.6608                 6.7264                 6.9038
 IR Inten    --     12.6345                 0.1987                 2.1931

                     79                     80                     81
                      A                      A                      A
 Frequencies --   3277.2704              3510.0268              3562.2156
 Red. masses --      1.0959                 1.0743                 1.0748
 Frc consts  --      6.9350                 7.7980                 8.0360
 IR Inten    --      3.2530                 0.3095                18.9927

 - Thermochemistry -
 -------------------
 Temperature   298.150 Kelvin.  Pressure   1.00000 Atm.
 Atom     1 has atomic number  6 and mass  12.00000

 Molecular mass:   219.11201 amu.
 Principal axes and moments of inertia in atomic units:
                           1         2         3
     Eigenvalues --  1664.240365914.941436388.02295
           X            0.99999   0.00096   0.00433
           Y           -0.00099   0.99998   0.00679
           Z           -0.00433  -0.00680   0.99997
 This molecule is an asymmetric top.
 Rotational symmetry number  1.
 Warning -- assumption of classical behavior for rotation
           may cause significant error
 Rotational temperatures (Kelvin)      0.05204     0.01464     0.01356
 Rotational constants (GHZ):           1.08442     0.30512     0.28252
 Zero-point vibrational energy     624248.6 (Joules/Mol)
                                  149.19900 (Kcal/Mol)
 Warning -- explicit consideration of  20 degrees of freedom as
           vibrations may cause significant error
 Vibrational temperatures:     35.14    39.05    69.55   148.86   163.90
          (Kelvin)            195.86   226.97   291.02   317.15   384.63
                              411.91   450.39   545.29   587.94   605.16
                              622.88   759.54   813.01   859.54   878.88
                              907.49   933.57  1011.83  1054.14  1072.12
                             1104.11  1151.51  1176.28  1187.82  1195.39
                             1291.88  1301.09  1305.95  1353.21  1391.92
                             1438.65  1472.86  1525.65  1541.24  1639.51
                             1675.13  1696.96  1721.56  1737.67  1752.45
                             1806.65  1833.07  1874.75  1907.17  1915.71
                             1936.80  1977.11  2003.50  2025.71  2065.33
                             2126.81  2134.35  2138.75  2162.11  2168.27
                             2184.24  2193.33  2208.20  2231.91  2242.61
                             2257.45  2399.74  2504.76  4235.09  4375.61
                             4419.93  4442.01  4460.24  4494.54  4509.30
                             4632.64  4650.70  4704.04  4715.26  5050.15
                             5125.23

 Zero-point correction=                           0.237764 (Hartree/Particle)
 Thermal correction to Energy=                    0.251834
 Thermal correction to Enthalpy=                  0.252778
 Thermal correction to Gibbs Free Energy=         0.194734
 Sum of electronic and zero-point Energies=           -737.659662
 Sum of electronic and thermal Energies=              -737.645592
 Sum of electronic and thermal Enthalpies=            -737.644648
 Sum of electronic and thermal Free Energies=         -737.702692

                     E (Thermal)             CV                S
                      KCal/Mol        Cal/Mol-Kelvin    Cal/Mol-Kelvin
 Total                  158.028             53.026            122.164
 Electronic               0.000              0.000              0.000
 Translational            0.889              2.981             42.056
 Rotational               0.889              2.981             32.508
 Vibrational            156.251             47.064             47.600
 Vibration     1          0.593              1.985              6.237
 Vibration     2          0.593              1.984              6.028
 Vibration     3          0.595              1.978              4.884
 Vibration     4          0.605              1.946              3.388
 Vibration     5          0.607              1.938              3.201
 Vibration     6          0.614              1.917              2.858
 Vibration     7          0.621              1.894              2.577
 Vibration     8          0.639              1.837              2.112
 Vibration     9          0.647              1.810              1.956
 Vibration    10          0.672              1.733              1.613
 Vibration    11          0.684              1.699              1.496
 Vibration    12          0.701              1.649              1.346
 Vibration    13          0.749              1.515              1.043
 Vibration    14          0.773              1.451              0.931
 Vibration    15          0.783              1.425              0.890
 Vibration    16          0.794              1.399              0.849
 Vibration    17          0.883              1.188              0.592
 Vibration    18          0.921              1.107              0.514
 Vibration    19          0.955              1.037              0.454
 Vibration    20          0.970              1.009              0.431

                           ! Non-Optimized Parameters !
 Normal termination of Gaussian 16 at Thu Dec 10 21:19:32 2020.

 ----------------------------------------------------------------------
 # B3LYP/6-311++G(d,p) empiricaldispersion=gd3bj scf=xqc pop=npa geom=c
 heck
 ----------------------------------------------------------------------

 ---------------------------------------
 CID_103120675_JID_6049_Energie_neutraal
 ---------------------------------------
 Structure from the checkpoint file:  "JID_6049.chk"
 Charge =  0 Multiplicity = 1

 SCF Done:  E(RB3LYP) =  -738.101963360     A.U. after   16 cycles
 Normal termination of Gaussian 16 at Thu Dec 10 21:23:15 2020.

 ----------------------------------------------------------------------
 # B3LYP/6-311++G(d,p) empiricaldispersion=gd3bj scf=xqc pop=npa geom=c
 heck
 ----------------------------------------------------------------------

 -------------------------------------
 CID_103120675_JID_6049_Energie_kation
 -------------------------------------
 Structure from the checkpoint file:  "JID_6049.chk"
 Charge =  1 Multiplicity = 2

 SCF Done:  E(UB3LYP) =  -737.803931242     A.U. after   26 cycles
 Normal termination of Gaussian 16 at Thu Dec 10 21:31:22 2020.
 Gaussian 16:  ES64L-G16RevA.03 25-Dec-2016

 ----------------------------------------------------------------------
 # B3LYP/6-311++G(d,p) empiricaldispersion=gd3bj scf=xqc pop=npa geom=c
 heck
 ----------------------------------------------------------------------

 ------------------------------------
 CID_103120675_JID_6049_Energie_anion
 ------------------------------------
 Structure from the checkpoint file:  "JID_6049.chk"
 Charge = -1 Multiplicity = 2

                         Standard orientation:
 ---------------------------------------------------------------------
 Center     Atomic      Atomic             Coordinates (Angstroms)
 Number     Number       Type             X           Y           Z
 ---------------------------------------------------------------------
      1          6           0       -4.557908   -0.885332   -0.801065
      2          7           0       -3.174672   -0.800410   -1.245785
      3          6           0       -2.590945    0.531483   -1.196617
      4          6           0       -2.574205    1.219888    0.187172
      5          7           0       -2.029785    0.364125    1.246772
      6          6           0       -0.807105   -0.277647    1.193561
      7          8           0       -0.677650   -1.417801    1.644046
      8          6           0        0.345130    0.443692    0.626523
      9          6           0        1.529467   -0.199006    0.217419
     10          6           0        2.026419   -1.523616    0.138243
     11          7           0        3.225325   -1.802621   -0.328440
     12          6           0        4.010067   -0.762580   -0.741698
     13          6           0        3.622321    0.548343   -0.692937
     14          7           0        2.374569    0.815872   -0.206424
     15          7           0        1.832328    2.047771   -0.077533
     16          6           0        0.611967    1.812537    0.423247
     17          1           0       -5.178735   -0.239207   -1.433169
     18          1           0       -4.740875   -0.591089    0.249973
     19          1           0       -4.913740   -1.913010   -0.923279
     20          1           0       -2.595433   -1.449848   -0.718369
     21          1           0       -1.560780    0.454565   -1.562197
     22          1           0       -3.133268    1.179354   -1.898981
     23          1           0       -2.019693    2.159231    0.125317
     24          1           0       -3.588295    1.483636    0.500558
     25          1           0       -2.712929   -0.265450    1.655437
     26          1           0        1.395550   -2.334828    0.486259
     27          1           0        4.993221   -1.019430   -1.122088
     28          1           0        4.212437    1.400301   -1.002777
     29          1           0       -0.021858    2.658446    0.647736
 ---------------------------------------------------------------------

 SCF Done:  E(UB3LYP) =  -738.119641648     A.U. after   30 cycles

 The electronic state is 2-A.
 Alpha  occ. eigenvalues --  -18.94848 -14.25073 -14.20796 -14.20626 -14.19557
 Alpha  occ. eigenvalues --  -14.13956 -10.13081 -10.10705 -10.10379 -10.09558
 Alpha  occ. eigenvalues --  -10.06692 -10.06258 -10.06207 -10.05976 -10.03795
 Alpha  occ. eigenvalues --  -10.02833  -0.92242  -0.90061  -0.82084  -0.78883
 Alpha  occ. eigenvalues --   -0.78620  -0.71017  -0.66065  -0.64130  -0.60408
 Alpha  occ. eigenvalues --   -0.58575  -0.52728  -0.51524  -0.50496  -0.47427
 Alpha  occ. eigenvalues --   -0.44325  -0.40747  -0.39422  -0.38076  -0.37287
 Alpha  occ. eigenvalues --   -0.36028  -0.34429  -0.33589  -0.33218  -0.32157
 Alpha  occ. eigenvalues --   -0.31453  -0.30668  -0.30417  -0.28350  -0.27500
 Alpha  occ. eigenvalues --   -0.27280  -0.25947  -0.25045  -0.24595  -0.22721
 Alpha  occ. eigenvalues --   -0.17280  -0.16892  -0.15206  -0.13275  -0.12993
 Alpha  occ. eigenvalues --   -0.11807  -0.10811  -0.08478   0.04239
 Alpha virt. eigenvalues --    0.06270   0.08490   0.08872   0.09588   0.10177
 Alpha virt. eigenvalues --    0.11073   0.11522   0.11931   0.12117   0.12578
 Alpha virt. eigenvalues --    0.12944   0.13219   0.13898   0.14841   0.15369

  Beta  occ. eigenvalues --  -18.94717 -14.24627 -14.20778 -14.20625 -14.19665
  Beta  occ. eigenvalues --  -14.13421 -10.12933 -10.10705 -10.10371 -10.09555
  Beta  occ. eigenvalues --  -10.06682 -10.06158 -10.06113 -10.05915 -10.03538
  Beta  occ. eigenvalues --  -10.02745  -0.91780  -0.89803  -0.82054  -0.78768
  Beta  occ. eigenvalues --   -0.77997  -0.70460  -0.65838  -0.64102  -0.60014
  Beta  occ. eigenvalues --   -0.58543  -0.52528  -0.51118  -0.50164  -0.47064
  Beta  occ. eigenvalues --   -0.44160  -0.40700  -0.39228  -0.38010  -0.37125
  Beta  occ. eigenvalues --   -0.35917  -0.34208  -0.33452  -0.32086  -0.31949
  Beta  occ. eigenvalues --   -0.31332  -0.30558  -0.30291  -0.28272  -0.27261
  Beta  occ. eigenvalues --   -0.27096  -0.25551  -0.24869  -0.24390  -0.21254
  Beta  occ. eigenvalues --   -0.16957  -0.15697  -0.14887  -0.13142  -0.12160
  Beta  occ. eigenvalues --   -0.11445  -0.10187  -0.07186
  Beta virt. eigenvalues --    0.06210   0.08403   0.08705   0.09532   0.09996
  Beta virt. eigenvalues --    0.10428   0.11008   0.11832   0.12199   0.12417
  Beta virt. eigenvalues --    0.12907   0.13116   0.13341   0.13911   0.14809

 Mulliken charges and spin densities:
               1          2
     1  C   -0.367988  -0.000698
     2  N   -0.139887   0.006437
     3  C   -0.645577  -0.011430
     4  C   -0.019083  -0.025335
     5  N   -0.182394   0.013764
     6  C   -0.705537   0.098400
     7  O   -0.349649   0.050624
     8  C    0.241805   0.061626
     9  C    0.005944   0.073959
    10  C   -0.153433   0.138728
    11  N   -0.140825   0.242405
    12  C   -0.373398  -0.112033
    13  C    0.099173   0.320796
    14  N    0.217940   0.073073
    15  N   -0.103877  -0.038392
    16  C   -0.488495   0.088537
    17  H    0.134460  -0.000041
    18  H    0.085701   0.002363
    19  H    0.135970   0.000157
    20  H    0.283467   0.005430
    21  H    0.235700   0.001533
    22  H    0.113360   0.004240
    23  H    0.109028   0.004201
    24  H    0.130673   0.031871
    25  H    0.291829   0.008707
    26  H    0.197565  -0.018457
    27  H    0.127033   0.004332
    28  H    0.151480  -0.018870
    29  H    0.109016  -0.005928
 Sum of Mulliken charges =  -1.00000   1.00000

 Dipole moment (field-independent basis, Debye):
    X=             -7.5703    Y=              3.2787    Z=             -1.2449  Tot=              8.3432
 Quadrupole moment (field-independent basis, Debye-Ang):
   XX=           -124.9973   YY=           -120.3689   ZZ=           -113.5560
   XY=              3.2883   XZ=             -0.7164   YZ=              1.3147

 Summary of Natural Population Analysis:

                                       Natural Population
                Natural  -----------------------------------------------
    Atom  No    Charge         Core      Valence    Rydberg      Total
 -----------------------------------------------------------------------
      C    1   -0.18026      0.99967     2.17337    0.00722     3.18026
      N    2   -0.34229      0.99976     2.82930    0.01323     3.84229
      C    3   -0.09558      0.99963     2.08667    0.00927     3.09558
      C    4   -0.10003      0.99963     2.08842    0.01199     3.10003
      N    5   -0.33243      0.99969     2.82019    0.01256     3.83243
      C    6    0.35057      0.99961     1.62868    0.02113     2.64943
      O    7   -0.31992      0.99988     3.31399    0.00604     4.31992
      C    8   -0.12715      0.99943     2.11551    0.01221     3.12715
      C    9    0.08073      0.99953     1.90508    0.01466     2.91927
      C   10    0.06725      0.99958     1.92011    0.01306     2.93275
      N   11   -0.16365      0.99971     2.65165    0.01228     3.66365
      C   12   -0.04217      0.99960     2.02927    0.01331     3.04217
      C   13    0.04115      0.99957     1.94603    0.01325     2.95885
      N   14   -0.03091      0.99959     2.51887    0.01245     3.53091
      N   15   -0.19157      0.99974     2.67942    0.01241     3.69157
      C   16    0.02075      0.99961     1.96465    0.01500     2.97925
      H   17    0.08728      0.00000     0.41176    0.00095     0.41272
      H   18    0.07357      0.00000     0.42464    0.00179     0.42643
      H   19    0.09328      0.00000     0.40593    0.00080     0.40672
      H   20    0.18149      0.00000     0.31626    0.00225     0.31851
      H   21    0.10649      0.00000     0.39211    0.00140     0.39351
      H   22    0.08543      0.00000     0.41358    0.00100     0.41457
      H   23    0.09859      0.00000     0.40033    0.00108     0.40141
      H   24    0.08916      0.00000     0.40990    0.00094     0.41084
      H   25    0.18347      0.00000     0.31465    0.00188     0.31653
      H   26    0.09634      0.00000     0.40254    0.00112     0.40366
      H   27    0.08479      0.00000     0.41406    0.00115     0.41521
      H   28    0.09658      0.00000     0.40254    0.00088     0.40342
      H   29    0.08905      0.00000     0.41014    0.00081     0.41095
 =======================================================================
   * Total *    0.00000     15.99422    41.78965    0.21613    58.00000

 Normal termination of Gaussian 16 at Thu Dec 10 21:41:26 2020.
