 Gaussian 16, Revision A.03,

 -----------------------------------------------------------
 # opt freq B3LYP/6-31G(d) empiricaldispersion=gd3bj scf=xqc
 -----------------------------------------------------------

 ------------------------------
 CID_67831789_JID_2879_neutraal
 ------------------------------
 Symbolic Z-matrix:
 Charge =  0 Multiplicity = 1

 SCF Done:  E(RB3LYP) =  -569.519974397     A.U. after   16 cycles
 SCF Done:  E(RB3LYP) =  -569.521367865     A.U. after   15 cycles
 SCF Done:  E(RB3LYP) =  -569.518256766     A.U. after   16 cycles
 SCF Done:  E(RB3LYP) =  -569.527026448     A.U. after   14 cycles
 SCF Done:  E(RB3LYP) =  -569.529088820     A.U. after   15 cycles
 SCF Done:  E(RB3LYP) =  -569.529342400     A.U. after   14 cycles
 SCF Done:  E(RB3LYP) =  -569.531100443     A.U. after   14 cycles
 SCF Done:  E(RB3LYP) =  -569.531837043     A.U. after   14 cycles
 SCF Done:  E(RB3LYP) =  -569.532171997     A.U. after   15 cycles
 SCF Done:  E(RB3LYP) =  -569.532223255     A.U. after   14 cycles
 SCF Done:  E(RB3LYP) =  -569.532354397     A.U. after   13 cycles
 SCF Done:  E(RB3LYP) =  -569.532355184     A.U. after    9 cycles
 SCF Done:  E(RB3LYP) =  -569.532355439     A.U. after    9 cycles
 SCF Done:  E(RB3LYP) =  -569.532355482     A.U. after    8 cycles
 SCF Done:  E(RB3LYP) =  -569.532355512     A.U. after    9 cycles
 SCF Done:  E(RB3LYP) =  -569.532355527     A.U. after    8 cycles
 Optimization completed.
    -- Stationary point found.
 Normal termination of Gaussian 16 at Wed Dec  9 18:15:07 2020.

 --------------------------------------------------------------------
 #N Geom=AllCheck Guess=TCheck SCRF=Check GenChk RB3LYP/6-31G(d) Freq
 --------------------------------------------------------------------

 Structure from the checkpoint file:  "JID_2879.chk"
 ------------------------------
 CID_67831789_JID_2879_neutraal
 ------------------------------
 Charge =  0 Multiplicity = 1

 SCF Done:  E(RB3LYP) =  -569.532355527     A.U. after    1 cycles

  Exact polarizability: 196.224  -5.352 102.935   5.071   8.482  47.618
 Approx polarizability: 334.282  -4.849 178.994   8.506  18.283  76.347

                      1                      2                      3
                      A                      A                      A
 Frequencies --     36.1125                43.5878                99.6614
 Red. masses --      5.0216                10.1278                 4.6746
 Frc consts  --      0.0039                 0.0113                 0.0274
 IR Inten    --      2.3139                 0.7266                 3.4845

                      4                      5                      6
                      A                      A                      A
 Frequencies --    151.7499               227.1872               279.6845
 Red. masses --      4.4686                 4.7840                 1.6425
 Frc consts  --      0.0606                 0.1455                 0.0757
 IR Inten    --      1.8252                 2.7922                16.5470

                      7                      8                      9
                      A                      A                      A
 Frequencies --    321.4142               361.5047               417.2366
 Red. masses --      4.6905                 2.3224                 3.1110
 Frc consts  --      0.2855                 0.1788                 0.3191
 IR Inten    --      7.3227                 6.7054                 1.1679

                     10                     11                     12
                      A                      A                      A
 Frequencies --    418.4726               430.8589               504.2086
 Red. masses --      3.7761                 4.6344                 3.0976
 Frc consts  --      0.3896                 0.5069                 0.4640
 IR Inten    --      1.4101                13.7819                 5.4059

                     13                     14                     15
                      A                      A                      A
 Frequencies --    548.9394               618.3032               637.8354
 Red. masses --      6.9009                 4.0426                 2.8713
 Frc consts  --      1.2252                 0.9106                 0.6883
 IR Inten    --      5.1819                89.2509               170.9881

                     16                     17                     18
                      A                      A                      A
 Frequencies --    648.3504               686.8954               704.2691
 Red. masses --      3.9037                 2.4554                 1.9108
 Frc consts  --      0.9668                 0.6826                 0.5584
 IR Inten    --     99.8684                95.8619                20.7018

                     19                     20                     21
                      A                      A                      A
 Frequencies --    759.6881               775.4673               845.5956
 Red. masses --      2.7835                 3.4113                 4.4855
 Frc consts  --      0.9465                 1.2086                 1.8897
 IR Inten    --     16.9799                 9.8950                18.4101

                     22                     23                     24
                      A                      A                      A
 Frequencies --    854.0665               871.6849               912.4593
 Red. masses --      1.3128                 1.4509                 5.5364
 Frc consts  --      0.5642                 0.6495                 2.7159
 IR Inten    --      2.1515                32.6597                16.0504

                     25                     26                     27
                      A                      A                      A
 Frequencies --    938.8205               971.8675               998.0615
 Red. masses --      1.4442                 1.3427                 1.2582
 Frc consts  --      0.7500                 0.7472                 0.7385
 IR Inten    --      7.0542                 1.0557                 0.8674

                     28                     29                     30
                      A                      A                      A
 Frequencies --   1020.8949              1062.2690              1111.3140
 Red. masses --      6.0259                 2.2760                 1.7719
 Frc consts  --      3.7003                 1.5132                 1.2893
 IR Inten    --      0.6059                 3.5563                 8.0859

                     31                     32                     33
                      A                      A                      A
 Frequencies --   1135.3461              1195.6047              1223.1116
 Red. masses --      1.6025                 1.0903                 1.1372
 Frc consts  --      1.2171                 0.9182                 1.0023
 IR Inten    --      3.7267                 0.0209                 5.2163

                     34                     35                     36
                      A                      A                      A
 Frequencies --   1251.0509              1300.8103              1354.3543
 Red. masses --      1.7210                 4.8078                 3.2256
 Frc consts  --      1.5870                 4.7932                 3.4860
 IR Inten    --     17.2298               146.8205                 8.9464

                     37                     38                     39
                      A                      A                      A
 Frequencies --   1368.5119              1373.1765              1422.7712
 Red. masses --      9.5501                 1.8339                 1.4787
 Frc consts  --     10.5379                 2.0374                 1.7636
 IR Inten    --    455.2856                 3.4831                16.1279

                     40                     41                     42
                      A                      A                      A
 Frequencies --   1496.8229              1544.9532              1609.8310
 Red. masses --      2.2010                 2.1805                 2.7510
 Frc consts  --      2.9054                 3.0665                 4.2005
 IR Inten    --      6.7841                 8.1878               324.6768

                     43                     44                     45
                      A                      A                      A
 Frequencies --   1630.8701              1648.4390              1661.2764
 Red. masses --      4.1256                 2.2106                 4.9452
 Frc consts  --      6.4652                 3.5392                 8.0412
 IR Inten    --      1.0476                15.0751                 3.1116

                     46                     47                     48
                      A                      A                      A
 Frequencies --   1722.6651              3133.3264              3178.6239
 Red. masses --      5.0531                 1.0853                 1.0867
 Frc consts  --      8.8350                 6.2777                 6.4692
 IR Inten    --     46.7126                19.6534                 8.2815

                     49                     50                     51
                      A                      A                      A
 Frequencies --   3190.0778              3200.6167              3212.6031
 Red. masses --      1.0875                 1.0925                 1.0973
 Frc consts  --      6.5207                 6.5937                 6.6727
 IR Inten    --      1.0415                29.7144                30.5765

                     52                     53                     54
                      A                      A                      A
 Frequencies --   3272.0145              3552.7182              3663.9859
 Red. masses --      1.0918                 1.0469                 1.0990
 Frc consts  --      6.8868                 7.7856                 8.6928
 IR Inten    --      1.9843                57.1697                30.9581

 - Thermochemistry -
 -------------------
 Temperature   298.150 Kelvin.  Pressure   1.00000 Atm.
 Atom     1 has atomic number  6 and mass  12.00000

 Molecular mass:   164.05858 amu.
 Principal axes and moments of inertia in atomic units:
                           1         2         3
     Eigenvalues --   789.944583350.549733942.09302
           X            0.99984  -0.01717   0.00441
           Y            0.01705   0.99953   0.02556
           Z           -0.00485  -0.02548   0.99966
 This molecule is an asymmetric top.
 Rotational symmetry number  1.
 Warning -- assumption of classical behavior for rotation
           may cause significant error
 Rotational temperatures (Kelvin)      0.10965     0.02585     0.02197
 Rotational constants (GHZ):           2.28464     0.53864     0.45781
 Zero-point vibrational energy     404349.9 (Joules/Mol)
                                   96.64194 (Kcal/Mol)
 Warning -- explicit consideration of  14 degrees of freedom as
           vibrations may cause significant error
 Vibrational temperatures:     51.96    62.71   143.39   218.33   326.87
          (Kelvin)            402.40   462.44   520.12   600.31   602.09
                              619.91   725.44   789.80   889.60   917.70
                              932.83   988.29  1013.29  1093.02  1115.72
                             1216.62  1228.81  1254.16  1312.83  1350.75
                             1398.30  1435.99  1468.84  1528.37  1598.93
                             1633.51  1720.21  1759.78  1799.98  1871.58
                             1948.61  1968.98  1975.69  2047.05  2153.59
                             2222.84  2316.19  2346.46  2371.74  2390.21
                             2478.53  4508.16  4573.33  4589.81  4604.97
                             4622.22  4707.70  5111.57  5271.66

 Zero-point correction=                           0.154009 (Hartree/Particle)
 Thermal correction to Energy=                    0.164333
 Thermal correction to Enthalpy=                  0.165277
 Thermal correction to Gibbs Free Energy=         0.116789
 Sum of electronic and zero-point Energies=           -569.378347
 Sum of electronic and thermal Energies=              -569.368023
 Sum of electronic and thermal Enthalpies=            -569.367079
 Sum of electronic and thermal Free Energies=         -569.415566

                     E (Thermal)             CV                S
                      KCal/Mol        Cal/Mol-Kelvin    Cal/Mol-Kelvin
 Total                  103.120             39.209            102.051
 Electronic               0.000              0.000              0.000
 Translational            0.889              2.981             41.194
 Rotational               0.889              2.981             30.724
 Vibrational            101.343             33.248             30.133
 Vibration     1          0.594              1.982              5.462
 Vibration     2          0.595              1.980              5.089
 Vibration     3          0.604              1.949              3.461
 Vibration     4          0.619              1.901              2.650
 Vibration     5          0.651              1.800              1.901
 Vibration     6          0.680              1.711              1.536
 Vibration     7          0.707              1.633              1.303
 Vibration     8          0.736              1.552              1.116
 Vibration     9          0.780              1.433              0.901
 Vibration    10          0.781              1.430              0.897
 Vibration    11          0.792              1.403              0.856
 Vibration    12          0.859              1.241              0.648
 Vibration    13          0.904              1.142              0.546
 Vibration    14          0.978              0.993              0.419

 Optimization completed.
    -- Stationary point found.
 Normal termination of Gaussian 16 at Wed Dec  9 18:19:16 2020.

 ----------------------------------------------------------------------
 # B3LYP/6-311++G(d,p) empiricaldispersion=gd3bj scf=xqc pop=npa geom=c
 heck
 ----------------------------------------------------------------------

 --------------------------------------
 CID_67831789_JID_2879_Energie_neutraal
 --------------------------------------
 Structure from the checkpoint file:  "JID_2879.chk"
 Charge =  0 Multiplicity = 1

 SCF Done:  E(RB3LYP) =  -569.699802531     A.U. after   18 cycles
 Normal termination of Gaussian 16 at Wed Dec  9 18:22:31 2020.

 ----------------------------------------------------------------------
 # B3LYP/6-311++G(d,p) empiricaldispersion=gd3bj scf=xqc pop=npa geom=c
 heck
 ----------------------------------------------------------------------

 ------------------------------------
 CID_67831789_JID_2879_Energie_kation
 ------------------------------------
 Structure from the checkpoint file:  "JID_2879.chk"
 Charge =  1 Multiplicity = 2

 SCF Done:  E(UB3LYP) =  -569.403753617     A.U. after   27 cycles
 Normal termination of Gaussian 16 at Wed Dec  9 18:27:52 2020.
 Gaussian 16:  ES64L-G16RevA.03 25-Dec-2016

 ----------------------------------------------------------------------
 # B3LYP/6-311++G(d,p) empiricaldispersion=gd3bj scf=xqc pop=npa geom=c
 heck
 ----------------------------------------------------------------------

 -----------------------------------
 CID_67831789_JID_2879_Energie_anion
 -----------------------------------
 Structure from the checkpoint file:  "JID_2879.chk"
 Charge = -1 Multiplicity = 2

                         Standard orientation:
 ---------------------------------------------------------------------
 Center     Atomic      Atomic             Coordinates (Angstroms)
 Number     Number       Type             X           Y           Z
 ---------------------------------------------------------------------
      1          6           0        3.523320   -0.435079    0.080861
      2          6           0        2.545792   -1.253541   -0.487390
      3          6           0        1.227582   -0.819434   -0.593261
      4          6           0        0.856011    0.457037   -0.132132
      5          6           0        1.863727    1.284738    0.405484
      6          6           0        3.176009    0.841654    0.526177
      7          6           0       -0.474886    1.054036   -0.255469
      8          6           0       -1.756968    0.613926   -0.199832
      9          7           0       -2.865357    1.390652   -0.495964
     10          7           0       -2.152775   -0.732957    0.227805
     11          8           0       -1.304635   -1.617040    0.314541
     12          8           0       -3.344292   -0.882270    0.528372
     13          1           0        4.548232   -0.784523    0.166254
     14          1           0        2.810316   -2.241003   -0.854648
     15          1           0        0.484465   -1.463081   -1.040232
     16          1           0        1.601110    2.284779    0.741772
     17          1           0        3.928273    1.494397    0.959728
     18          1           0       -0.431364    2.132430   -0.413288
     19          1           0       -3.695062    1.120600    0.019167
     20          1           0       -2.691146    2.386979   -0.511566
 ---------------------------------------------------------------------

 SCF Done:  E(UB3LYP) =  -569.741570635     A.U. after   24 cycles

 The electronic state is 2-A.
 Alpha  occ. eigenvalues --  -18.94182 -18.93898 -14.31637 -14.18441 -10.09140
 Alpha  occ. eigenvalues --  -10.04946 -10.04725 -10.04228 -10.04082 -10.03876
 Alpha  occ. eigenvalues --  -10.02938 -10.01784  -1.02207  -0.85160  -0.78506
 Alpha  occ. eigenvalues --   -0.72463  -0.64557  -0.61495  -0.60069  -0.53927
 Alpha  occ. eigenvalues --   -0.47502  -0.46967  -0.40941  -0.39989  -0.37336
 Alpha  occ. eigenvalues --   -0.35689  -0.34388  -0.32622  -0.32169  -0.31316
 Alpha  occ. eigenvalues --   -0.29280  -0.28545  -0.26847  -0.23846  -0.22240
 Alpha  occ. eigenvalues --   -0.21260  -0.20412  -0.14544  -0.13113  -0.12757
 Alpha  occ. eigenvalues --   -0.12134  -0.09780  -0.06975   0.02545
 Alpha virt. eigenvalues --    0.08282   0.08941   0.10039   0.11154   0.11520
 Alpha virt. eigenvalues --    0.11852   0.12426   0.13594   0.14476   0.15568
 Alpha virt. eigenvalues --    0.16808   0.17375   0.17717   0.18733   0.19352

  Beta  occ. eigenvalues --  -18.93688 -18.93383 -14.30976 -14.18428 -10.09055
  Beta  occ. eigenvalues --  -10.04970 -10.04765 -10.04259 -10.03955 -10.03781
  Beta  occ. eigenvalues --  -10.02845 -10.01544  -1.01103  -0.84232  -0.78341
  Beta  occ. eigenvalues --   -0.72332  -0.64223  -0.61376  -0.59519  -0.53075
  Beta  occ. eigenvalues --   -0.47390  -0.46786  -0.40763  -0.39424  -0.37051
  Beta  occ. eigenvalues --   -0.35298  -0.32576  -0.31918  -0.31542  -0.30741
  Beta  occ. eigenvalues --   -0.29197  -0.28138  -0.26628  -0.23499  -0.22038
  Beta  occ. eigenvalues --   -0.21118  -0.19875  -0.13710  -0.12423  -0.11674
  Beta  occ. eigenvalues --   -0.09863  -0.09262  -0.05813
  Beta virt. eigenvalues --    0.08206   0.08692   0.09481   0.10014   0.11229
  Beta virt. eigenvalues --    0.11722   0.12392   0.12731   0.14169   0.14861
  Beta virt. eigenvalues --    0.15677   0.16827   0.17478   0.17928   0.18740

 Mulliken charges and spin densities:
               1          2
     1  C   -0.291726   0.104694
     2  C   -0.287175  -0.015638
     3  C   -0.806493   0.042074
     4  C    0.741809  -0.102971
     5  C   -0.506431   0.170973
     6  C   -0.318486  -0.013584
     7  C    0.784732   0.101486
     8  C   -0.452548   0.097325
     9  N   -0.286817   0.020747
    10  N   -0.277899   0.202995
    11  O   -0.177532   0.198908
    12  O   -0.260132   0.189358
    13  H    0.105903  -0.007972
    14  H    0.124728   0.002323
    15  H    0.157800   0.001244
    16  H    0.092162   0.015623
    17  H    0.111199   0.001302
    18  H    0.108919  -0.020396
    19  H    0.244381   0.000896
    20  H    0.193606   0.010615
 Sum of Mulliken charges =  -1.00000   1.00000

 Dipole moment (field-independent basis, Debye):
    X=              4.0799    Y=              4.4486    Z=             -0.8468  Tot=              6.0953
 Quadrupole moment (field-independent basis, Debye-Ang):
   XX=           -106.3992   YY=            -79.1165   ZZ=            -80.0702
   XY=            -12.3866   XZ=              2.7748   YZ=              4.9150

 Summary of Natural Population Analysis:

                                       Natural Population
                Natural  -----------------------------------------------
    Atom  No    Charge         Core      Valence    Rydberg      Total
 -----------------------------------------------------------------------
      C    1   -0.09346      0.99957     2.08390    0.00999     3.09346
      C    2   -0.11919      0.99957     2.11025    0.00937     3.11919
      C    3   -0.06318      0.99952     2.05472    0.00895     3.06318
      C    4   -0.02853      0.99951     2.01932    0.00971     3.02853
      C    5   -0.08064      0.99953     2.07255    0.00856     3.08064
      C    6   -0.12454      0.99957     2.11548    0.00950     3.12454
      C    7   -0.09968      0.99950     2.09028    0.00991     3.09968
      C    8    0.16967      0.99943     1.81649    0.01441     2.83033
      N    9   -0.40910      0.99971     2.89901    0.01038     3.90910
      N   10    0.30017      0.99972     2.17143    0.02869     3.19983
      O   11   -0.17945      0.99989     3.17095    0.00861     4.17945
      O   12   -0.20683      0.99990     3.19898    0.00796     4.20683
      H   13    0.08898      0.00000     0.40996    0.00107     0.41102
      H   14    0.09255      0.00000     0.40645    0.00100     0.40745
      H   15    0.11330      0.00000     0.38532    0.00138     0.38670
      H   16    0.09067      0.00000     0.40771    0.00162     0.40933
      H   17    0.09101      0.00000     0.40790    0.00109     0.40899
      H   18    0.08314      0.00000     0.41498    0.00188     0.41686
      H   19    0.19906      0.00000     0.29868    0.00225     0.30094
      H   20    0.17606      0.00000     0.32229    0.00165     0.32394
 =======================================================================
   * Total *   -0.00000     11.99543    30.85662    0.14795    43.00000

 Normal termination of Gaussian 16 at Wed Dec  9 18:31:51 2020.
