 Gaussian 16, Revision A.03,

 -----------------------------------------------------------
 # opt freq B3LYP/6-31G(d) empiricaldispersion=gd3bj scf=xqc
 -----------------------------------------------------------

 -------------------------------
 CID_150853307_JID_8297_neutraal
 -------------------------------
 Symbolic Z-matrix:
 Charge =  0 Multiplicity = 1

 SCF Done:  E(RB3LYP) =  -815.297534828     A.U. after   16 cycles
 SCF Done:  E(RB3LYP) =  -815.299266687     A.U. after   16 cycles
 SCF Done:  E(RB3LYP) =  -815.300477479     A.U. after   14 cycles
 SCF Done:  E(RB3LYP) =  -815.301690301     A.U. after   16 cycles
 SCF Done:  E(RB3LYP) =  -815.303635497     A.U. after   16 cycles
 SCF Done:  E(RB3LYP) =  -815.304531758     A.U. after   14 cycles
 SCF Done:  E(RB3LYP) =  -815.304835789     A.U. after   14 cycles
 SCF Done:  E(RB3LYP) =  -815.305167525     A.U. after   13 cycles
 SCF Done:  E(RB3LYP) =  -815.305474696     A.U. after   16 cycles
 SCF Done:  E(RB3LYP) =  -815.305793485     A.U. after   16 cycles
 SCF Done:  E(RB3LYP) =  -815.306950893     A.U. after   11 cycles
 SCF Done:  E(RB3LYP) =  -815.306952850     A.U. after   10 cycles
 SCF Done:  E(RB3LYP) =  -815.306953234     A.U. after    8 cycles
 SCF Done:  E(RB3LYP) =  -815.306953390     A.U. after    8 cycles
 Optimization completed.
    -- Stationary point found.
 Normal termination of Gaussian 16 at Fri Dec 11 20:15:21 2020.

 --------------------------------------------------------------------
 #N Geom=AllCheck Guess=TCheck SCRF=Check GenChk RB3LYP/6-31G(d) Freq
 --------------------------------------------------------------------

 Structure from the checkpoint file:  "JID_8297.chk"
 -------------------------------
 CID_150853307_JID_8297_neutraal
 -------------------------------
 Charge =  0 Multiplicity = 1

 SCF Done:  E(RB3LYP) =  -815.306953390     A.U. after    1 cycles

  Exact polarizability: 154.531 -30.507 160.219 -12.925  -4.072 122.537
 Approx polarizability: 245.126 -75.943 260.834 -44.360   1.191 220.765

                      1                      2                      3
                      A                      A                      A
 Frequencies --     28.8606                42.1636                49.3248
 Red. masses --      5.8182                 7.7985                 8.4370
 Frc consts  --      0.0029                 0.0082                 0.0121
 IR Inten    --      1.2951                 1.5237                 1.5691

                      4                      5                      6
                      A                      A                      A
 Frequencies --     56.4526                65.3842                91.8597
 Red. masses --      7.5836                 5.5079                 4.6849
 Frc consts  --      0.0142                 0.0139                 0.0233
 IR Inten    --      1.1466                 2.7437                 0.7375

                      7                      8                      9
                      A                      A                      A
 Frequencies --    140.9637               174.5974               201.5496
 Red. masses --      4.4755                 3.4267                 5.6796
 Frc consts  --      0.0524                 0.0615                 0.1359
 IR Inten    --      1.4131                 0.5850                 0.0868

                     10                     11                     12
                      A                      A                      A
 Frequencies --    229.8378               240.1150               298.7254
 Red. masses --      2.7473                 3.9515                 4.4275
 Frc consts  --      0.0855                 0.1342                 0.2328
 IR Inten    --      1.4112                 1.3166                 0.2884

                     13                     14                     15
                      A                      A                      A
 Frequencies --    364.2242               371.4077               396.3656
 Red. masses --      2.5946                 2.5429                 4.1934
 Frc consts  --      0.2028                 0.2067                 0.3882
 IR Inten    --      6.2253                 2.3774                 0.4404

                     16                     17                     18
                      A                      A                      A
 Frequencies --    399.2158               425.5867               448.3477
 Red. masses --      2.5123                 3.2496                 5.1984
 Frc consts  --      0.2359                 0.3468                 0.6157
 IR Inten    --      3.3850                 1.5293                 4.2894

                     19                     20                     21
                      A                      A                      A
 Frequencies --    490.5760               501.7347               525.9246
 Red. masses --      3.6667                 3.8372                 1.3178
 Frc consts  --      0.5199                 0.5691                 0.2148
 IR Inten    --      1.2270                 1.4062                59.8734

                     22                     23                     24
                      A                      A                      A
 Frequencies --    571.4951               574.1287               609.5122
 Red. masses --     13.3594                 3.4899                 4.0345
 Frc consts  --      2.5708                 0.6778                 0.8831
 IR Inten    --     11.3799                35.9548                 6.8163

                     25                     26                     27
                      A                      A                      A
 Frequencies --    633.5313               694.2924               710.8628
 Red. masses --      7.9302                 5.1850                 4.6463
 Frc consts  --      1.8753                 1.4726                 1.3834
 IR Inten    --      3.4662                 0.3925                 9.7060

                     28                     29                     30
                      A                      A                      A
 Frequencies --    730.3530               733.5840               798.3230
 Red. masses --      3.3673                 3.0212                 1.6804
 Frc consts  --      1.0583                 0.9579                 0.6310
 IR Inten    --     12.4301                32.4030                 2.6952

                     31                     32                     33
                      A                      A                      A
 Frequencies --    801.1536               825.2999               840.5725
 Red. masses --      2.0796                 2.5716                 2.3950
 Frc consts  --      0.7864                 1.0320                 0.9970
 IR Inten    --     15.1333                 0.5784                 0.3612

                     34                     35                     36
                      A                      A                      A
 Frequencies --    882.8375               916.2889               932.1605
 Red. masses --      2.9127                 3.2086                 2.6755
 Frc consts  --      1.3376                 1.5872                 1.3697
 IR Inten    --     18.0928                 9.1746                 2.9930

                     37                     38                     39
                      A                      A                      A
 Frequencies --    939.4940               950.2160               960.3964
 Red. masses --      2.4253                 1.4982                 1.4535
 Frc consts  --      1.2613                 0.7970                 0.7899
 IR Inten    --      4.8931                 1.6015                 2.4139

                     40                     41                     42
                      A                      A                      A
 Frequencies --    979.2139              1000.9612              1035.2489
 Red. masses --      1.5222                 1.3503                 2.4057
 Frc consts  --      0.8599                 0.7971                 1.5191
 IR Inten    --      1.8712                 0.6432                 8.1086

                     43                     44                     45
                      A                      A                      A
 Frequencies --   1047.3091              1049.3543              1076.3591
 Red. masses --      3.6904                 1.9831                 2.4815
 Frc consts  --      2.3849                 1.2866                 1.6939
 IR Inten    --     13.3757                 4.1529                 0.5384

                     46                     47                     48
                      A                      A                      A
 Frequencies --   1094.6022              1096.7087              1129.9546
 Red. masses --      2.0141                 1.5036                 2.1742
 Frc consts  --      1.4218                 1.0655                 1.6356
 IR Inten    --      0.8505                 0.3270                 3.7805

                     49                     50                     51
                      A                      A                      A
 Frequencies --   1142.7250              1196.3980              1219.8762
 Red. masses --      1.3818                 1.4178                 1.4802
 Frc consts  --      1.0631                 1.1957                 1.2978
 IR Inten    --      5.6117                 3.8941                 1.1736

                     52                     53                     54
                      A                      A                      A
 Frequencies --   1231.4472              1244.4750              1268.6993
 Red. masses --      1.5669                 1.3015                 2.2908
 Frc consts  --      1.4000                 1.1876                 2.1725
 IR Inten    --      5.2852                14.7302                16.6252

                     55                     56                     57
                      A                      A                      A
 Frequencies --   1300.8465              1310.4013              1326.8845
 Red. masses --      1.6734                 3.8248                 1.8398
 Frc consts  --      1.6684                 3.8696                 1.9084
 IR Inten    --     56.1825                19.2355                71.5717

                     58                     59                     60
                      A                      A                      A
 Frequencies --   1345.9340              1353.4046              1361.2546
 Red. masses --      1.8131                 1.3265                 2.3270
 Frc consts  --      1.9351                 1.4316                 2.5405
 IR Inten    --     11.2382                 4.7250               130.6967

                     61                     62                     63
                      A                      A                      A
 Frequencies --   1365.1178              1367.2523              1371.2721
 Red. masses --      1.5012                 1.6800                 1.6824
 Frc consts  --      1.6483                 1.8503                 1.8639
 IR Inten    --     36.4021                27.2355                61.0572

                     64                     65                     66
                      A                      A                      A
 Frequencies --   1392.6628              1403.2524              1409.3988
 Red. masses --      1.3668                 1.3281                 1.4866
 Frc consts  --      1.5618                 1.5408                 1.7398
 IR Inten    --      0.7455                 0.4674                 4.2489

                     67                     68                     69
                      A                      A                      A
 Frequencies --   1423.9957              1441.9013              1485.5358
 Red. masses --      1.4130                 1.7751                 2.2239
 Frc consts  --      1.6881                 2.1745                 2.8915
 IR Inten    --      0.2279                17.7063                44.6050

                     70                     71                     72
                      A                      A                      A
 Frequencies --   1506.8962              1516.8819              1522.2200
 Red. masses --      1.0860                 1.0928                 1.0893
 Frc consts  --      1.4530                 1.4815                 1.4871
 IR Inten    --      3.0323                 6.0001                12.6051

                     73                     74                     75
                      A                      A                      A
 Frequencies --   1527.3850              1531.8004              1627.2891
 Red. masses --      2.0212                 1.1930                 5.2851
 Frc consts  --      2.7781                 1.6493                 8.2458
 IR Inten    --     38.3471                 7.4314                 8.9570

                     76                     77                     78
                      A                      A                      A
 Frequencies --   1647.4698              1779.3534              2256.0220
 Red. masses --      6.0018                 8.1471                13.6577
 Frc consts  --      9.5977                15.1977                40.9559
 IR Inten    --      6.0914               370.2032               372.8667

                     79                     80                     81
                      A                      A                      A
 Frequencies --   3035.0389              3047.3593              3057.4459
 Red. masses --      1.0795                 1.0631                 1.0723
 Frc consts  --      5.8588                 5.8164                 5.9056
 IR Inten    --     14.6132                15.2670                34.0831

                     82                     83                     84
                      A                      A                      A
 Frequencies --   3059.1954              3072.0655              3077.4590
 Red. masses --      1.0790                 1.0721                 1.0672
 Frc consts  --      5.9493                 5.9611                 5.9548
 IR Inten    --     45.8034                23.9029                16.7009

                     85                     86                     87
                      A                      A                      A
 Frequencies --   3084.9839              3099.9057              3140.7815
 Red. masses --      1.1028                 1.1016                 1.0958
 Frc consts  --      6.1837                 6.2369                 6.3687
 IR Inten    --     22.1233                22.2892                25.5894

                     88                     89                     90
                      A                      A                      A
 Frequencies --   3161.9597              3170.8230              3188.8626
 Red. masses --      1.0901                 1.0907                 1.0895
 Frc consts  --      6.4215                 6.4608                 6.5275
 IR Inten    --     19.6800                17.5706                 9.8649

                     91                     92                     93
                      A                      A                      A
 Frequencies --   3213.3719              3230.4026              3565.3661
 Red. masses --      1.0915                 1.0955                 1.0748
 Frc consts  --      6.6405                 6.7359                 8.0495
 IR Inten    --     12.0572                 5.2693                30.1123

 - Thermochemistry -
 -------------------
 Temperature   298.150 Kelvin.  Pressure   1.00000 Atm.
 Atom     1 has atomic number  6 and mass  12.00000

 Molecular mass:   245.12766 amu.
 Principal axes and moments of inertia in atomic units:
                           1         2         3
     Eigenvalues --  3638.427673799.872406195.44309
           X            0.99931   0.03696   0.00399
           Y           -0.03696   0.99932  -0.00024
           Z           -0.00399   0.00009   0.99999
 This molecule is an asymmetric top.
 Rotational symmetry number  1.
 Warning -- assumption of classical behavior for rotation
           may cause significant error
 Rotational temperatures (Kelvin)      0.02381     0.02279     0.01398
 Rotational constants (GHZ):           0.49602     0.47495     0.29130
 Zero-point vibrational energy     713216.6 (Joules/Mol)
                                  170.46286 (Kcal/Mol)
 Warning -- explicit consideration of  24 degrees of freedom as
           vibrations may cause significant error
 Vibrational temperatures:     41.52    60.66    70.97    81.22    94.07
          (Kelvin)            132.17   202.82   251.21   289.98   330.69
                              345.47   429.80   524.04   534.37   570.28
                              574.38   612.32   645.07   705.83   721.88
                              756.69   822.25   826.04   876.95   911.51
                              998.93  1022.77  1050.82  1055.46  1148.61
                             1152.68  1187.42  1209.40  1270.21  1318.34
                             1341.17  1351.72  1367.15  1381.80  1408.87
                             1440.16  1489.49  1506.84  1509.79  1548.64
                             1574.89  1577.92  1625.75  1644.13  1721.35
                             1755.13  1771.78  1790.52  1825.38  1871.63
                             1885.38  1909.09  1936.50  1947.25  1958.54
                             1964.10  1967.17  1972.95  2003.73  2018.97
                             2027.81  2048.81  2074.57  2137.35  2168.09
                             2182.45  2190.14  2197.57  2203.92  2341.31
                             2370.34  2560.09  3245.91  4366.74  4384.47
                             4398.98  4401.50  4420.02  4427.78  4438.60
                             4460.07  4518.88  4549.35  4562.11  4588.06
                             4623.33  4647.83  5129.77

 Zero-point correction=                           0.271650 (Hartree/Particle)
 Thermal correction to Energy=                    0.287377
 Thermal correction to Enthalpy=                  0.288321
 Thermal correction to Gibbs Free Energy=         0.226786
 Sum of electronic and zero-point Energies=           -815.035304
 Sum of electronic and thermal Energies=              -815.019576
 Sum of electronic and thermal Enthalpies=            -815.018632
 Sum of electronic and thermal Free Energies=         -815.080167

                     E (Thermal)             CV                S
                      KCal/Mol        Cal/Mol-Kelvin    Cal/Mol-Kelvin
 Total                  180.332             60.074            129.512
 Electronic               0.000              0.000              0.000
 Translational            0.889              2.981             42.391
 Rotational               0.889              2.981             32.815
 Vibrational            178.554             54.113             54.306
 Vibration     1          0.593              1.984              5.906
 Vibration     2          0.595              1.980              5.155
 Vibration     3          0.595              1.978              4.844
 Vibration     4          0.596              1.975              4.578
 Vibration     5          0.597              1.971              4.288
 Vibration     6          0.602              1.955              3.620
 Vibration     7          0.615              1.912              2.791
 Vibration     8          0.627              1.874              2.385
 Vibration     9          0.638              1.838              2.119
 Vibration    10          0.652              1.795              1.880
 Vibration    11          0.657              1.779              1.802
 Vibration    12          0.692              1.676              1.424
 Vibration    13          0.738              1.546              1.104
 Vibration    14          0.743              1.531              1.074
 Vibration    15          0.763              1.478              0.976
 Vibration    16          0.765              1.472              0.966
 Vibration    17          0.787              1.415              0.873
 Vibration    18          0.807              1.365              0.801
 Vibration    19          0.846              1.271              0.682
 Vibration    20          0.857              1.246              0.654
 Vibration    21          0.881              1.193              0.596
 Vibration    22          0.928              1.093              0.501
 Vibration    23          0.930              1.087              0.496
 Vibration    24          0.968              1.012              0.434

 Optimization completed.
    -- Stationary point found.
 Normal termination of Gaussian 16 at Fri Dec 11 20:30:22 2020.

 ----------------------------------------------------------------------
 # B3LYP/6-311++G(d,p) empiricaldispersion=gd3bj scf=xqc pop=npa geom=c
 heck
 ----------------------------------------------------------------------

 ---------------------------------------
 CID_150853307_JID_8297_Energie_neutraal
 ---------------------------------------
 Structure from the checkpoint file:  "JID_8297.chk"
 Charge =  0 Multiplicity = 1

 SCF Done:  E(RB3LYP) =  -815.529504438     A.U. after   17 cycles
 Normal termination of Gaussian 16 at Fri Dec 11 20:36:53 2020.

 ----------------------------------------------------------------------
 # B3LYP/6-311++G(d,p) empiricaldispersion=gd3bj scf=xqc pop=npa geom=c
 heck
 ----------------------------------------------------------------------

 -------------------------------------
 CID_150853307_JID_8297_Energie_kation
 -------------------------------------
 Structure from the checkpoint file:  "JID_8297.chk"
 Charge =  1 Multiplicity = 2

 SCF Done:  E(UB3LYP) =  -815.206446612     A.U. after   33 cycles
 SCF Done:  E(UB3LYP) =  -815.206579313     a.u. after    6 cycles
 Normal termination of Gaussian 16 at Fri Dec 11 22:23:12 2020.
 Gaussian 16:  ES64L-G16RevA.03 25-Dec-2016

 ----------------------------------------------------------------------
 # B3LYP/6-311++G(d,p) empiricaldispersion=gd3bj scf=xqc pop=npa geom=c
 heck
 ----------------------------------------------------------------------

 ------------------------------------
 CID_150853307_JID_8297_Energie_anion
 ------------------------------------
 Structure from the checkpoint file:  "JID_8297.chk"
 Charge = -1 Multiplicity = 2

                         Standard orientation:
 ---------------------------------------------------------------------
 Center     Atomic      Atomic             Coordinates (Angstroms)
 Number     Number       Type             X           Y           Z
 ---------------------------------------------------------------------
      1          6           0        1.847137   -0.763084   -1.053885
      2          6           0        2.888580    0.345110   -0.865599
      3          6           0        2.365668    1.447345    0.059470
      4          6           0        1.956600    0.863070    1.418214
      5          6           0        0.899298   -0.237047    1.264388
      6          6           0        1.385423   -1.339543    0.303155
      7          6           0        0.440807   -2.526012    0.096579
      8          8           0        0.860092   -3.672676    0.173212
      9          7           0       -0.890750   -2.319755   -0.231612
     10          6           0       -1.658479   -1.120472   -0.244277
     11          6           0       -2.487464   -0.806443    0.840349
     12          7           0       -3.208076    0.313457    0.925250
     13          6           0       -3.120946    1.180392   -0.092458
     14          6           0       -2.355639    0.949013   -1.235759
     15          6           0       -1.624046   -0.233033   -1.320986
     16          7           0        1.226490    2.091171   -0.666154
     17          7           0        0.428919    2.745248    0.006841
     18          7           0       -0.387704    3.362827    0.516298
     19          1           0        2.260571   -1.571433   -1.666799
     20          1           0        0.995626   -0.344927   -1.595302
     21          1           0        3.804350   -0.065082   -0.421033
     22          1           0        3.160765    0.776776   -1.834787
     23          1           0        3.141851    2.210851    0.202234
     24          1           0        1.581817    1.654657    2.078393
     25          1           0        2.862299    0.462408    1.891745
     26          1           0       -0.022049    0.219610    0.903402
     27          1           0        0.669407   -0.672431    2.243685
     28          1           0        2.261499   -1.812226    0.762722
     29          1           0       -1.397453   -3.197421   -0.276076
     30          1           0       -2.546093   -1.494948    1.682183
     31          1           0       -3.692037    2.099954    0.011632
     32          1           0       -2.335875    1.676699   -2.040628
     33          1           0       -1.029204   -0.467484   -2.196586
 ---------------------------------------------------------------------

 SCF Done:  E(UB3LYP) =  -815.528644221     A.U. after   33 cycles
 SCF Done:  E(UB3LYP) =  -815.528644221     a.u. after    1 cycles

 The electronic state is 2-A.
 Alpha  occ. eigenvalues --  -18.98944 -14.34299 -14.24565 -14.23811 -14.23071
 Alpha  occ. eigenvalues --  -14.17583 -10.17412 -10.11119 -10.10025 -10.08395
 Alpha  occ. eigenvalues --  -10.08344 -10.08126 -10.07313 -10.06898 -10.06858
 Alpha  occ. eigenvalues --  -10.06722 -10.05824 -10.05735  -1.00927  -0.94168
 Alpha  occ. eigenvalues --   -0.85325  -0.83408  -0.80834  -0.74045  -0.67955
 Alpha  occ. eigenvalues --   -0.66590  -0.65158  -0.63781  -0.55513  -0.52565
 Alpha  occ. eigenvalues --   -0.52125  -0.51486  -0.49257  -0.46832  -0.42817
 Alpha  occ. eigenvalues --   -0.40585  -0.39889  -0.39299  -0.38971  -0.37642
 Alpha  occ. eigenvalues --   -0.37044  -0.34981  -0.34266  -0.33561  -0.32516
 Alpha  occ. eigenvalues --   -0.32269  -0.31650  -0.30024  -0.29140  -0.28713
 Alpha  occ. eigenvalues --   -0.28553  -0.28300  -0.27062  -0.25839  -0.24928
 Alpha  occ. eigenvalues --   -0.23469  -0.22932  -0.21438  -0.18121  -0.17688
 Alpha  occ. eigenvalues --   -0.16898  -0.16011  -0.14160  -0.13234  -0.13180
 Alpha  occ. eigenvalues --    0.04541
 Alpha virt. eigenvalues --    0.06464   0.07434   0.08038   0.08633   0.08883
 Alpha virt. eigenvalues --    0.09312   0.09717   0.10379   0.10474   0.11276
 Alpha virt. eigenvalues --    0.11351   0.11853   0.12208   0.12829   0.13061

  Beta  occ. eigenvalues --  -18.98944 -14.34092 -14.24348 -14.23808 -14.23097
  Beta  occ. eigenvalues --  -14.17242 -10.17408 -10.11057 -10.10055 -10.08398
  Beta  occ. eigenvalues --  -10.08344 -10.08026 -10.07305 -10.06882 -10.06855
  Beta  occ. eigenvalues --  -10.06717 -10.05768 -10.05467  -1.00555  -0.94164
  Beta  occ. eigenvalues --   -0.85153  -0.83225  -0.80525  -0.74006  -0.67537
  Beta  occ. eigenvalues --   -0.66518  -0.65134  -0.63579  -0.55418  -0.52446
  Beta  occ. eigenvalues --   -0.52060  -0.51079  -0.49164  -0.46771  -0.42725
  Beta  occ. eigenvalues --   -0.40485  -0.39792  -0.38955  -0.38605  -0.37395
  Beta  occ. eigenvalues --   -0.36889  -0.34894  -0.34109  -0.33509  -0.32201
  Beta  occ. eigenvalues --   -0.32142  -0.31426  -0.29984  -0.29027  -0.28583
  Beta  occ. eigenvalues --   -0.28438  -0.27668  -0.26946  -0.25727  -0.24809
  Beta  occ. eigenvalues --   -0.23362  -0.22855  -0.21372  -0.17647  -0.17287
  Beta  occ. eigenvalues --   -0.16208  -0.15471  -0.13733  -0.13121  -0.12858
  Beta virt. eigenvalues --    0.07037   0.08069   0.08298   0.08990   0.09044
  Beta virt. eigenvalues --    0.09257   0.09805   0.09996   0.10480   0.10670
  Beta virt. eigenvalues --    0.11318   0.11469   0.11940   0.12327   0.12863

 Mulliken charges and spin densities:
               1          2
     1  C   -0.253926   0.181411
     2  C    0.372347  -0.995734
     3  C    0.013134   0.254690
     4  C   -0.441122  -0.502424
     5  C   -0.055427   0.080542
     6  C    0.363313  -0.110790
     7  C   -0.349655  -0.039991
     8  O   -0.315395   0.003576
     9  N   -0.201648   0.005924
    10  C   -0.369047   0.043799
    11  C   -0.366417   0.199134
    12  N   -0.086084   0.145745
    13  C   -0.258426  -0.144577
    14  C   -0.222236   0.054584
    15  C    0.358465   0.004958
    16  N   -0.307998   0.140323
    17  N    0.360454  -0.084694
    18  N   -0.082851   0.031141
    19  H    0.166908   0.041454
    20  H    0.203995  -0.109640
    21  H    0.004562   0.133452
    22  H   -0.149034   0.344035
    23  H   -0.713930   0.962549
    24  H    0.224830  -0.044723
    25  H   -0.050571   0.186734
    26  H    0.089154  -0.040914
    27  H    0.202364  -0.017936
    28  H    0.246292  -0.024780
    29  H    0.299223   0.005368
    30  H    0.141544   0.005226
    31  H    0.128277   0.010752
    32  H    0.035695   0.125153
    33  H    0.013209   0.155652
 Sum of Mulliken charges =  -1.00000   1.00000

 Dipole moment (field-independent basis, Debye):
    X=             -0.5254    Y=             -2.4779    Z=              0.1779  Tot=              2.5392
 Quadrupole moment (field-independent basis, Debye-Ang):
   XX=           -157.5116   YY=           -157.8195   ZZ=           -124.3993
   XY=             -0.5424   XZ=              7.1872   YZ=             -0.3450

 Summary of Natural Population Analysis:

                                       Natural Population
                Natural  -----------------------------------------------
    Atom  No    Charge         Core      Valence    Rydberg      Total
 -----------------------------------------------------------------------
      C    1   -0.19095      0.99960     2.18281    0.00854     3.19095
      C    2   -0.18895      0.99960     2.17893    0.01042     3.18895
      C    3   -0.01077      0.99955     1.99666    0.01456     3.01077
      C    4   -0.19659      0.99961     2.18805    0.00894     3.19659
      C    5   -0.19617      0.99961     2.18740    0.00917     3.19617
      C    6   -0.14687      0.99954     2.13740    0.00992     3.14687
      C    7    0.35688      0.99963     1.62037    0.02312     2.64312
      O    8   -0.32959      0.99988     3.32382    0.00589     4.32959
      N    9   -0.32254      0.99964     2.81172    0.01118     3.82254
      C   10    0.02820      0.99944     1.95936    0.01299     2.97180
      C   11    0.03834      0.99953     1.94928    0.01285     2.96166
      N   12   -0.19321      0.99971     2.68242    0.01108     3.69321
      C   13    0.02535      0.99960     1.95993    0.01512     2.97465
      C   14   -0.11592      0.99956     2.10601    0.01035     3.11592
      C   15   -0.04384      0.99951     2.03494    0.00939     3.04384
      N   16   -0.20483      0.99969     2.68947    0.01567     3.70483
      N   17    0.13333      0.99970     2.35091    0.01606     3.36667
      N   18   -0.03127      0.99982     2.51911    0.01234     3.53127
      H   19    0.09989      0.00000     0.39917    0.00093     0.40011
      H   20    0.10802      0.00000     0.39015    0.00183     0.39198
      H   21    0.09606      0.00000     0.40282    0.00112     0.40394
      H   22    0.10588      0.00000     0.39281    0.00131     0.39412
      H   23    0.09801      0.00000     0.39923    0.00275     0.40199
      H   24    0.10351      0.00000     0.39557    0.00092     0.39649
      H   25    0.09853      0.00000     0.40042    0.00104     0.40147
      H   26    0.11108      0.00000     0.38599    0.00294     0.38892
      H   27    0.09943      0.00000     0.39980    0.00077     0.40057
      H   28    0.10451      0.00000     0.39361    0.00188     0.39549
      H   29    0.19373      0.00000     0.30401    0.00226     0.30627
      H   30    0.08441      0.00000     0.41443    0.00116     0.41559
      H   31    0.08661      0.00000     0.41183    0.00156     0.41339
      H   32    0.10109      0.00000     0.39801    0.00091     0.39891
      H   33    0.09864      0.00000     0.39980    0.00157     0.40136
 =======================================================================
   * Total *   -0.00000     17.99322    46.76620    0.24057    65.00000

 Normal termination of Gaussian 16 at Fri Dec 11 22:40:39 2020.
