 Gaussian 16, Revision A.03,

 -----------------------------------------------------------
 # opt freq B3LYP/6-31G(d) empiricaldispersion=gd3bj scf=xqc
 -----------------------------------------------------------

 ------------------------------
 CID_11816266_JID_3113_neutraal
 ------------------------------
 Symbolic Z-matrix:
 Charge =  0 Multiplicity = 1

 SCF Done:  E(RB3LYP) =  -616.336564128     A.U. after   16 cycles
 SCF Done:  E(RB3LYP) =  -616.354122620     A.U. after   13 cycles
 SCF Done:  E(RB3LYP) =  -616.354057364     A.U. after   13 cycles
 SCF Done:  E(RB3LYP) =  -616.351681678     A.U. after   13 cycles
 SCF Done:  E(RB3LYP) =  -616.350666336     A.U. after   12 cycles
 SCF Done:  E(RB3LYP) =  -616.354532234     A.U. after   10 cycles
 SCF Done:  E(RB3LYP) =  -616.355077286     A.U. after   12 cycles
 SCF Done:  E(RB3LYP) =  -616.355489746     A.U. after   12 cycles
 SCF Done:  E(RB3LYP) =  -616.355288409     A.U. after   12 cycles
 SCF Done:  E(RB3LYP) =  -616.355544053     A.U. after   12 cycles
 SCF Done:  E(RB3LYP) =  -616.355666916     A.U. after   13 cycles
 SCF Done:  E(RB3LYP) =  -616.355672940     A.U. after   11 cycles
 SCF Done:  E(RB3LYP) =  -616.355673235     A.U. after   10 cycles
 SCF Done:  E(RB3LYP) =  -616.355673503     A.U. after   10 cycles
 SCF Done:  E(RB3LYP) =  -616.355673562     A.U. after    7 cycles
 SCF Done:  E(RB3LYP) =  -616.355673580     A.U. after    7 cycles
 Optimization completed.
    -- Stationary point found.
 Normal termination of Gaussian 16 at Wed Dec  9 22:29:21 2020.

 --------------------------------------------------------------------
 #N Geom=AllCheck Guess=TCheck SCRF=Check GenChk RB3LYP/6-31G(d) Freq
 --------------------------------------------------------------------

 Structure from the checkpoint file:  "JID_3113.chk"
 ------------------------------
 CID_11816266_JID_3113_neutraal
 ------------------------------
 Charge =  0 Multiplicity = 1

 SCF Done:  E(RB3LYP) =  -616.355673580     A.U. after    1 cycles

  Exact polarizability: 163.208  -3.597  95.932  -2.261  -4.560  91.559
 Approx polarizability: 208.989 -16.021 147.569  -1.247 -12.912 131.252

                      1                      2                      3
                      A                      A                      A
 Frequencies --     14.3224                39.7598                44.2762
 Red. masses --      4.3377                 3.3138                 3.9441
 Frc consts  --      0.0005                 0.0031                 0.0046
 IR Inten    --      1.1935                 0.1331                 0.5124

                      4                      5                      6
                      A                      A                      A
 Frequencies --     74.9913               106.2520               110.8248
 Red. masses --      3.8905                 3.1958                 4.5228
 Frc consts  --      0.0129                 0.0213                 0.0327
 IR Inten    --      0.7521                 0.9312                 0.6499

                      7                      8                      9
                      A                      A                      A
 Frequencies --    178.5578               214.9674               221.7827
 Red. masses --      3.1903                 1.6582                 1.4333
 Frc consts  --      0.0599                 0.0451                 0.0415
 IR Inten    --      4.9653                 2.3898                 2.2976

                     10                     11                     12
                      A                      A                      A
 Frequencies --    238.2198               251.8084               259.2325
 Red. masses --      1.6172                 1.2426                 1.5580
 Frc consts  --      0.0541                 0.0464                 0.0617
 IR Inten    --      8.8017                 8.4832                 4.5199

                     13                     14                     15
                      A                      A                      A
 Frequencies --    276.2400               287.6575               312.3959
 Red. masses --      1.6554                 2.2539                 1.1854
 Frc consts  --      0.0744                 0.1099                 0.0682
 IR Inten    --      0.3191                 6.1919               117.1935

                     16                     17                     18
                      A                      A                      A
 Frequencies --    329.3185               352.3667               368.3910
 Red. masses --      2.6770                 2.6761                 3.5767
 Frc consts  --      0.1710                 0.1958                 0.2860
 IR Inten    --      6.3066                 1.0159                 3.7325

                     19                     20                     21
                      A                      A                      A
 Frequencies --    393.5180               404.0315               443.0056
 Red. masses --      2.9149                 2.7537                 3.2822
 Frc consts  --      0.2660                 0.2648                 0.3795
 IR Inten    --      1.3041                 3.4033                 6.8828

                     22                     23                     24
                      A                      A                      A
 Frequencies --    535.9939               542.9498               591.9616
 Red. masses --      3.2963                 4.9950                 8.6692
 Frc consts  --      0.5579                 0.8676                 1.7899
 IR Inten    --      4.0278                14.4270                 3.2037

                     25                     26                     27
                      A                      A                      A
 Frequencies --    652.8702               751.8459               765.7329
 Red. masses --      4.7683                11.1618                 3.5026
 Frc consts  --      1.1975                 3.7174                 1.2100
 IR Inten    --      7.5936                18.6712                 8.0530

                     28                     29                     30
                      A                      A                      A
 Frequencies --    795.0766               854.5427               879.3317
 Red. masses --      1.4576                 2.3967                 2.9184
 Frc consts  --      0.5429                 1.0312                 1.3295
 IR Inten    --      8.6584                11.2376                 2.4325

                     31                     32                     33
                      A                      A                      A
 Frequencies --    908.0684               953.6424               954.7180
 Red. masses --      2.5796                 1.6656                 1.6368
 Frc consts  --      1.2532                 0.8925                 0.8790
 IR Inten    --     10.9251                 0.8373                 2.0050

                     34                     35                     36
                      A                      A                      A
 Frequencies --    978.7023              1018.1426              1044.2499
 Red. masses --      1.2025                 3.0636                 2.2601
 Frc consts  --      0.6786                 1.8711                 1.4521
 IR Inten    --      0.0386                 6.6948                58.1843

                     37                     38                     39
                      A                      A                      A
 Frequencies --   1056.0060              1067.2354              1112.4587
 Red. masses --      1.4624                 2.5862                 3.2022
 Frc consts  --      0.9608                 1.7356                 2.3349
 IR Inten    --      1.1323                74.3975                47.3601

                     40                     41                     42
                      A                      A                      A
 Frequencies --   1133.3104              1211.0592              1223.8606
 Red. masses --      2.0964                 1.7650                 1.7742
 Frc consts  --      1.5864                 1.5252                 1.5657
 IR Inten    --     66.5467                 9.6073                 4.4066

                     43                     44                     45
                      A                      A                      A
 Frequencies --   1257.9335              1271.0926              1286.1147
 Red. masses --      1.8166                 2.8651                 2.5688
 Frc consts  --      1.6936                 2.7274                 2.5035
 IR Inten    --     15.1316               281.1929               346.5332

                     46                     47                     48
                      A                      A                      A
 Frequencies --   1291.7130              1343.0032              1347.1385
 Red. masses --      2.5575                 1.1323                 1.5654
 Frc consts  --      2.5142                 1.2033                 1.6738
 IR Inten    --    184.9293                29.0383                 4.6480

                     49                     50                     51
                      A                      A                      A
 Frequencies --   1418.9480              1424.1296              1429.3476
 Red. masses --      1.2868                 1.2365                 1.2413
 Frc consts  --      1.5265                 1.4776                 1.4942
 IR Inten    --     15.3557                22.7601                 2.2468

                     52                     53                     54
                      A                      A                      A
 Frequencies --   1433.9537              1443.4958              1458.1402
 Red. masses --      1.2145                 1.3189                 1.2234
 Frc consts  --      1.4714                 1.6191                 1.5326
 IR Inten    --     66.9879                 8.9404                 6.7425

                     55                     56                     57
                      A                      A                      A
 Frequencies --   1510.8119              1515.9311              1519.1810
 Red. masses --      1.0480                 1.0536                 1.0768
 Frc consts  --      1.4094                 1.4266                 1.4643
 IR Inten    --      0.4334                11.9498                 5.7870

                     58                     59                     60
                      A                      A                      A
 Frequencies --   1519.7685              1522.0425              1534.0894
 Red. masses --      1.0460                 1.0457                 1.0554
 Frc consts  --      1.4235                 1.4273                 1.4635
 IR Inten    --      0.3163                 0.5502                 4.2812

                     61                     62                     63
                      A                      A                      A
 Frequencies --   1538.1031              1539.2777              1551.8821
 Red. masses --      1.0568                 1.0530                 1.0579
 Frc consts  --      1.4730                 1.4699                 1.5012
 IR Inten    --      7.7638                 5.8215                12.0525

                     64                     65                     66
                      A                      A                      A
 Frequencies --   1790.9201              2344.2498              3045.9617
 Red. masses --     11.7222                11.9719                 1.0361
 Frc consts  --     22.1519                38.7632                 5.6639
 IR Inten    --    251.0269               107.8032                26.3960

                     67                     68                     69
                      A                      A                      A
 Frequencies --   3046.2795              3052.2248              3059.1255
 Red. masses --      1.0361                 1.0449                 1.0759
 Frc consts  --      5.6649                 5.7354                 5.9324
 IR Inten    --     24.9227                10.4349                22.2271

                     70                     71                     72
                      A                      A                      A
 Frequencies --   3062.9582              3097.3406              3108.3110
 Red. masses --      1.0362                 1.0592                 1.1019
 Frc consts  --      5.7274                 5.9868                 6.2723
 IR Inten    --     16.3569                25.9916                 0.5186

                     73                     74                     75
                      A                      A                      A
 Frequencies --   3111.5490              3114.2245              3122.8682
 Red. masses --      1.1015                 1.1006                 1.1024
 Frc consts  --      6.2832                 6.2889                 6.3343
 IR Inten    --     21.6366                53.8725                22.2317

                     76                     77                     78
                      A                      A                      A
 Frequencies --   3129.8457              3131.1010              3142.2347
 Red. masses --      1.1011                 1.1014                 1.1046
 Frc consts  --      6.3553                 6.3622                 6.4261
 IR Inten    --     30.6316                34.5845                 4.9629

                     79                     80                     81
                      A                      A                      A
 Frequencies --   3143.1358              3162.2701              3744.3928
 Red. masses --      1.1004                 1.1079                 1.0661
 Frc consts  --      6.4051                 6.5273                 8.8064
 IR Inten    --     19.1181                27.1850                17.3065

 - Thermochemistry -
 -------------------
 Temperature   298.150 Kelvin.  Pressure   1.00000 Atm.
 Atom     1 has atomic number  6 and mass  12.00000

 Molecular mass:   184.10994 amu.
 Principal axes and moments of inertia in atomic units:
                           1         2         3
     Eigenvalues --  1073.415955942.444036135.46699
           X            0.99995   0.00855  -0.00601
           Y           -0.00842   0.99976   0.02031
           Z            0.00618  -0.02026   0.99978
 This molecule is an asymmetric top.
 Rotational symmetry number  1.
 Warning -- assumption of classical behavior for rotation
           may cause significant error
 Rotational temperatures (Kelvin)      0.08069     0.01458     0.01412
 Rotational constants (GHZ):           1.68131     0.30370     0.29415
 Zero-point vibrational energy     649086.4 (Joules/Mol)
                                  155.13537 (Kcal/Mol)
 Warning -- explicit consideration of  24 degrees of freedom as
           vibrations may cause significant error
 Vibrational temperatures:     20.61    57.21    63.70   107.90   152.87
          (Kelvin)            159.45   256.90   309.29   319.10   342.75
                              362.30   372.98   397.45   413.88   449.47
                              473.82   506.98   530.03   566.18   581.31
                              637.39   771.18   781.18   851.70   939.33
                             1081.74  1101.72  1143.94  1229.50  1265.16
                             1306.51  1372.08  1373.63  1408.13  1464.88
                             1502.44  1519.36  1535.51  1600.58  1630.58
                             1742.44  1760.86  1809.89  1828.82  1850.43
                             1858.49  1932.28  1938.23  2041.55  2049.00
                             2056.51  2063.14  2076.87  2097.94  2173.72
                             2181.09  2185.76  2186.61  2189.88  2207.21
                             2212.99  2214.68  2232.81  2576.73  3372.85
                             4382.46  4382.92  4391.47  4401.40  4406.91
                             4456.38  4472.17  4476.82  4480.67  4493.11
                             4503.15  4504.96  4520.97  4522.27  4549.80
                             5387.35

 Zero-point correction=                           0.247224 (Hartree/Particle)
 Thermal correction to Energy=                    0.262884
 Thermal correction to Enthalpy=                  0.263828
 Thermal correction to Gibbs Free Energy=         0.202891
 Sum of electronic and zero-point Energies=           -616.108450
 Sum of electronic and thermal Energies=              -616.092790
 Sum of electronic and thermal Enthalpies=            -616.091846
 Sum of electronic and thermal Free Energies=         -616.152783

                     E (Thermal)             CV                S
                      KCal/Mol        Cal/Mol-Kelvin    Cal/Mol-Kelvin
 Total                  164.962             56.225            128.253
 Electronic               0.000              0.000              0.000
 Translational            0.889              2.981             41.537
 Rotational               0.889              2.981             32.037
 Vibrational            163.185             50.264             54.678
 Vibration     1          0.593              1.986              7.297
 Vibration     2          0.594              1.981              5.271
 Vibration     3          0.595              1.980              5.058
 Vibration     4          0.599              1.966              4.018
 Vibration     5          0.605              1.944              3.336
 Vibration     6          0.607              1.941              3.254
 Vibration     7          0.629              1.869              2.343
 Vibration     8          0.645              1.818              2.001
 Vibration     9          0.648              1.808              1.944
 Vibration    10          0.656              1.782              1.816
 Vibration    11          0.664              1.760              1.718
 Vibration    12          0.668              1.747              1.667
 Vibration    13          0.678              1.717              1.557
 Vibration    14          0.685              1.697              1.488
 Vibration    15          0.701              1.650              1.350
 Vibration    16          0.712              1.617              1.263
 Vibration    17          0.729              1.570              1.156
 Vibration    18          0.741              1.537              1.086
 Vibration    19          0.761              1.484              0.987
 Vibration    20          0.769              1.461              0.948
 Vibration    21          0.803              1.376              0.817
 Vibration    22          0.891              1.170              0.574
 Vibration    23          0.898              1.155              0.559
 Vibration    24          0.949              1.049              0.464

 Optimization completed.
    -- Stationary point found.
 Normal termination of Gaussian 16 at Wed Dec  9 22:35:39 2020.

 ----------------------------------------------------------------------
 # B3LYP/6-311++G(d,p) empiricaldispersion=gd3bj scf=xqc pop=npa geom=c
 heck
 ----------------------------------------------------------------------

 --------------------------------------
 CID_11816266_JID_3113_Energie_neutraal
 --------------------------------------
 Structure from the checkpoint file:  "JID_3113.chk"
 Charge =  0 Multiplicity = 1

 SCF Done:  E(RB3LYP) =  -616.545550412     A.U. after   16 cycles
 Normal termination of Gaussian 16 at Wed Dec  9 22:38:52 2020.

 ----------------------------------------------------------------------
 # B3LYP/6-311++G(d,p) empiricaldispersion=gd3bj scf=xqc pop=npa geom=c
 heck
 ----------------------------------------------------------------------

 ------------------------------------
 CID_11816266_JID_3113_Energie_kation
 ------------------------------------
 Structure from the checkpoint file:  "JID_3113.chk"
 Charge =  1 Multiplicity = 2

 SCF Done:  E(UB3LYP) =  -616.193019284     A.U. after   27 cycles
 Normal termination of Gaussian 16 at Wed Dec  9 22:47:29 2020.
 Gaussian 16:  ES64L-G16RevA.03 25-Dec-2016

 ----------------------------------------------------------------------
 # B3LYP/6-311++G(d,p) empiricaldispersion=gd3bj scf=xqc pop=npa geom=c
 heck
 ----------------------------------------------------------------------

 -----------------------------------
 CID_11816266_JID_3113_Energie_anion
 -----------------------------------
 Structure from the checkpoint file:  "JID_3113.chk"
 Charge = -1 Multiplicity = 2

                         Standard orientation:
 ---------------------------------------------------------------------
 Center     Atomic      Atomic             Coordinates (Angstroms)
 Number     Number       Type             X           Y           Z
 ---------------------------------------------------------------------
      1          6           0       -4.575045    0.430360    1.214014
      2          6           0       -4.222924   -0.537109    0.095729
      3          8           0       -2.793149   -0.769855    0.034505
      4          6           0       -2.074779    0.160308   -0.627238
      5          8           0       -2.535930    1.146118   -1.165748
      6          6           0       -0.668263   -0.170007   -0.612378
      7          6           0        0.522468   -0.387699   -0.645997
      8          6           0        1.961559   -0.673299   -0.616398
      9          6           0        2.750538    0.385845    0.218767
     10          6           0        2.297587    0.345287    1.686470
     11          6           0        4.244199    0.039798    0.121791
     12          6           0        2.498170    1.781601   -0.371649
     13          8           0        2.205368   -2.012756   -0.187769
     14          1           0       -4.191636    0.068928    2.173507
     15          1           0       -5.663766    0.527492    1.291292
     16          1           0       -4.154551    1.418877    1.011876
     17          1           0       -4.643899   -1.529332    0.271221
     18          1           0       -4.559639   -0.164037   -0.874290
     19          1           0        2.345685   -0.635321   -1.643341
     20          1           0        2.494038   -0.634549    2.137547
     21          1           0        2.847298    1.088758    2.273416
     22          1           0        1.228312    0.564046    1.781233
     23          1           0        4.596706    0.106921   -0.914568
     24          1           0        4.835115    0.739498    0.723324
     25          1           0        4.434697   -0.975640    0.478754
     26          1           0        2.779677    1.819630   -1.431047
     27          1           0        1.445682    2.070387   -0.291229
     28          1           0        3.098408    2.528723    0.159402
     29          1           0        1.696496   -2.152945    0.626333
 ---------------------------------------------------------------------

 SCF Done:  E(UB3LYP) =  -616.540411022     A.U. after   32 cycles

 The electronic state is 2-A.
 Alpha  occ. eigenvalues --  -19.03812 -19.02348 -18.96960 -10.16432 -10.13628
 Alpha  occ. eigenvalues --  -10.11637 -10.08635 -10.05853 -10.05797 -10.05743
 Alpha  occ. eigenvalues --  -10.05740 -10.04893 -10.04665  -0.97637  -0.92731
 Alpha  occ. eigenvalues --   -0.88718  -0.72425  -0.66980  -0.64673  -0.59400
 Alpha  occ. eigenvalues --   -0.58817  -0.58491  -0.55051  -0.48269  -0.45216
 Alpha  occ. eigenvalues --   -0.43012  -0.41196  -0.37417  -0.36534  -0.36214
 Alpha  occ. eigenvalues --   -0.34271  -0.33719  -0.33222  -0.32277  -0.29666
 Alpha  occ. eigenvalues --   -0.28978  -0.28203  -0.27735  -0.27251  -0.26714
 Alpha  occ. eigenvalues --   -0.26302  -0.25053  -0.23270  -0.23100  -0.22863
 Alpha  occ. eigenvalues --   -0.18882  -0.18466  -0.17106  -0.15744  -0.14288
 Alpha  occ. eigenvalues --    0.04590
 Alpha virt. eigenvalues --    0.06451   0.07113   0.08169   0.08789   0.09348
 Alpha virt. eigenvalues --    0.09429   0.10151   0.10711   0.11456   0.11680
 Alpha virt. eigenvalues --    0.12221   0.12548   0.13285   0.13813   0.14214

  Beta  occ. eigenvalues --  -19.03760 -19.02327 -18.96694 -10.16151 -10.13649
  Beta  occ. eigenvalues --  -10.11632 -10.08612 -10.05816 -10.05783 -10.05717
  Beta  occ. eigenvalues --  -10.05712 -10.04853 -10.04481  -0.97361  -0.92683
  Beta  occ. eigenvalues --   -0.88324  -0.72356  -0.66776  -0.64422  -0.59265
  Beta  occ. eigenvalues --   -0.58740  -0.58404  -0.54867  -0.47879  -0.45121
  Beta  occ. eigenvalues --   -0.42872  -0.41066  -0.37340  -0.36439  -0.35944
  Beta  occ. eigenvalues --   -0.33846  -0.33660  -0.32966  -0.32223  -0.29365
  Beta  occ. eigenvalues --   -0.28949  -0.28172  -0.27205  -0.27171  -0.26682
  Beta  occ. eigenvalues --   -0.26090  -0.24936  -0.23232  -0.23019  -0.22780
  Beta  occ. eigenvalues --   -0.18680  -0.17746  -0.16925  -0.14883  -0.14070
  Beta virt. eigenvalues --    0.06657   0.07364   0.08532   0.08943   0.09343
  Beta virt. eigenvalues --    0.09527   0.10074   0.10420   0.10788   0.11610
  Beta virt. eigenvalues --    0.11755   0.12278   0.12628   0.13353   0.13893

 Mulliken charges and spin densities:
               1          2
     1  C    0.522951  -0.871871
     2  C   -0.292120   0.106281
     3  O   -0.040575   0.015869
     4  C   -1.804374   1.137768
     5  O   -0.311934   0.084892
     6  C    1.140854  -0.794878
     7  C    0.047986   0.365794
     8  C    0.918988  -1.572214
     9  C   -1.010819   1.884840
    10  C    0.234551  -0.843623
    11  C    0.208549  -0.780825
    12  C   -0.262212  -0.426389
    13  O   -0.175983   0.006513
    14  H   -0.023200   0.156600
    15  H   -0.276035   0.402762
    16  H   -0.046818   0.218000
    17  H   -0.172744   0.327213
    18  H    0.135527   0.021906
    19  H    0.109902   0.113839
    20  H   -0.158408   0.297013
    21  H   -0.099268   0.241497
    22  H    0.182409  -0.016139
    23  H   -0.107936   0.232595
    24  H   -0.074316   0.210284
    25  H    0.076532   0.090847
    26  H   -0.005799   0.148722
    27  H    0.123555   0.041494
    28  H    0.048023   0.073622
    29  H    0.112715   0.127589
 Sum of Mulliken charges =  -1.00000   1.00000

 Dipole moment (field-independent basis, Debye):
    X=              2.7918    Y=             -0.2090    Z=              0.3396  Tot=              2.8201
 Quadrupole moment (field-independent basis, Debye-Ang):
   XX=           -157.9364   YY=           -106.0033   ZZ=           -104.5238
   XY=              6.6056   XZ=              2.6326   YZ=              1.5376

 Summary of Natural Population Analysis:

                                       Natural Population
                Natural  -----------------------------------------------
    Atom  No    Charge         Core      Valence    Rydberg      Total
 -----------------------------------------------------------------------
      C    1   -0.30079      0.99966     2.29613    0.00499     3.30079
      C    2   -0.01844      0.99959     2.00594    0.01292     3.01844
      O    3   -0.27599      0.99987     3.26758    0.00855     4.27599
      C    4    0.40115      0.99960     1.57711    0.02214     2.59885
      O    5   -0.28297      0.99987     3.27800    0.00509     4.28297
      C    6   -0.04909      0.99918     2.04263    0.00728     3.04909
      C    7    0.03987      0.99926     1.95345    0.00742     2.96013
      C    8    0.03088      0.99944     1.95442    0.01526     2.96912
      C    9   -0.04695      0.99958     2.03459    0.01277     3.04695
      C   10   -0.29351      0.99962     2.28547    0.00842     3.29351
      C   11   -0.28470      0.99962     2.27869    0.00639     3.28470
      C   12   -0.28694      0.99962     2.28150    0.00581     3.28694
      O   13   -0.36419      0.99990     3.35796    0.00632     4.36419
      H   14    0.09881      0.00000     0.40012    0.00106     0.40119
      H   15    0.09887      0.00000     0.39961    0.00151     0.40113
      H   16    0.10794      0.00000     0.39108    0.00098     0.39206
      H   17    0.08667      0.00000     0.41209    0.00124     0.41333
      H   18    0.09339      0.00000     0.40544    0.00117     0.40661
      H   19    0.10191      0.00000     0.39620    0.00189     0.39809
      H   20    0.09794      0.00000     0.40092    0.00115     0.40206
      H   21    0.09927      0.00000     0.39988    0.00085     0.40073
      H   22    0.10875      0.00000     0.39038    0.00087     0.39125
      H   23    0.09814      0.00000     0.40074    0.00112     0.40186
      H   24    0.09609      0.00000     0.40295    0.00096     0.40391
      H   25    0.10686      0.00000     0.39196    0.00119     0.39314
      H   26    0.09891      0.00000     0.40013    0.00096     0.40109
      H   27    0.11036      0.00000     0.38871    0.00094     0.38964
      H   28    0.09713      0.00000     0.40196    0.00091     0.40287
      H   29    0.23063      0.00000     0.26635    0.00301     0.26937
 =======================================================================
   * Total *    0.00000     12.99482    36.86199    0.14319    50.00000

 Normal termination of Gaussian 16 at Wed Dec  9 22:57:03 2020.
