 Gaussian 16, Revision A.03,

 -----------------------------------------------------------
 # opt freq B3LYP/6-31G(d) empiricaldispersion=gd3bj scf=xqc
 -----------------------------------------------------------

 ------------------------------
 CID_54188416_JID_5365_neutraal
 ------------------------------
 Symbolic Z-matrix:
 Charge =  0 Multiplicity = 1

 SCF Done:  E(RB3LYP) =  -1123.28488592     A.U. after   15 cycles
 SCF Done:  E(RB3LYP) =  -1123.28912084     A.U. after   13 cycles
 SCF Done:  E(RB3LYP) =  -1123.28980932     A.U. after   13 cycles
 SCF Done:  E(RB3LYP) =  -1123.29020155     A.U. after   12 cycles
 SCF Done:  E(RB3LYP) =  -1123.29047812     A.U. after   12 cycles
 SCF Done:  E(RB3LYP) =  -1123.29070298     A.U. after   11 cycles
 SCF Done:  E(RB3LYP) =  -1123.29083897     A.U. after   11 cycles
 SCF Done:  E(RB3LYP) =  -1123.29091566     A.U. after   11 cycles
 SCF Done:  E(RB3LYP) =  -1123.29097187     A.U. after   11 cycles
 SCF Done:  E(RB3LYP) =  -1123.29099229     A.U. after   10 cycles
 SCF Done:  E(RB3LYP) =  -1123.29099743     A.U. after   10 cycles
 SCF Done:  E(RB3LYP) =  -1123.29099799     A.U. after    8 cycles
 SCF Done:  E(RB3LYP) =  -1123.29099809     A.U. after    7 cycles
 Optimization completed.
    -- Stationary point found.
 Normal termination of Gaussian 16 at Thu Dec 10 15:43:34 2020.

 --------------------------------------------------------------------
 #N Geom=AllCheck Guess=TCheck SCRF=Check GenChk RB3LYP/6-31G(d) Freq
 --------------------------------------------------------------------

 Structure from the checkpoint file:  "JID_5365.chk"
 ------------------------------
 CID_54188416_JID_5365_neutraal
 ------------------------------
 Charge =  0 Multiplicity = 1

 SCF Done:  E(RB3LYP) =  -1123.29099809     A.U. after    1 cycles

  Exact polarizability: 138.311 -22.045  98.654  -8.655 -13.576 107.961
 Approx polarizability: 210.668 -30.043 141.957 -15.933 -37.637 206.837

                      1                      2                      3
                      A                      A                      A
 Frequencies --     31.4840                40.8039                70.8374
 Red. masses --      5.9415                 5.4208                 7.2498
 Frc consts  --      0.0035                 0.0053                 0.0214
 IR Inten    --      1.4304                 0.5411                 0.8022

                      4                      5                      6
                      A                      A                      A
 Frequencies --     83.8675                90.7481               163.3030
 Red. masses --      9.2452                 5.0542                 4.8034
 Frc consts  --      0.0383                 0.0245                 0.0755
 IR Inten    --      0.7035                 0.0529                 8.5736

                      7                      8                      9
                      A                      A                      A
 Frequencies --    174.5104               188.2856               232.0064
 Red. masses --      6.5164                 6.3677                 6.7671
 Frc consts  --      0.1169                 0.1330                 0.2146
 IR Inten    --      2.0993                 0.7631                 0.7197

                     10                     11                     12
                      A                      A                      A
 Frequencies --    292.1427               298.3694               314.0198
 Red. masses --      3.5559                 3.7734                 5.1574
 Frc consts  --      0.1788                 0.1979                 0.2996
 IR Inten    --      1.5813                 9.4815                 0.9349

                     13                     14                     15
                      A                      A                      A
 Frequencies --    395.1253               415.5627               428.4291
 Red. masses --      4.3825                 2.9506                 4.4466
 Frc consts  --      0.4031                 0.3002                 0.4809
 IR Inten    --      4.3474                 0.0053                14.6783

                     16                     17                     18
                      A                      A                      A
 Frequencies --    466.7996               514.1065               529.6863
 Red. masses --      4.8546                 5.0656                 4.6081
 Frc consts  --      0.6232                 0.7888                 0.7617
 IR Inten    --     26.5012                57.7023                 9.7699

                     19                     20                     21
                      A                      A                      A
 Frequencies --    544.4459               546.9696               629.5188
 Red. masses --      1.7080                 1.9062                 6.4217
 Frc consts  --      0.2983                 0.3360                 1.4994
 IR Inten    --    115.1944                28.5321                 0.3294

                     22                     23                     24
                      A                      A                      A
 Frequencies --    669.3995               677.5816               698.8593
 Red. masses --      5.9736                 5.6740                 2.5360
 Frc consts  --      1.5771                 1.5348                 0.7298
 IR Inten    --      4.5019                34.3580                23.9763

                     25                     26                     27
                      A                      A                      A
 Frequencies --    735.3259               770.2472               777.5285
 Red. masses --      3.1567                 1.9779                 7.9095
 Frc consts  --      1.0056                 0.6914                 2.8173
 IR Inten    --     70.6333                19.3934                57.1874

                     28                     29                     30
                      A                      A                      A
 Frequencies --    846.3997               859.9988               941.0217
 Red. masses --      2.4980                 1.2456                 1.3314
 Frc consts  --      1.0544                 0.5428                 0.6946
 IR Inten    --     23.0013                 0.2358                 1.4218

                     31                     32                     33
                      A                      A                      A
 Frequencies --    962.1508               979.6454               997.5747
 Red. masses --      2.4790                 1.3614                 2.0398
 Frc consts  --      1.3521                 0.7698                 1.1960
 IR Inten    --     22.0120                 0.6169                 1.4886

                     34                     35                     36
                      A                      A                      A
 Frequencies --   1003.9706              1020.2698              1052.8439
 Red. masses --      1.2706                 6.1674                 2.8854
 Frc consts  --      0.7546                 3.7825                 1.8845
 IR Inten    --      0.0640                 4.4050                 3.5969

                     37                     38                     39
                      A                      A                      A
 Frequencies --   1061.8068              1087.9097              1112.9488
 Red. masses --      2.5377                 4.0233                 1.5757
 Frc consts  --      1.6857                 2.8056                 1.1500
 IR Inten    --     13.4671                75.6701                 6.0265

                     40                     41                     42
                      A                      A                      A
 Frequencies --   1134.1633              1137.3552              1196.9687
 Red. masses --      4.1910                 4.6837                 1.1051
 Frc consts  --      3.1763                 3.5697                 0.9329
 IR Inten    --     76.1654               109.7395                 0.3451

                     43                     44                     45
                      A                      A                      A
 Frequencies --   1211.7129              1221.4890              1224.1625
 Red. masses --      1.1624                 1.3219                 1.9736
 Frc consts  --      1.0055                 1.1620                 1.7425
 IR Inten    --      0.4971               102.4310               327.9217

                     46                     47                     48
                      A                      A                      A
 Frequencies --   1286.5367              1307.1769              1346.7428
 Red. masses --      1.2829                 5.9352                 1.5134
 Frc consts  --      1.2511                 5.9752                 1.6173
 IR Inten    --      8.3915               121.7115                 2.4416

                     49                     50                     51
                      A                      A                      A
 Frequencies --   1351.1232              1367.8846              1397.5277
 Red. masses --      1.4915                 3.8014                 1.4670
 Frc consts  --      1.6042                 4.1907                 1.6881
 IR Inten    --     10.5199                 0.2072                73.7278

                     52                     53                     54
                      A                      A                      A
 Frequencies --   1454.9797              1466.0785              1495.2841
 Red. masses --      1.9864                 1.1948                 2.1943
 Frc consts  --      2.4776                 1.5130                 2.8907
 IR Inten    --    122.7400                 9.7354                17.1979

                     55                     56                     57
                      A                      A                      A
 Frequencies --   1528.6727              1536.9184              1647.2812
 Red. masses --      2.0371                 1.0949                 5.6297
 Frc consts  --      2.8048                 1.5237                 9.0005
 IR Inten    --      3.2059                15.7512                 0.7899

                     58                     59                     60
                      A                      A                      A
 Frequencies --   1649.1412              1849.0454              3086.3185
 Red. masses --      5.5284                 9.8118                 1.0632
 Frc consts  --      8.8586                19.7648                 5.9667
 IR Inten    --      0.8804               268.1442                23.3160

                     61                     62                     63
                      A                      A                      A
 Frequencies --   3096.2128              3153.8263              3162.0864
 Red. masses --      1.0607                 1.1059                 1.1031
 Frc consts  --      5.9911                 6.4809                 6.4984
 IR Inten    --      4.8921                 1.6871                 1.7892

                     64                     65                     66
                      A                      A                      A
 Frequencies --   3192.3628              3205.3282              3213.3601
 Red. masses --      1.0862                 1.0896                 1.0938
 Frc consts  --      6.5218                 6.5959                 6.6546
 IR Inten    --      1.1570                11.6239                14.4899

                     67                     68                     69
                      A                      A                      A
 Frequencies --   3224.0537              3244.2954              3747.6383
 Red. masses --      1.0955                 1.0927                 1.0647
 Frc consts  --      6.7089                 6.7762                 8.8107
 IR Inten    --      6.5808                 2.9250                75.3659

 - Thermochemistry -
 -------------------
 Temperature   298.150 Kelvin.  Pressure   1.00000 Atm.
 Atom     1 has atomic number  6 and mass  12.00000

 Molecular mass:   230.02490 amu.
 Principal axes and moments of inertia in atomic units:
                           1         2         3
     Eigenvalues --  2538.830763219.771444486.29194
           X            0.99319  -0.11551  -0.01549
           Y            0.11548   0.99331  -0.00305
           Z            0.01573   0.00124   0.99988
 This molecule is an asymmetric top.
 Rotational symmetry number  1.
 Warning -- assumption of classical behavior for rotation
           may cause significant error
 Rotational temperatures (Kelvin)      0.03412     0.02690     0.01931
 Rotational constants (GHZ):           0.71086     0.56052     0.40228
 Zero-point vibrational energy     495506.6 (Joules/Mol)
                                  118.42892 (Kcal/Mol)
 Warning -- explicit consideration of  20 degrees of freedom as
           vibrations may cause significant error
 Vibrational temperatures:     45.30    58.71   101.92   120.67   130.57
          (Kelvin)            234.96   251.08   270.90   333.81   420.33
                              429.29   451.80   568.50   597.90   616.41
                              671.62   739.68   762.10   783.34   786.97
                              905.74   963.12   974.89  1005.50  1057.97
                             1108.21  1118.69  1217.78  1237.35  1353.92
                             1384.32  1409.49  1435.29  1444.49  1467.94
                             1514.81  1527.70  1565.26  1601.29  1631.81
                             1636.40  1722.17  1743.38  1757.45  1761.30
                             1851.04  1880.74  1937.66  1943.96  1968.08
                             2010.73  2093.39  2109.36  2151.38  2199.42
                             2211.28  2370.07  2372.75  2660.36  4440.52
                             4454.76  4537.65  4549.54  4593.10  4611.75
                             4623.31  4638.69  4667.82  5392.02

 Zero-point correction=                           0.188728 (Hartree/Particle)
 Thermal correction to Energy=                    0.202558
 Thermal correction to Enthalpy=                  0.203502
 Thermal correction to Gibbs Free Energy=         0.146699
 Sum of electronic and zero-point Energies=          -1123.102270
 Sum of electronic and thermal Energies=             -1123.088440
 Sum of electronic and thermal Enthalpies=           -1123.087496
 Sum of electronic and thermal Free Energies=        -1123.144299

                     E (Thermal)             CV                S
                      KCal/Mol        Cal/Mol-Kelvin    Cal/Mol-Kelvin
 Total                  127.107             51.557            119.552
 Electronic               0.000              0.000              0.000
 Translational            0.889              2.981             42.201
 Rotational               0.889              2.981             31.973
 Vibrational            125.330             45.596             45.379
 Vibration     1          0.594              1.983              5.734
 Vibration     2          0.594              1.981              5.220
 Vibration     3          0.598              1.968              4.130
 Vibration     4          0.601              1.960              3.798
 Vibration     5          0.602              1.956              3.644
 Vibration     6          0.623              1.887              2.511
 Vibration     7          0.627              1.874              2.386
 Vibration     8          0.633              1.856              2.245
 Vibration     9          0.653              1.792              1.863
 Vibration    10          0.688              1.688              1.462
 Vibration    11          0.691              1.677              1.426
 Vibration    12          0.702              1.647              1.341
 Vibration    13          0.762              1.481              0.981
 Vibration    14          0.779              1.436              0.907
 Vibration    15          0.790              1.408              0.864
 Vibration    16          0.824              1.324              0.747
 Vibration    17          0.869              1.219              0.624
 Vibration    18          0.885              1.184              0.588
 Vibration    19          0.900              1.152              0.556
 Vibration    20          0.902              1.146              0.550

                           ! Non-Optimized Parameters !
 Normal termination of Gaussian 16 at Thu Dec 10 15:51:59 2020.

 ----------------------------------------------------------------------
 # B3LYP/6-311++G(d,p) empiricaldispersion=gd3bj scf=xqc pop=npa geom=c
 heck
 ----------------------------------------------------------------------

 --------------------------------------
 CID_54188416_JID_5365_Energie_neutraal
 --------------------------------------
 Structure from the checkpoint file:  "JID_5365.chk"
 Charge =  0 Multiplicity = 1

 SCF Done:  E(RB3LYP) =  -1123.53511266     A.U. after   17 cycles
 Normal termination of Gaussian 16 at Thu Dec 10 15:56:05 2020.

 ----------------------------------------------------------------------
 # B3LYP/6-311++G(d,p) empiricaldispersion=gd3bj scf=xqc pop=npa geom=c
 heck
 ----------------------------------------------------------------------

 ------------------------------------
 CID_54188416_JID_5365_Energie_kation
 ------------------------------------
 Structure from the checkpoint file:  "JID_5365.chk"
 Charge =  1 Multiplicity = 2

 SCF Done:  E(UB3LYP) =  -1123.18037246     A.U. after   33 cycles
 SCF Done:  E(UB3LYP) =  -1123.18187769     a.u. after    9 cycles
 Normal termination of Gaussian 16 at Thu Dec 10 17:27:58 2020.
 Gaussian 16:  ES64L-G16RevA.03 25-Dec-2016

 ----------------------------------------------------------------------
 # B3LYP/6-311++G(d,p) empiricaldispersion=gd3bj scf=xqc pop=npa geom=c
 heck
 ----------------------------------------------------------------------

 -----------------------------------
 CID_54188416_JID_5365_Energie_anion
 -----------------------------------
 Structure from the checkpoint file:  "JID_5365.chk"
 Charge = -1 Multiplicity = 2

                         Standard orientation:
 ---------------------------------------------------------------------
 Center     Atomic      Atomic             Coordinates (Angstroms)
 Number     Number       Type             X           Y           Z
 ---------------------------------------------------------------------
      1          6           0       -2.237007    2.183533    0.032634
      2          6           0       -1.827518    1.495694    1.175685
      3          6           0       -0.554973    0.925864    1.231605
      4          6           0        0.287073    1.060987    0.129253
      5          6           0       -0.101178    1.759595   -1.014998
      6          6           0       -1.375979    2.317902   -1.060111
      7         16           0        1.915817    0.315249    0.188667
      8          8           0        2.863329    1.210630   -0.492629
      9          8           0        2.147095   -0.145568    1.567923
     10          6           0        1.797205   -1.179299   -0.851623
     11          6           0        0.752429   -2.180924   -0.394663
     12          8           0       -0.526306   -1.774148   -0.917426
     13          6           0       -1.553748   -1.756766   -0.058740
     14          8           0       -1.536292   -2.083845    1.106402
     15          8           0       -2.633090   -1.304347   -0.720112
     16          1           0       -3.229280    2.623777   -0.007047
     17          1           0       -2.494880    1.401515    2.027133
     18          1           0       -0.214685    0.379621    2.103102
     19          1           0        0.590142    1.873529   -1.843379
     20          1           0       -1.696379    2.862219   -1.943106
     21          1           0        1.623192   -0.856799   -1.880889
     22          1           0        2.801909   -1.607958   -0.779131
     23          1           0        0.974827   -3.167010   -0.813315
     24          1           0        0.705240   -2.256842    0.693311
     25          1           0       -3.348871   -1.277328   -0.062873
 ---------------------------------------------------------------------

 SCF Done:  E(UB3LYP) =  -1123.53578421     A.U. after   33 cycles
 SCF Done:  E(UB3LYP) =  -1123.53578421     a.u. after    1 cycles

 The electronic state is 2-A.
 Alpha  occ. eigenvalues --  -88.92005 -19.07644 -19.07266 -19.01367 -18.99188
 Alpha  occ. eigenvalues --  -18.99143 -10.25133 -10.14170 -10.10285 -10.06490
 Alpha  occ. eigenvalues --  -10.05703 -10.05551 -10.05345 -10.05142 -10.04420
 Alpha  occ. eigenvalues --   -7.98409  -5.94707  -5.94582  -5.94493  -1.04950
 Alpha  occ. eigenvalues --   -0.98372  -0.96206  -0.92714  -0.88237  -0.74087
 Alpha  occ. eigenvalues --   -0.70496  -0.64569  -0.63005  -0.60192  -0.53840
 Alpha  occ. eigenvalues --   -0.50607  -0.48989  -0.46206  -0.45399  -0.41315
 Alpha  occ. eigenvalues --   -0.41131  -0.39766  -0.37703  -0.36339  -0.35353
 Alpha  occ. eigenvalues --   -0.34316  -0.33371  -0.32932  -0.32348  -0.31370
 Alpha  occ. eigenvalues --   -0.31088  -0.30751  -0.26597  -0.25386  -0.24711
 Alpha  occ. eigenvalues --   -0.23756  -0.23134  -0.21989  -0.21196  -0.20162
 Alpha  occ. eigenvalues --   -0.19983  -0.18753  -0.16779  -0.14592  -0.14125
 Alpha  occ. eigenvalues --    0.04436
 Alpha virt. eigenvalues --    0.06781   0.06846   0.08744   0.09751   0.09923
 Alpha virt. eigenvalues --    0.10310   0.10576   0.11271   0.12778   0.13038
 Alpha virt. eigenvalues --    0.13191   0.14211   0.14734   0.16060   0.16377

  Beta  occ. eigenvalues --  -88.91998 -19.07640 -19.07236 -19.01352 -18.99161
  Beta  occ. eigenvalues --  -18.99112 -10.25131 -10.14145 -10.10247 -10.06268
  Beta  occ. eigenvalues --  -10.05611 -10.05554 -10.05243 -10.05130 -10.04128
  Beta  occ. eigenvalues --   -7.98399  -5.94702  -5.94545  -5.94491  -1.04925
  Beta  occ. eigenvalues --   -0.98266  -0.96171  -0.92683  -0.88166  -0.73743
  Beta  occ. eigenvalues --   -0.70397  -0.64129  -0.62717  -0.60038  -0.53535
  Beta  occ. eigenvalues --   -0.50382  -0.48896  -0.46057  -0.45234  -0.41216
  Beta  occ. eigenvalues --   -0.41039  -0.39741  -0.37534  -0.36181  -0.35269
  Beta  occ. eigenvalues --   -0.34208  -0.33234  -0.32794  -0.32257  -0.31278
  Beta  occ. eigenvalues --   -0.30997  -0.30667  -0.26574  -0.24792  -0.24299
  Beta  occ. eigenvalues --   -0.23701  -0.23032  -0.21930  -0.21077  -0.20124
  Beta  occ. eigenvalues --   -0.19955  -0.18624  -0.16634  -0.13375  -0.13140
  Beta virt. eigenvalues --    0.07201   0.07792   0.08855   0.09223   0.09862
  Beta virt. eigenvalues --    0.10148   0.10480   0.10901   0.11296   0.12814
  Beta virt. eigenvalues --    0.13155   0.13201   0.14157   0.15002   0.15874

 Mulliken charges and spin densities:
               1          2
     1  C    0.012071  -0.125908
     2  C   -0.338822  -0.121100
     3  C   -0.302278   0.295832
     4  C    0.034637   0.029818
     5  C   -0.131413   0.168170
     6  C   -0.330244  -0.068442
     7  S    0.440240  -0.016826
     8  O   -0.177345  -0.005462
     9  O   -0.229902   0.003464
    10  C   -0.307001  -0.274439
    11  C   -0.031169  -0.326773
    12  O    0.099228  -0.014961
    13  C    0.286238  -0.233409
    14  O   -0.270700   0.018000
    15  O   -0.122256   0.001198
    16  H   -0.120671   0.234736
    17  H   -0.026692   0.185207
    18  H    0.198226   0.021072
    19  H    0.176074   0.012336
    20  H    0.093974   0.048856
    21  H    0.267066  -0.009088
    22  H    0.016545   0.207719
    23  H   -0.446742   0.625914
    24  H    0.335984  -0.078945
    25  H   -0.125047   0.423030
 Sum of Mulliken charges =  -1.00000   1.00000

 Dipole moment (field-independent basis, Debye):
    X=             -0.6225    Y=             -0.8701    Z=             -1.4568  Tot=              1.8074
 Quadrupole moment (field-independent basis, Debye-Ang):
   XX=           -141.9959   YY=           -125.9906   ZZ=           -114.1561
   XY=             -2.6549   XZ=             -2.4790   YZ=             -2.1079

 Summary of Natural Population Analysis:

                                       Natural Population
                Natural  -----------------------------------------------
    Atom  No    Charge         Core      Valence    Rydberg      Total
 -----------------------------------------------------------------------
      C    1   -0.04288      0.99957     2.03298    0.01033     3.04288
      C    2   -0.11106      0.99956     2.10036    0.01113     3.11106
      C    3   -0.07907      0.99950     2.06815    0.01141     3.07907
      C    4   -0.11313      0.99936     2.09775    0.01601     3.11313
      C    5   -0.07273      0.99950     2.06382    0.00940     3.07273
      C    6   -0.11506      0.99957     2.10428    0.01121     3.11506
      S    7    1.04021      4.99915     1.86618    0.09445     6.95979
      O    8   -0.47391      0.99991     3.46888    0.00512     4.47391
      O    9   -0.47682      0.99991     3.47121    0.00570     4.47682
      C   10   -0.29712      0.99957     2.28446    0.01309     3.29712
      C   11   -0.02709      0.99954     2.01478    0.01276     3.02709
      O   12   -0.27832      0.99985     3.26885    0.00962     4.27832
      C   13    0.51252      0.99978     1.45870    0.02900     2.48748
      O   14   -0.32406      0.99986     3.31915    0.00505     4.32406
      O   15   -0.33217      0.99987     3.32592    0.00638     4.33217
      H   16    0.09323      0.00000     0.40597    0.00080     0.40677
      H   17    0.09717      0.00000     0.40198    0.00085     0.40283
      H   18    0.11385      0.00000     0.38508    0.00106     0.38615
      H   19    0.10331      0.00000     0.39561    0.00108     0.39669
      H   20    0.09562      0.00000     0.40364    0.00074     0.40438
      H   21    0.11597      0.00000     0.38292    0.00111     0.38403
      H   22    0.11906      0.00000     0.37913    0.00181     0.38094
      H   23    0.09419      0.00000     0.40407    0.00173     0.40581
      H   24    0.11295      0.00000     0.38564    0.00141     0.38705
      H   25    0.24529      0.00000     0.24978    0.00492     0.25471
 =======================================================================
   * Total *   -0.00000     18.99452    40.73930    0.26619    60.00000

 Normal termination of Gaussian 16 at Thu Dec 10 17:40:27 2020.
