 Gaussian 16, Revision A.03,

 -----------------------------------------------------------
 # opt freq B3LYP/6-31G(d) empiricaldispersion=gd3bj scf=xqc
 -----------------------------------------------------------

 ------------------------------
 CID_143592186_JID_233_neutraal
 ------------------------------
 Symbolic Z-matrix:
 Charge =  0 Multiplicity = 1

 SCF Done:  E(RB3LYP) =  -407.947699262     A.U. after   13 cycles
 SCF Done:  E(RB3LYP) =  -407.951302001     A.U. after   12 cycles
 SCF Done:  E(RB3LYP) =  -407.951835422     A.U. after   12 cycles
 SCF Done:  E(RB3LYP) =  -407.952039504     A.U. after   11 cycles
 SCF Done:  E(RB3LYP) =  -407.952176157     A.U. after   11 cycles
 SCF Done:  E(RB3LYP) =  -407.952239643     A.U. after   10 cycles
 SCF Done:  E(RB3LYP) =  -407.952272320     A.U. after   10 cycles
 SCF Done:  E(RB3LYP) =  -407.952285585     A.U. after   10 cycles
 SCF Done:  E(RB3LYP) =  -407.952289905     A.U. after    8 cycles
 SCF Done:  E(RB3LYP) =  -407.952291069     A.U. after    8 cycles
 Optimization completed.
    -- Stationary point found.

 1\1\GINC-NODE119\FOpt\RB3LYP\6-31G(d)\C9H17N1\VSC10255\08-Dec-2020\0\\
 # opt freq B3LYP/6-31G(d) empiricaldispersion=gd3bj scf=xqc\\CID_14359
 2186_JID_233_neutraal\\0,1\C,1.1010848101,-0.0065788034,-0.1394046341\
 C,0.5433830382,0.9291321705,-1.1711830304\C,-0.4274310946,0.6883383794
 ,-2.0769047775\C,-0.9020395612,1.8137995635,-2.9799158923\C,-0.2296254
 162,1.8751698008,-4.3775300421\C,-0.5380897229,0.6156013884,-5.2090559
 959\C,-0.7536274107,3.1150588124,-5.1138268641\N,1.2152158741,2.070147
 0247,-4.1585981415\C,-1.115467719,-0.6054407543,-2.2334421976\C,-0.578

 Normal termination of Gaussian 16 at Tue Dec  8 10:21:53 2020.

 --------------------------------------------------------------------
 #N Geom=AllCheck Guess=TCheck SCRF=Check GenChk RB3LYP/6-31G(d) Freq
 --------------------------------------------------------------------

 Structure from the checkpoint file:  "JID_233.chk"
 ------------------------------
 CID_143592186_JID_233_neutraal
 ------------------------------
 Charge =  0 Multiplicity = 1

 SCF Done:  E(RB3LYP) =  -407.952291069     A.U. after    1 cycles

  Exact polarizability: 115.965  -0.993 109.246  10.294  -1.218  83.044
 Approx polarizability: 146.331  -1.790 166.521  19.570  -3.551 127.356

                      1                      2                      3
                      A                      A                      A
 Frequencies --     40.8283                86.1266               100.8583
 Red. masses --      3.2066                 2.9950                 2.4528
 Frc consts  --      0.0031                 0.0131                 0.0147
 IR Inten    --      0.2652                 1.1755                 0.0582

                      4                      5                      6
                      A                      A                      A
 Frequencies --    147.1827               197.0875               238.5896
 Red. masses --      1.9003                 1.7067                 1.0391
 Frc consts  --      0.0243                 0.0391                 0.0348
 IR Inten    --      0.5297                 0.6792                 2.0312

                      7                      8                      9
                      A                      A                      A
 Frequencies --    253.9713               264.4634               272.3640
 Red. masses --      2.0363                 1.8073                 1.7560
 Frc consts  --      0.0774                 0.0745                 0.0768
 IR Inten    --      0.5245                 1.7438                 1.3008

                     10                     11                     12
                      A                      A                      A
 Frequencies --    304.5798               313.4793               315.7720
 Red. masses --      1.7876                 1.3400                 1.6122
 Frc consts  --      0.0977                 0.0776                 0.0947
 IR Inten    --      1.0941                55.2063                16.6709

                     13                     14                     15
                      A                      A                      A
 Frequencies --    350.3747               393.4275               421.7234
 Red. masses --      2.3073                 2.3145                 2.0966
 Frc consts  --      0.1669                 0.2111                 0.2197
 IR Inten    --      2.4347                 2.0342                 4.1590

                     16                     17                     18
                      A                      A                      A
 Frequencies --    445.7349               469.0968               530.2846
 Red. masses --      2.1464                 2.3890                 2.1528
 Frc consts  --      0.2513                 0.3097                 0.3567
 IR Inten    --      3.6693                 1.8468                11.7070

                     19                     20                     21
                      A                      A                      A
 Frequencies --    622.3315               737.4361               780.4820
 Red. masses --      2.7691                 2.5751                 2.9673
 Frc consts  --      0.6319                 0.8251                 1.0650
 IR Inten    --      2.4260                 4.6146                 2.7372

                     22                     23                     24
                      A                      A                      A
 Frequencies --    810.5340               855.0323               891.8021
 Red. masses --      2.5994                 1.3003                 1.8458
 Frc consts  --      1.0062                 0.5601                 0.8649
 IR Inten    --      4.1678                 5.9103                51.7229

                     25                     26                     27
                      A                      A                      A
 Frequencies --    924.3989               932.6943               943.0631
 Red. masses --      1.9258                 1.3660                 1.5868
 Frc consts  --      0.9695                 0.7001                 0.8315
 IR Inten    --     13.9745                40.6919                16.9439

                     28                     29                     30
                      A                      A                      A
 Frequencies --    953.5441               981.0148              1008.6992
 Red. masses --      1.3800                 1.6839                 1.4408
 Frc consts  --      0.7393                 0.9548                 0.8637
 IR Inten    --     22.1540                 2.1525                12.3478

                     31                     32                     33
                      A                      A                      A
 Frequencies --   1036.6681              1040.5579              1074.2419
 Red. masses --      1.1579                 1.3141                 1.4957
 Frc consts  --      0.7332                 0.8383                 1.0169
 IR Inten    --      7.8473                 6.3266                 5.9855

                     34                     35                     36
                      A                      A                      A
 Frequencies --   1103.3741              1110.6265              1134.4748
 Red. masses --      2.4254                 1.5809                 1.7182
 Frc consts  --      1.7397                 1.1489                 1.3029
 IR Inten    --      1.3027                 9.2909                 1.4579

                     37                     38                     39
                      A                      A                      A
 Frequencies --   1173.0742              1220.9876              1258.2186
 Red. masses --      1.6363                 2.2419                 2.5296
 Frc consts  --      1.3267                 1.9692                 2.3594
 IR Inten    --      8.3076                 7.8990                15.9032

                     40                     41                     42
                      A                      A                      A
 Frequencies --   1312.1259              1335.7046              1350.4125
 Red. masses --      1.5606                 1.5332                 1.2844
 Frc consts  --      1.5831                 1.6117                 1.3801
 IR Inten    --      7.3520                11.3844                 1.1597

                     43                     44                     45
                      A                      A                      A
 Frequencies --   1390.3232              1403.0664              1426.5867
 Red. masses --      1.6629                 1.2890                 1.2838
 Frc consts  --      1.8939                 1.4951                 1.5394
 IR Inten    --      5.3127                 0.3026                 6.8636

                     46                     47                     48
                      A                      A                      A
 Frequencies --   1442.6910              1445.8200              1484.1934
 Red. masses --      1.2595                 1.2401                 1.3058
 Frc consts  --      1.5445                 1.5274                 1.6947
 IR Inten    --      3.5641                 5.1101                 3.5742

                     49                     50                     51
                      A                      A                      A
 Frequencies --   1506.4642              1513.9841              1516.0340
 Red. masses --      1.0869                 1.0503                 1.0577
 Frc consts  --      1.4534                 1.4184                 1.4322
 IR Inten    --      1.0899                 1.6960                 6.6262

                     52                     53                     54
                      A                      A                      A
 Frequencies --   1519.1913              1522.4732              1532.8032
 Red. masses --      1.0572                 1.0576                 1.0613
 Frc consts  --      1.4376                 1.4443                 1.4691
 IR Inten    --      2.6573                 5.4502                 2.0387

                     55                     56                     57
                      A                      A                      A
 Frequencies --   1539.2143              1685.6612              1693.9858
 Red. masses --      1.0596                 1.1672                 4.3098
 Frc consts  --      1.4791                 1.9540                 7.2866
 IR Inten    --      8.0151                36.1929                 3.8396

                     58                     59                     60
                      A                      A                      A
 Frequencies --   1721.0915              3027.8363              3035.8468
 Red. masses --      4.5504                 1.0451                 1.0415
 Frc consts  --      7.9416                 5.6450                 5.6554
 IR Inten    --      4.4016                34.1861                23.8225

                     61                     62                     63
                      A                      A                      A
 Frequencies --   3039.5871              3046.9216              3079.7277
 Red. masses --      1.0541                 1.0436                 1.0916
 Frc consts  --      5.7377                 5.7084                 6.1000
 IR Inten    --     12.8149                49.7795                30.5924

                     64                     65                     66
                      A                      A                      A
 Frequencies --   3094.4733              3100.7156              3107.5132
 Red. masses --      1.1016                 1.0988                 1.1000
 Frc consts  --      6.2151                 6.2244                 6.2586
 IR Inten    --     14.6446                14.9279                53.7545

                     67                     68                     69
                      A                      A                      A
 Frequencies --   3126.5253              3130.5100              3131.6927
 Red. masses --      1.0987                 1.0876                 1.1000
 Frc consts  --      6.3278                 6.2797                 6.3561
 IR Inten    --      4.2414                17.2840                34.2562

                     70                     71                     72
                      A                      A                      A
 Frequencies --   3133.9217              3159.3908              3171.8935
 Red. masses --      1.0990                 1.0888                 1.0618
 Frc consts  --      6.3598                 6.4036                 6.2943
 IR Inten    --     30.4780                17.7648                 8.0448

                     73                     74                     75
                      A                      A                      A
 Frequencies --   3251.1801              3450.0370              3536.0306
 Red. masses --      1.1160                 1.0493                 1.0916
 Frc consts  --      6.9503                 7.3588                 8.0418
 IR Inten    --     15.1718                 5.3016                 0.4311

 - Thermochemistry -
 -------------------
 Temperature   298.150 Kelvin.  Pressure   1.00000 Atm.
 Atom     1 has atomic number  6 and mass  12.00000

 Molecular mass:   139.13610 amu.
 Principal axes and moments of inertia in atomic units:
                           1         2         3
     Eigenvalues --   882.830512179.432122559.85292
           X            0.99985  -0.01292   0.01138
           Y            0.01283   0.99989   0.00793
           Z           -0.01148  -0.00778   0.99990
 This molecule is an asymmetric top.
 Rotational symmetry number  1.
 Warning -- assumption of classical behavior for rotation
           may cause significant error
 Rotational temperatures (Kelvin)      0.09811     0.03974     0.03384
 Rotational constants (GHZ):           2.04427     0.82808     0.70502
 Zero-point vibrational energy     644217.9 (Joules/Mol)
                                  153.97179 (Kcal/Mol)
 Warning -- explicit consideration of  18 degrees of freedom as
           vibrations may cause significant error
 Vibrational temperatures:     58.74   123.92   145.11   211.76   283.56
          (Kelvin)            343.28   365.41   380.50   391.87   438.22
                              451.03   454.33   504.11   566.05   606.77
                              641.31   674.93   762.96   895.40  1061.01
                             1122.94  1166.18  1230.20  1283.10  1330.00
                             1341.94  1356.86  1371.94  1411.46  1451.29
                             1491.53  1497.13  1545.59  1587.51  1597.94
                             1632.26  1687.79  1756.73  1810.30  1887.86
                             1921.78  1942.94  2000.37  2018.70  2052.54
                             2075.71  2080.21  2135.42  2167.47  2178.29
                             2181.23  2185.78  2190.50  2205.36  2214.59
                             2425.29  2437.27  2476.27  4356.38  4367.91
                             4373.29  4383.84  4431.04  4452.26  4461.24
                             4471.02  4498.37  4504.11  4505.81  4509.01
                             4545.66  4563.65  4677.72  4963.83  5087.56

 Zero-point correction=                           0.245370 (Hartree/Particle)
 Thermal correction to Energy=                    0.257676
 Thermal correction to Enthalpy=                  0.258620
 Thermal correction to Gibbs Free Energy=         0.207885
 Sum of electronic and zero-point Energies=           -407.706921
 Sum of electronic and thermal Energies=              -407.694615
 Sum of electronic and thermal Enthalpies=            -407.693671
 Sum of electronic and thermal Free Energies=         -407.744406

                     E (Thermal)             CV                S
                      KCal/Mol        Cal/Mol-Kelvin    Cal/Mol-Kelvin
 Total                  161.694             46.542            106.782
 Electronic               0.000              0.000              0.000
 Translational            0.889              2.981             40.703
 Rotational               0.889              2.981             29.978
 Vibrational            159.917             40.580             36.101
 Vibration     1          0.594              1.981              5.218
 Vibration     2          0.601              1.959              3.746
 Vibration     3          0.604              1.948              3.438
 Vibration     4          0.617              1.906              2.708
 Vibration     5          0.636              1.844              2.160
 Vibration     6          0.657              1.781              1.813
 Vibration     7          0.665              1.756              1.703
 Vibration     8          0.671              1.738              1.632
 Vibration     9          0.675              1.724              1.581
 Vibration    10          0.695              1.665              1.392
 Vibration    11          0.701              1.648              1.344
 Vibration    12          0.703              1.644              1.332
 Vibration    13          0.727              1.574              1.165
 Vibration    14          0.761              1.484              0.987
 Vibration    15          0.784              1.423              0.886
 Vibration    16          0.805              1.370              0.809
 Vibration    17          0.826              1.319              0.740
 Vibration    18          0.885              1.183              0.587

                           ! Non-Optimized Parameters !

 1\1\GINC-NODE119\Freq\RB3LYP\6-31G(d)\C9H17N1\VSC10255\08-Dec-2020\0\\
 #N Geom=AllCheck Guess=TCheck SCRF=Check GenChk RB3LYP/6-31G(d) Freq\\
 CID_143592186_JID_233_neutraal\\0,1\C,1.1010848101,-0.0065788034,-0.13
 94046341\C,0.5433830382,0.9291321705,-1.1711830304\C,-0.4274310946,0.6
 883383794,-2.0769047775\C,-0.9020395612,1.8137995635,-2.9799158923\C,-
 0.2296254162,1.8751698008,-4.3775300421\C,-0.5380897229,0.6156013884,-
 5.2090559959\C,-0.7536274107,3.1150588124,-5.1138268641\N,1.2152158741
 ,2.0701470247,-4.1585981415\C,-1.115467719,-0.6054407543,-2.2334421976

 Normal termination of Gaussian 16 at Tue Dec  8 10:27:31 2020.

 ----------------------------------------------------------------------
 # B3LYP/6-311++G(d,p) empiricaldispersion=gd3bj scf=xqc pop=npa geom=c
 heck
 ----------------------------------------------------------------------

 --------------------------------------
 CID_143592186_JID_233_Energie_neutraal
 --------------------------------------
 Structure from the checkpoint file:  "JID_233.chk"
 Charge =  0 Multiplicity = 1

 SCF Done:  E(RB3LYP) =  -408.075207526     A.U. after   14 cycles
 Normal termination of Gaussian 16 at Tue Dec  8 10:30:05 2020.

 ----------------------------------------------------------------------
 # B3LYP/6-311++G(d,p) empiricaldispersion=gd3bj scf=xqc pop=npa geom=c
 heck
 ----------------------------------------------------------------------

 ------------------------------------
 CID_143592186_JID_233_Energie_kation
 ------------------------------------
 Structure from the checkpoint file:  "JID_233.chk"
 Charge =  1 Multiplicity = 2

 SCF Done:  E(UB3LYP) =  -407.777485179     A.U. after   21 cycles
 Normal termination of Gaussian 16 at Tue Dec  8 10:37:14 2020.
 Gaussian 16:  ES64L-G16RevA.03 25-Dec-2016

 -----------------------------------
 CID_143592186_JID_233_Energie_anion
 -----------------------------------
 Structure from the checkpoint file:  "JID_233.chk"
 Charge = -1 Multiplicity = 2

                         Standard orientation:
 ---------------------------------------------------------------------
 Center     Atomic      Atomic             Coordinates (Angstroms)
 Number     Number       Type             X           Y           Z
 ---------------------------------------------------------------------
      1          6           0        2.983236   -1.304494    0.225186
      2          6           0        1.544098   -1.216064   -0.189801
      3          6           0        0.843464   -0.117155   -0.539522
      4          6           0       -0.592829   -0.265992   -1.010961
      5          6           0       -1.676864   -0.065006    0.081608
      6          6           0       -1.649154    1.367006    0.648768
      7          6           0       -3.051135   -0.341580   -0.542028
      8          7           0       -1.448261   -1.089347    1.116972
      9          6           0        1.391088    1.251002   -0.543734
     10          6           0        2.236444    1.793073    0.343163
     11          1           0        3.557285   -0.433329   -0.104133
     12          1           0        3.444201   -2.208387   -0.190569
     13          1           0        3.090443   -1.373442    1.317314
     14          1           0        1.012822   -2.165895   -0.241008
     15          1           0       -0.787985    0.450459   -1.820201
     16          1           0       -0.736592   -1.269748   -1.422884
     17          1           0       -1.799797    2.118683   -0.136408
     18          1           0       -2.449408    1.493828    1.388780
     19          1           0       -0.694662    1.582987    1.137252
     20          1           0       -3.094367   -1.362818   -0.932851
     21          1           0       -3.845520   -0.230421    0.206767
     22          1           0       -3.261434    0.359778   -1.357341
     23          1           0       -0.532073   -0.932148    1.536374
     24          1           0       -2.130018   -0.963709    1.865469
     25          1           0        1.024093    1.887175   -1.351333
     26          1           0        2.576409    2.819557    0.238821
     27          1           0        2.594343    1.248113    1.211072
 ---------------------------------------------------------------------

 SCF Done:  E(UB3LYP) =  -408.058940600     A.U. after   33 cycles
 SCF Done:  E(UB3LYP) =  -408.058940600     a.u. after    1 cycles

 The electronic state is 2-A.
 Alpha  occ. eigenvalues --  -14.17737 -10.09503 -10.05919 -10.05822 -10.05270
 Alpha  occ. eigenvalues --  -10.05156 -10.05025 -10.04805 -10.04601 -10.04119
 Alpha  occ. eigenvalues --   -0.78324  -0.70642  -0.65092  -0.63672  -0.60522
 Alpha  occ. eigenvalues --   -0.57521  -0.53486  -0.48598  -0.43887  -0.40396
 Alpha  occ. eigenvalues --   -0.37845  -0.35974  -0.35082  -0.32842  -0.31817
 Alpha  occ. eigenvalues --   -0.30488  -0.29994  -0.29956  -0.27779  -0.27086
 Alpha  occ. eigenvalues --   -0.25930  -0.25045  -0.24488  -0.23148  -0.22183
 Alpha  occ. eigenvalues --   -0.20911  -0.17668  -0.13385  -0.11547   0.04970
 Alpha virt. eigenvalues --    0.07040   0.07624   0.08116   0.08675   0.09757
 Alpha virt. eigenvalues --    0.09938   0.10067   0.10847   0.11568   0.12408
 Alpha virt. eigenvalues --    0.12728   0.13314   0.13533   0.13731   0.14831

  Beta  occ. eigenvalues --  -14.17718 -10.09504 -10.05884 -10.05815 -10.05252
  Beta  occ. eigenvalues --  -10.05140 -10.04904 -10.04722 -10.04570 -10.04084
  Beta  occ. eigenvalues --   -0.78292  -0.70518  -0.65037  -0.63515  -0.60454
  Beta  occ. eigenvalues --   -0.57456  -0.53396  -0.48390  -0.43817  -0.40274
  Beta  occ. eigenvalues --   -0.37800  -0.35923  -0.35018  -0.32764  -0.31740
  Beta  occ. eigenvalues --   -0.30406  -0.29899  -0.29879  -0.27741  -0.27021
  Beta  occ. eigenvalues --   -0.25887  -0.24992  -0.24444  -0.23091  -0.22128
  Beta  occ. eigenvalues --   -0.20834  -0.17393  -0.13345  -0.11091
  Beta virt. eigenvalues --    0.07219   0.07929   0.08211   0.08722   0.09308
  Beta virt. eigenvalues --    0.10148   0.10339   0.10644   0.11108   0.11871
  Beta virt. eigenvalues --    0.12889   0.13018   0.13679   0.13755   0.13928

 Mulliken charges and spin densities:
               1          2
     1  C    0.999489  -1.780053
     2  C   -2.667810   2.471615
     3  C    1.164589  -0.170224
     4  C    2.123058  -2.991638
     5  C   -1.245182   1.551788
     6  C    0.281745  -1.043134
     7  C    1.014575  -1.568741
     8  N   -0.407125   0.109111
     9  C   -1.567281   1.698949
    10  C    1.197333  -1.895753
    11  H   -0.032469   0.179555
    12  H   -0.097402   0.211888
    13  H   -0.188203   0.353833
    14  H   -0.163888   0.347419
    15  H   -0.206009   0.366372
    16  H    0.123870   0.043198
    17  H   -0.153431   0.310859
    18  H   -0.196460   0.332803
    19  H    0.000245   0.165665
    20  H   -0.077874   0.232620
    21  H   -0.147869   0.274236
    22  H   -0.196560   0.334377
    23  H    0.246081  -0.010819
    24  H   -0.015494   0.241076
    25  H   -0.511018   0.694898
    26  H   -0.234868   0.358072
    27  H   -0.042042   0.182028
 Sum of Mulliken charges =  -1.00000   1.00000

 Dipole moment (field-independent basis, Debye):
    X=              0.0533    Y=             -1.3232    Z=              0.7230  Tot=              1.5088
 Quadrupole moment (field-independent basis, Debye-Ang):
   XX=           -123.3140   YY=           -103.8384   ZZ=            -95.0465
   XY=             -0.8421   XZ=             -1.0769   YZ=              3.2445

 Summary of Natural Population Analysis:

                                       Natural Population
                Natural  -----------------------------------------------
    Atom  No    Charge         Core      Valence    Rydberg      Total
 -----------------------------------------------------------------------
      C    1   -0.30426      0.99965     2.29956    0.00504     3.30426
      C    2   -0.05661      0.99947     2.04902    0.00812     3.05661
      C    3   -0.04490      0.99946     2.03174    0.01370     3.04490
      C    4   -0.19622      0.99955     2.18492    0.01175     3.19622
      C    5    0.05191      0.99959     1.93612    0.01238     2.94809
      C    6   -0.29572      0.99961     2.28862    0.00749     3.29572
      C    7   -0.28544      0.99962     2.27811    0.00772     3.28544
      N    8   -0.42725      0.99975     2.91674    0.01076     3.92725
      C    9   -0.09592      0.99953     2.08483    0.01155     3.09592
      C   10   -0.17840      0.99957     2.17125    0.00757     3.17840
      H   11    0.10695      0.00000     0.39178    0.00127     0.39305
      H   12    0.09713      0.00000     0.40172    0.00116     0.40287
      H   13    0.10267      0.00000     0.39510    0.00223     0.39733
      H   14    0.09269      0.00000     0.40615    0.00116     0.40731
      H   15    0.10168      0.00000     0.39662    0.00170     0.39832
      H   16    0.10502      0.00000     0.39345    0.00153     0.39498
      H   17    0.10087      0.00000     0.39783    0.00130     0.39913
      H   18    0.09611      0.00000     0.40255    0.00134     0.40389
      H   19    0.10481      0.00000     0.39361    0.00159     0.39519
      H   20    0.10213      0.00000     0.39671    0.00116     0.39787
      H   21    0.09661      0.00000     0.40236    0.00103     0.40339
      H   22    0.10048      0.00000     0.39826    0.00126     0.39952
      H   23    0.17749      0.00000     0.32031    0.00220     0.32251
      H   24    0.17134      0.00000     0.32705    0.00161     0.32866
      H   25    0.09509      0.00000     0.40330    0.00161     0.40491
      H   26    0.09181      0.00000     0.40709    0.00110     0.40819
      H   27    0.08994      0.00000     0.40866    0.00140     0.41006
 =======================================================================
   * Total *   -0.00000      9.99581    28.88347    0.12072    39.00000

 Normal termination of Gaussian 16 at Tue Dec  8 10:47:10 2020.
