 Gaussian 16, Revision A.03,

 -----------------------------------------------------------
 # opt freq B3LYP/6-31G(d) empiricaldispersion=gd3bj scf=xqc
 -----------------------------------------------------------

 -------------------------------
 CID_149841430_JID_8654_neutraal
 -------------------------------
 Symbolic Z-matrix:
 Charge =  0 Multiplicity = 1

 SCF Done:  E(RB3LYP) =  -842.889695716     A.U. after   15 cycles
 SCF Done:  E(RB3LYP) =  -842.896472049     A.U. after   12 cycles
 SCF Done:  E(RB3LYP) =  -842.896943459     A.U. after   13 cycles
 SCF Done:  E(RB3LYP) =  -842.897195416     A.U. after   12 cycles
 SCF Done:  E(RB3LYP) =  -842.897290842     A.U. after   12 cycles
 SCF Done:  E(RB3LYP) =  -842.897451879     A.U. after   12 cycles
 SCF Done:  E(RB3LYP) =  -842.897829507     A.U. after   14 cycles
 SCF Done:  E(RB3LYP) =  -842.897470636     A.U. after   15 cycles
 SCF Done:  E(RB3LYP) =  -842.898104787     A.U. after   15 cycles
 SCF Done:  E(RB3LYP) =  -842.897776932     A.U. after   14 cycles
 SCF Done:  E(RB3LYP) =  -842.898327894     A.U. after   10 cycles
 SCF Done:  E(RB3LYP) =  -842.898326653     A.U. after   10 cycles
 SCF Done:  E(RB3LYP) =  -842.898328195     A.U. after   10 cycles
 SCF Done:  E(RB3LYP) =  -842.898328336     A.U. after    8 cycles
 SCF Done:  E(RB3LYP) =  -842.898328194     A.U. after    8 cycles
 SCF Done:  E(RB3LYP) =  -842.898328220     A.U. after    6 cycles
 Optimization completed.
    -- Stationary point found.
 Normal termination of Gaussian 16 at Fri Dec 11 20:28:29 2020.

 --------------------------------------------------------------------
 #N Geom=AllCheck Guess=TCheck SCRF=Check GenChk RB3LYP/6-31G(d) Freq
 --------------------------------------------------------------------

 Structure from the checkpoint file:  "JID_8654.chk"
 -------------------------------
 CID_149841430_JID_8654_neutraal
 -------------------------------
 Charge =  0 Multiplicity = 1

 SCF Done:  E(RB3LYP) =  -842.898328220     A.U. after    1 cycles

  Exact polarizability: 203.487  -9.138 178.354 -25.721   6.696  88.382
 Approx polarizability: 292.520 -22.842 321.503 -51.713  14.611 137.270

                      1                      2                      3
                      A                      A                      A
 Frequencies --     11.6800                36.0197                51.0147
 Red. masses --      6.1014                 8.2168                 6.5412
 Frc consts  --      0.0005                 0.0063                 0.0100
 IR Inten    --      0.0874                 1.1914                 0.9534

                      4                      5                      6
                      A                      A                      A
 Frequencies --     88.3928               114.7054               140.5332
 Red. masses --      3.7958                 4.6392                 4.6085
 Frc consts  --      0.0175                 0.0360                 0.0536
 IR Inten    --      0.6961                 0.9725                 0.1269

                      7                      8                      9
                      A                      A                      A
 Frequencies --    179.5494               182.5728               215.3403
 Red. masses --      4.5370                 4.7448                 4.0010
 Frc consts  --      0.0862                 0.0932                 0.1093
 IR Inten    --      0.6285                 0.9885                 0.5246

                     10                     11                     12
                      A                      A                      A
 Frequencies --    256.4722               263.9744               295.1003
 Red. masses --      1.7518                 1.9186                 3.1211
 Frc consts  --      0.0679                 0.0788                 0.1601
 IR Inten    --      0.8467                 0.4163                 2.5452

                     13                     14                     15
                      A                      A                      A
 Frequencies --    327.5246               373.6676               392.6079
 Red. masses --      2.8753                 1.6709                 4.0090
 Frc consts  --      0.1817                 0.1375                 0.3641
 IR Inten    --     29.2284                86.5190                 8.1341

                     16                     17                     18
                      A                      A                      A
 Frequencies --    429.2802               440.2888               442.1882
 Red. masses --      2.2331                 2.9235                 3.4041
 Frc consts  --      0.2425                 0.3339                 0.3922
 IR Inten    --     18.1845                 4.5238                 3.3568

                     19                     20                     21
                      A                      A                      A
 Frequencies --    462.2560               480.0278               517.1120
 Red. masses --      3.3643                 3.5148                 4.7625
 Frc consts  --      0.4236                 0.4772                 0.7503
 IR Inten    --     16.8982                 0.3144                 2.5266

                     22                     23                     24
                      A                      A                      A
 Frequencies --    527.2639               556.8106               584.8916
 Red. masses --      6.0840                 3.3971                 3.5662
 Frc consts  --      0.9965                 0.6205                 0.7188
 IR Inten    --      2.8960                15.0417                 2.8092

                     25                     26                     27
                      A                      A                      A
 Frequencies --    595.3861               633.2642               645.8825
 Red. masses --      3.6509                 3.9344                 2.0867
 Frc consts  --      0.7625                 0.9296                 0.5129
 IR Inten    --     88.0731                 7.4750                69.6690

                     28                     29                     30
                      A                      A                      A
 Frequencies --    675.1356               729.8689               751.7821
 Red. masses --      3.2626                 3.2948                 1.6666
 Frc consts  --      0.8762                 1.0341                 0.5549
 IR Inten    --     20.7377                46.2586                 5.8107

                     31                     32                     33
                      A                      A                      A
 Frequencies --    753.6453               793.2498               807.1770
 Red. masses --      3.1131                 2.2178                 4.5945
 Frc consts  --      1.0418                 0.8222                 1.7637
 IR Inten    --      8.3248                27.7612                 3.1511

                     34                     35                     36
                      A                      A                      A
 Frequencies --    815.0577               818.8430               865.4017
 Red. masses --      1.7461                 3.2936                 3.6196
 Frc consts  --      0.6834                 1.3012                 1.5971
 IR Inten    --     46.3828                 9.3652                20.4566

                     37                     38                     39
                      A                      A                      A
 Frequencies --    885.0025               910.7560               924.1403
 Red. masses --      1.6812                 3.2724                 1.4079
 Frc consts  --      0.7758                 1.5993                 0.7084
 IR Inten    --      3.9759                12.9302                 2.3890

                     40                     41                     42
                      A                      A                      A
 Frequencies --    935.5795               956.5934               960.3431
 Red. masses --      2.6793                 2.7440                 1.3451
 Frc consts  --      1.3818                 1.4794                 0.7309
 IR Inten    --     29.7155                69.5971                 1.0206

                     43                     44                     45
                      A                      A                      A
 Frequencies --    978.2663               992.3468               992.7856
 Red. masses --      1.2812                 1.5409                 1.5385
 Frc consts  --      0.7224                 0.8940                 0.8934
 IR Inten    --      6.5069                16.4592                18.6193

                     46                     47                     48
                      A                      A                      A
 Frequencies --   1053.0691              1079.7687              1100.4383
 Red. masses --      2.6354                 2.4397                 1.9801
 Frc consts  --      1.7219                 1.6759                 1.4128
 IR Inten    --     21.8572                83.5313                19.3037

                     49                     50                     51
                      A                      A                      A
 Frequencies --   1120.2369              1138.1742              1154.3630
 Red. masses --      2.3887                 1.5893                 2.1981
 Frc consts  --      1.7661                 1.2130                 1.7258
 IR Inten    --     48.7797                77.6648               291.6586

                     52                     53                     54
                      A                      A                      A
 Frequencies --   1180.7321              1191.0413              1210.3171
 Red. masses --      1.3388                 1.1531                 1.3720
 Frc consts  --      1.0997                 0.9638                 1.1841
 IR Inten    --      1.0413                 0.8477                38.7020

                     55                     56                     57
                      A                      A                      A
 Frequencies --   1226.1713              1253.4454              1268.9958
 Red. masses --      2.3072                 2.1991                 1.8214
 Frc consts  --      2.0438                 2.0356                 1.7282
 IR Inten    --    252.8413                 1.0058                49.0777

                     58                     59                     60
                      A                      A                      A
 Frequencies --   1294.7035              1308.6880              1359.1817
 Red. masses --      1.7728                 1.9221                 1.3734
 Frc consts  --      1.7509                 1.9395                 1.4949
 IR Inten    --     19.7328                35.6703                36.7071

                     61                     62                     63
                      A                      A                      A
 Frequencies --   1387.6353              1391.8392              1405.8060
 Red. masses --      2.4334                 2.9785                 1.9405
 Frc consts  --      2.7607                 3.3996                 2.2595
 IR Inten    --     86.5693                33.4948                73.3893

                     64                     65                     66
                      A                      A                      A
 Frequencies --   1421.9237              1441.7793              1443.9247
 Red. masses --      7.3180                 2.1419                 1.3532
 Frc consts  --      8.7176                 2.6233                 1.6623
 IR Inten    --      0.8894                69.9688                19.5656

                     67                     68                     69
                      A                      A                      A
 Frequencies --   1492.2583              1500.4099              1509.9939
 Red. masses --      2.0914                 1.1131                 2.4533
 Frc consts  --      2.7439                 1.4764                 3.2957
 IR Inten    --     12.3627                 6.2099                22.7091

                     70                     71                     72
                      A                      A                      A
 Frequencies --   1516.0765              1528.9719              1565.8072
 Red. masses --      1.0568                 1.0683                 3.5205
 Frc consts  --      1.4312                 1.4714                 5.0854
 IR Inten    --      4.7703                 2.2358                17.2782

                     73                     74                     75
                      A                      A                      A
 Frequencies --   1632.9678              1656.6335              1686.2833
 Red. masses --      7.0173                 5.1834                 6.2785
 Frc consts  --     11.0250                 8.3815                10.5188
 IR Inten    --     42.5648                18.2594                 3.5208

                     76                     77                     78
                      A                      A                      A
 Frequencies --   1859.6036              3068.6984              3101.0801
 Red. masses --      9.5400                 1.0402                 1.0642
 Frc consts  --     19.4374                 5.7713                 6.0296
 IR Inten    --    258.3288                12.5504                 2.0926

                     79                     80                     81
                      A                      A                      A
 Frequencies --   3138.2390              3173.2688              3180.1151
 Red. masses --      1.0995                 1.1002                 1.0860
 Frc consts  --      6.3802                 6.5274                 6.4708
 IR Inten    --     18.4447                 1.3305                 0.7898

                     82                     83                     84
                      A                      A                      A
 Frequencies --   3183.9331              3186.1450              3191.7756
 Red. masses --      1.1012                 1.0866                 1.0898
 Frc consts  --      6.5770                 6.4993                 6.5413
 IR Inten    --      6.5201                 2.0603                17.8676

                     85                     86                     87
                      A                      A                      A
 Frequencies --   3204.6893              3206.6006              3232.0682
 Red. masses --      1.0951                 1.0953                 1.0926
 Frc consts  --      6.6262                 6.6357                 6.7245
 IR Inten    --     34.5576                31.5759                 9.0999

                     88                     89                     90
                      A                      A                      A
 Frequencies --   3254.1675              3683.9847              3726.3029
 Red. masses --      1.0919                 1.0639                 1.0654
 Frc consts  --      6.8128                 8.5073                 8.7163
 IR Inten    --      0.0901                53.8389                25.7745

 - Thermochemistry -
 -------------------
 Temperature   298.150 Kelvin.  Pressure   1.00000 Atm.
 Atom     1 has atomic number  6 and mass  12.00000

 Molecular mass:   246.08921 amu.
 Principal axes and moments of inertia in atomic units:
                           1         2         3
     Eigenvalues --  2175.385087391.502898292.80753
           X            0.99992   0.00941  -0.00902
           Y           -0.00941   0.99996   0.00043
           Z            0.00902  -0.00034   0.99996
 This molecule is an asymmetric top.
 Rotational symmetry number  1.
 Warning -- assumption of classical behavior for rotation
           may cause significant error
 Rotational temperatures (Kelvin)      0.03982     0.01172     0.01044
 Rotational constants (GHZ):           0.82962     0.24416     0.21763
 Zero-point vibrational energy     674108.2 (Joules/Mol)
                                  161.11573 (Kcal/Mol)
 Warning -- explicit consideration of  25 degrees of freedom as
           vibrations may cause significant error
 Vibrational temperatures:     16.80    51.82    73.40   127.18   165.04
          (Kelvin)            202.20   258.33   262.68   309.83   369.01
                              379.80   424.58   471.23   537.62   564.88
                              617.64   633.48   636.21   665.08   690.65
                              744.01   758.62   801.13   841.53   856.63
                              911.13   929.28   971.37  1050.12  1081.65
                             1084.33  1141.31  1161.35  1172.69  1178.13
                             1245.12  1273.32  1310.37  1329.63  1346.09
                             1376.32  1381.72  1407.51  1427.77  1428.40
                             1515.13  1553.55  1583.29  1611.77  1637.58
                             1660.87  1698.81  1713.64  1741.38  1764.19
                             1803.43  1825.80  1862.79  1882.91  1955.56
                             1996.50  2002.55  2022.64  2045.83  2074.40
                             2077.49  2147.03  2158.76  2172.54  2181.30
                             2199.85  2252.85  2349.48  2383.53  2426.19
                             2675.55  4415.17  4461.76  4515.23  4565.63
                             4575.48  4580.97  4584.15  4592.25  4610.83
                             4613.58  4650.23  4682.02  5300.43  5361.32

 Zero-point correction=                           0.256754 (Hartree/Particle)
 Thermal correction to Energy=                    0.272517
 Thermal correction to Enthalpy=                  0.273461
 Thermal correction to Gibbs Free Energy=         0.211975
 Sum of electronic and zero-point Energies=           -842.641574
 Sum of electronic and thermal Energies=              -842.625811
 Sum of electronic and thermal Enthalpies=            -842.624867
 Sum of electronic and thermal Free Energies=         -842.686353

                     E (Thermal)             CV                S
                      KCal/Mol        Cal/Mol-Kelvin    Cal/Mol-Kelvin
 Total                  171.007             61.948            129.408
 Electronic               0.000              0.000              0.000
 Translational            0.889              2.981             42.402
 Rotational               0.889              2.981             33.255
 Vibrational            169.229             55.986             53.750
 Vibration     1          0.593              1.987              7.703
 Vibration     2          0.594              1.982              5.467
 Vibration     3          0.595              1.977              4.778
 Vibration     4          0.601              1.957              3.695
 Vibration     5          0.608              1.937              3.188
 Vibration     6          0.615              1.913              2.797
 Vibration     7          0.629              1.867              2.333
 Vibration     8          0.630              1.863              2.302
 Vibration     9          0.645              1.818              1.998
 Vibration    10          0.666              1.752              1.686
 Vibration    11          0.671              1.739              1.635
 Vibration    12          0.689              1.683              1.445
 Vibration    13          0.711              1.620              1.272
 Vibration    14          0.745              1.526              1.065
 Vibration    15          0.760              1.486              0.990
 Vibration    16          0.791              1.406              0.861
 Vibration    17          0.800              1.382              0.826
 Vibration    18          0.802              1.378              0.820
 Vibration    19          0.820              1.334              0.760
 Vibration    20          0.836              1.294              0.710
 Vibration    21          0.872              1.212              0.617
 Vibration    22          0.882              1.190              0.593
 Vibration    23          0.912              1.125              0.530
 Vibration    24          0.942              1.064              0.476
 Vibration    25          0.953              1.042              0.458

 Optimization completed.
    -- Stationary point found.
 Normal termination of Gaussian 16 at Fri Dec 11 20:40:11 2020.

 ----------------------------------------------------------------------
 # B3LYP/6-311++G(d,p) empiricaldispersion=gd3bj scf=xqc pop=npa geom=c
 heck
 ----------------------------------------------------------------------

 ---------------------------------------
 CID_149841430_JID_8654_Energie_neutraal
 ---------------------------------------
 Structure from the checkpoint file:  "JID_8654.chk"
 Charge =  0 Multiplicity = 1

 SCF Done:  E(RB3LYP) =  -843.144897742     A.U. after   15 cycles
 Normal termination of Gaussian 16 at Fri Dec 11 20:45:02 2020.

 ----------------------------------------------------------------------
 # B3LYP/6-311++G(d,p) empiricaldispersion=gd3bj scf=xqc pop=npa geom=c
 heck
 ----------------------------------------------------------------------

 -------------------------------------
 CID_149841430_JID_8654_Energie_kation
 -------------------------------------
 Structure from the checkpoint file:  "JID_8654.chk"
 Charge =  1 Multiplicity = 2

 SCF Done:  E(UB3LYP) =  -842.865741217     A.U. after   22 cycles
 Normal termination of Gaussian 16 at Fri Dec 11 20:54:47 2020.
 Gaussian 16:  ES64L-G16RevA.03 25-Dec-2016

 ----------------------------------------------------------------------
 # B3LYP/6-311++G(d,p) empiricaldispersion=gd3bj scf=xqc pop=npa geom=c
 heck
 ----------------------------------------------------------------------

 ------------------------------------
 CID_149841430_JID_8654_Energie_anion
 ------------------------------------
 Structure from the checkpoint file:  "JID_8654.chk"
 Charge = -1 Multiplicity = 2

                         Standard orientation:
 ---------------------------------------------------------------------
 Center     Atomic      Atomic             Coordinates (Angstroms)
 Number     Number       Type             X           Y           Z
 ---------------------------------------------------------------------
      1          6           0       -2.320885   -1.955119    0.985822
      2          6           0       -1.745116   -0.581065    0.661603
      3          6           0       -1.983559   -0.133331   -0.793929
      4          6           0       -3.395645    0.337377   -1.058367
      5          8           0       -3.722450    1.478793   -1.282497
      6          8           0       -4.292719   -0.684945   -1.041126
      7          8           0       -2.315610    0.415026    1.483789
      8          8           0       -0.341966   -0.733429    0.913315
      9          6           0        0.573320    0.252598    0.607994
     10          6           0        0.342979    1.604136    0.766503
     11          6           0        1.366186    2.531071    0.455518
     12          6           0        2.597391    2.109917    0.013696
     13          6           0        2.863344    0.724953   -0.149648
     14          6           0        4.119760    0.248131   -0.607474
     15          6           0        4.350183   -1.098486   -0.771691
     16          6           0        3.328986   -2.035300   -0.485472
     17          6           0        2.098638   -1.609624   -0.037654
     18          6           0        1.835562   -0.227492    0.143054
     19          1           0       -3.403795   -1.946159    0.858650
     20          1           0       -2.072219   -2.214681    2.020824
     21          1           0       -1.888987   -2.717835    0.332402
     22          1           0       -1.325379    0.704064   -1.023690
     23          1           0       -1.739767   -0.970530   -1.454238
     24          1           0       -5.162775   -0.275024   -1.206067
     25          1           0       -2.185822    0.135234    2.405217
     26          1           0       -0.618650    1.948073    1.123485
     27          1           0        1.163222    3.590978    0.578820
     28          1           0        3.380626    2.826714   -0.217237
     29          1           0        4.899882    0.972342   -0.828132
     30          1           0        5.317339   -1.446774   -1.123173
     31          1           0        3.519472   -3.096209   -0.621064
     32          1           0        1.311957   -2.320354    0.186629
 ---------------------------------------------------------------------

 SCF Done:  E(UB3LYP) =  -843.142383218     A.U. after   32 cycles

 The electronic state is 2-A.
 Alpha  occ. eigenvalues --  -19.07490 -19.03649 -19.03457 -19.01897 -10.21163
 Alpha  occ. eigenvalues --  -10.19426 -10.10071 -10.08758 -10.06601 -10.06098
 Alpha  occ. eigenvalues --  -10.05863 -10.05113 -10.05089 -10.04929 -10.04397
 Alpha  occ. eigenvalues --  -10.04215 -10.04056 -10.04033  -1.01498  -0.97902
 Alpha  occ. eigenvalues --   -0.92553  -0.91694  -0.74965  -0.70348  -0.69331
 Alpha  occ. eigenvalues --   -0.65136  -0.62843  -0.61987  -0.59240  -0.54435
 Alpha  occ. eigenvalues --   -0.51179  -0.49813  -0.49220  -0.47925  -0.43504
 Alpha  occ. eigenvalues --   -0.41092  -0.40010  -0.39244  -0.38156  -0.37093
 Alpha  occ. eigenvalues --   -0.37002  -0.36028  -0.33969  -0.33203  -0.32243
 Alpha  occ. eigenvalues --   -0.30938  -0.30424  -0.30112  -0.29111  -0.28826
 Alpha  occ. eigenvalues --   -0.28422  -0.27983  -0.27636  -0.26036  -0.24483
 Alpha  occ. eigenvalues --   -0.23108  -0.22887  -0.22490  -0.20797  -0.20521
 Alpha  occ. eigenvalues --   -0.18970  -0.18547  -0.15281  -0.12850  -0.09447
 Alpha  occ. eigenvalues --    0.04272
 Alpha virt. eigenvalues --    0.05773   0.07199   0.07930   0.08480   0.08721
 Alpha virt. eigenvalues --    0.09467   0.09905   0.10112   0.10647   0.11302
 Alpha virt. eigenvalues --    0.11746   0.12268   0.12909   0.13201   0.14229

  Beta  occ. eigenvalues --  -19.07450 -19.03653 -19.03426 -19.01876 -10.21150
  Beta  occ. eigenvalues --  -10.19413 -10.09859 -10.08753 -10.06578 -10.06144
  Beta  occ. eigenvalues --  -10.05912 -10.05081 -10.05044 -10.04895 -10.04202
  Beta  occ. eigenvalues --  -10.04177 -10.03884 -10.03834  -1.01441  -0.97845
  Beta  occ. eigenvalues --   -0.92499  -0.91615  -0.74784  -0.70194  -0.69165
  Beta  occ. eigenvalues --   -0.64906  -0.62689  -0.61849  -0.58951  -0.54338
  Beta  occ. eigenvalues --   -0.50968  -0.49596  -0.49117  -0.47794  -0.43358
  Beta  occ. eigenvalues --   -0.41020  -0.39861  -0.39198  -0.38012  -0.37034
  Beta  occ. eigenvalues --   -0.36916  -0.35918  -0.33917  -0.33153  -0.32126
  Beta  occ. eigenvalues --   -0.30818  -0.30342  -0.30038  -0.29053  -0.28771
  Beta  occ. eigenvalues --   -0.28295  -0.27873  -0.27360  -0.25947  -0.24172
  Beta  occ. eigenvalues --   -0.23036  -0.22770  -0.22402  -0.20701  -0.19956
  Beta  occ. eigenvalues --   -0.18907  -0.18384  -0.14500  -0.12440  -0.08382
  Beta virt. eigenvalues --    0.06684   0.07768   0.08023   0.08350   0.08524
  Beta virt. eigenvalues --    0.08850   0.09638   0.09866   0.10189   0.10698
  Beta virt. eigenvalues --    0.11277   0.11927   0.12273   0.13192   0.13487

 Mulliken charges and spin densities:
               1          2
     1  C    0.470347  -0.991868
     2  C   -0.627639   0.382457
     3  C    0.039934  -0.521256
     4  C    0.091263  -0.078713
     5  O   -0.255821   0.016303
     6  O   -0.156843   0.004858
     7  O   -0.080080  -0.015712
     8  O   -0.026277   0.016397
     9  C    0.073027   0.072618
    10  C   -0.288170   0.146445
    11  C   -0.415213   0.149096
    12  C   -0.418753   0.134111
    13  C    0.540584  -0.018418
    14  C   -0.172000   0.111050
    15  C   -0.324102   0.026382
    16  C   -0.434162  -0.023398
    17  C   -0.174003   0.004472
    18  C    0.306703   0.094016
    19  H    0.076589   0.116974
    20  H   -0.172741   0.329768
    21  H    0.086816   0.066163
    22  H    0.272591  -0.051287
    23  H    0.067340   0.139533
    24  H   -0.233895   0.526497
    25  H   -0.007080   0.280664
    26  H    0.172732   0.046888
    27  H    0.124717   0.012166
    28  H    0.081281  -0.003726
    29  H    0.093664  -0.008537
    30  H    0.109265  -0.002423
    31  H    0.109177   0.016432
    32  H    0.070749   0.022047
 Sum of Mulliken charges =  -1.00000   1.00000

 Dipole moment (field-independent basis, Debye):
    X=              2.0453    Y=             -0.8147    Z=             -0.4150  Tot=              2.2404
 Quadrupole moment (field-independent basis, Debye-Ang):
   XX=           -176.6612   YY=           -128.8069   ZZ=           -127.5751
   XY=              4.4007   XZ=             -4.6779   YZ=              1.8519

 Summary of Natural Population Analysis:

                                       Natural Population
                Natural  -----------------------------------------------
    Atom  No    Charge         Core      Valence    Rydberg      Total
 -----------------------------------------------------------------------
      C    1   -0.29961      0.99959     2.29303    0.00699     3.29961
      C    2    0.29545      0.99957     1.68531    0.01967     2.70455
      C    3   -0.26042      0.99951     2.25106    0.00986     3.26042
      C    4    0.41338      0.99972     1.56107    0.02583     2.58662
      O    5   -0.29966      0.99987     3.29379    0.00600     4.29966
      O    6   -0.34956      0.99988     3.34291    0.00678     4.34956
      O    7   -0.37328      0.99988     3.36684    0.00656     4.37328
      O    8   -0.30066      0.99984     3.28922    0.01159     4.30066
      C    9    0.19363      0.99933     1.79360    0.01345     2.80637
      C   10   -0.14008      0.99951     2.13100    0.00957     3.14008
      C   11   -0.09266      0.99958     2.08450    0.00859     3.09266
      C   12   -0.07685      0.99953     2.06906    0.00826     3.07685
      C   13   -0.03187      0.99950     2.02433    0.00804     3.03187
      C   14   -0.06334      0.99954     2.05515    0.00866     3.06334
      C   15   -0.10182      0.99957     2.09297    0.00928     3.10182
      C   16   -0.10465      0.99957     2.09601    0.00906     3.10465
      C   17   -0.05916      0.99954     2.05091    0.00871     3.05916
      C   18   -0.05185      0.99946     2.04338    0.00901     3.05185
      H   19    0.11102      0.00000     0.38774    0.00124     0.38898
      H   20    0.10238      0.00000     0.39634    0.00128     0.39762
      H   21    0.10413      0.00000     0.39499    0.00088     0.39587
      H   22    0.12643      0.00000     0.37254    0.00103     0.37357
      H   23    0.11533      0.00000     0.38372    0.00095     0.38467
      H   24    0.24169      0.00000     0.25071    0.00760     0.25831
      H   25    0.23382      0.00000     0.26273    0.00345     0.26618
      H   26    0.11247      0.00000     0.38638    0.00115     0.38753
      H   27    0.09337      0.00000     0.40567    0.00096     0.40663
      H   28    0.08992      0.00000     0.40867    0.00141     0.41008
      H   29    0.08924      0.00000     0.40934    0.00143     0.41076
      H   30    0.09082      0.00000     0.40818    0.00100     0.40918
      H   31    0.09152      0.00000     0.40732    0.00117     0.40848
      H   32    0.10086      0.00000     0.39770    0.00144     0.39914
 =======================================================================
   * Total *    0.00000     17.99298    46.79613    0.21089    65.00000

 Normal termination of Gaussian 16 at Fri Dec 11 21:08:38 2020.
