 Gaussian 16, Revision A.03,

 -----------------------------------------------------------
 # opt freq B3LYP/6-31G(d) empiricaldispersion=gd3bj scf=xqc
 -----------------------------------------------------------

 -------------------------------
 CID_149269797_JID_5283_neutraal
 -------------------------------
 Symbolic Z-matrix:
 Charge =  0 Multiplicity = 1

 SCF Done:  E(RB3LYP) =  -587.225031537     A.U. after   13 cycles
 SCF Done:  E(RB3LYP) =  -587.241486133     A.U. after   12 cycles
 SCF Done:  E(RB3LYP) =  -587.244983786     A.U. after   11 cycles
 SCF Done:  E(RB3LYP) =  -587.245357378     A.U. after   11 cycles
 SCF Done:  E(RB3LYP) =  -587.245304740     A.U. after   10 cycles
 SCF Done:  E(RB3LYP) =  -587.245460610     A.U. after   10 cycles
 SCF Done:  E(RB3LYP) =  -587.245483387     A.U. after    9 cycles
 SCF Done:  E(RB3LYP) =  -587.245487436     A.U. after    9 cycles
 SCF Done:  E(RB3LYP) =  -587.245488306     A.U. after    7 cycles
 SCF Done:  E(RB3LYP) =  -587.245488504     A.U. after    7 cycles
 SCF Done:  E(RB3LYP) =  -587.245488594     A.U. after    6 cycles
 Optimization completed.
    -- Stationary point found.
 Normal termination of Gaussian 16 at Thu Dec 10 15:25:10 2020.

 --------------------------------------------------------------------
 #N Geom=AllCheck Guess=TCheck SCRF=Check GenChk RB3LYP/6-31G(d) Freq
 --------------------------------------------------------------------

 Structure from the checkpoint file:  "JID_5283.chk"
 -------------------------------
 CID_149269797_JID_5283_neutraal
 -------------------------------
 Charge =  0 Multiplicity = 1

 SCF Done:  E(RB3LYP) =  -587.245488594     A.U. after    1 cycles

  Exact polarizability: 168.659   3.472 147.927   2.174   0.403 133.611
 Approx polarizability: 210.945   8.947 229.394   2.699   3.123 209.531

                      1                      2                      3
                      A                      A                      A
 Frequencies --     45.8064                79.6190                81.5402
 Red. masses --      2.5306                 2.8865                 3.0946
 Frc consts  --      0.0031                 0.0108                 0.0121
 IR Inten    --      0.0229                 0.0023                 0.0554

                      4                      5                      6
                      A                      A                      A
 Frequencies --    112.6996               161.3208               213.2086
 Red. masses --      3.2251                 3.2095                 1.2821
 Frc consts  --      0.0241                 0.0492                 0.0343
 IR Inten    --      0.0652                 0.0774                 0.0044

                      7                      8                      9
                      A                      A                      A
 Frequencies --    215.8932               234.0147               252.6307
 Red. masses --      2.0264                 1.2614                 1.8213
 Frc consts  --      0.0556                 0.0407                 0.0685
 IR Inten    --      0.0919                 0.0329                 0.0173

                     10                     11                     12
                      A                      A                      A
 Frequencies --    258.7916               273.5365               280.4721
 Red. masses --      1.1058                 1.2022                 1.9022
 Frc consts  --      0.0436                 0.0530                 0.0882
 IR Inten    --      0.0868                 0.0020                 0.0467

                     13                     14                     15
                      A                      A                      A
 Frequencies --    320.8032               330.3486               360.5797
 Red. masses --      2.8444                 2.1932                 2.4553
 Frc consts  --      0.1725                 0.1410                 0.1881
 IR Inten    --      0.0847                 0.1928                 0.1271

                     16                     17                     18
                      A                      A                      A
 Frequencies --    371.0844               393.5919               396.6641
 Red. masses --      2.1592                 2.5612                 1.9907
 Frc consts  --      0.1752                 0.2338                 0.1845
 IR Inten    --      0.1465                 0.3061                 0.1406

                     19                     20                     21
                      A                      A                      A
 Frequencies --    426.5483               444.3253               465.5138
 Red. masses --      2.2316                 2.3614                 3.3333
 Frc consts  --      0.2392                 0.2747                 0.4256
 IR Inten    --      0.2084                 0.6910                 0.1289

                     22                     23                     24
                      A                      A                      A
 Frequencies --    502.6116               525.4460               582.9430
 Red. masses --      3.6109                 3.4744                 3.2208
 Frc consts  --      0.5374                 0.5652                 0.6449
 IR Inten    --      0.8760                 0.8920                 2.5696

                     25                     26                     27
                      A                      A                      A
 Frequencies --    606.1989               637.4569               687.7040
 Red. masses --      3.1110                 2.4297                 2.3716
 Frc consts  --      0.6736                 0.5817                 0.6608
 IR Inten    --      1.6014                 2.3847                 4.3006

                     28                     29                     30
                      A                      A                      A
 Frequencies --    728.7836               758.6083               779.7351
 Red. masses --      1.9146                 2.3755                 2.5613
 Frc consts  --      0.5991                 0.8054                 0.9175
 IR Inten    --     23.8235                 0.3352                 6.9642

                     31                     32                     33
                      A                      A                      A
 Frequencies --    807.9790               834.1692               854.0759
 Red. masses --      2.5818                 2.3096                 2.4049
 Frc consts  --      0.9931                 0.9469                 1.0336
 IR Inten    --      0.8845                 2.4729                11.3951

                     34                     35                     36
                      A                      A                      A
 Frequencies --    883.6271               901.1578               926.7440
 Red. masses --      2.2007                 2.2079                 2.2134
 Frc consts  --      1.0124                 1.0564                 1.1200
 IR Inten    --      1.1716                 0.8029                 1.9133

                     37                     38                     39
                      A                      A                      A
 Frequencies --    933.1503               942.0554               960.4813
 Red. masses --      2.2394                 1.2347                 1.3677
 Frc consts  --      1.1489                 0.6456                 0.7434
 IR Inten    --      1.0763                 0.7087                 0.5723

                     40                     41                     42
                      A                      A                      A
 Frequencies --    968.2684               976.1976               984.6260
 Red. masses --      2.1112                 1.5446                 1.6357
 Frc consts  --      1.1662                 0.8672                 0.9343
 IR Inten    --      5.9093                 0.4221                 1.2387

                     43                     44                     45
                      A                      A                      A
 Frequencies --   1011.8983              1017.4583              1030.4457
 Red. masses --      1.4882                 2.0573                 3.0514
 Frc consts  --      0.8978                 1.2548                 1.9090
 IR Inten    --      2.1231                 2.3285                 0.6009

                     46                     47                     48
                      A                      A                      A
 Frequencies --   1041.7359              1071.2357              1087.2378
 Red. masses --      1.9105                 1.7417                 1.7814
 Frc consts  --      1.2216                 1.1776                 1.2407
 IR Inten    --      1.8444                 1.9956                 0.9407

                     49                     50                     51
                      A                      A                      A
 Frequencies --   1107.0673              1117.0396              1140.2056
 Red. masses --      2.8033                 1.5582                 1.4933
 Frc consts  --      2.0243                 1.1455                 1.1438
 IR Inten    --      2.1228                 2.8083                 0.0871

                     52                     53                     54
                      A                      A                      A
 Frequencies --   1158.5035              1162.7907              1186.7876
 Red. masses --      2.0958                 1.6654                 1.9420
 Frc consts  --      1.6573                 1.3267                 1.6116
 IR Inten    --      0.7725                 0.4314                 1.8176

                     55                     56                     57
                      A                      A                      A
 Frequencies --   1200.3892              1208.1026              1218.9408
 Red. masses --      1.8621                 2.1212                 1.1777
 Frc consts  --      1.5808                 1.8240                 1.0310
 IR Inten    --      6.8184                 0.8614                 0.2169

                     58                     59                     60
                      A                      A                      A
 Frequencies --   1248.9881              1268.9440              1282.8437
 Red. masses --      1.2635                 1.2662                 1.4152
 Frc consts  --      1.1613                 1.2012                 1.3722
 IR Inten    --      1.1590                 2.1601                 0.1351

                     61                     62                     63
                      A                      A                      A
 Frequencies --   1286.9066              1294.8139              1320.8409
 Red. masses --      1.3794                 1.3152                 1.2590
 Frc consts  --      1.3460                 1.2992                 1.2941
 IR Inten    --      2.0917                 2.2999                 3.0716

                     64                     65                     66
                      A                      A                      A
 Frequencies --   1322.7137              1335.2327              1351.5517
 Red. masses --      1.2558                 1.2977                 1.3929
 Frc consts  --      1.2945                 1.3632                 1.4992
 IR Inten    --      0.4522                 2.5636                 3.9004

                     67                     68                     69
                      A                      A                      A
 Frequencies --   1364.7037              1374.0427              1378.4648
 Red. masses --      1.3196                 1.3345                 1.3382
 Frc consts  --      1.4480                 1.4845                 1.4981
 IR Inten    --      1.5883                 3.5596                 1.5366

                     70                     71                     72
                      A                      A                      A
 Frequencies --   1382.8719              1393.3046              1396.6764
 Red. masses --      1.3064                 1.3641                 1.3820
 Frc consts  --      1.4719                 1.5603                 1.5883
 IR Inten    --      2.7352                 5.9117                 0.7009

                     73                     74                     75
                      A                      A                      A
 Frequencies --   1413.4550              1417.6686              1429.2401
 Red. masses --      1.3743                 1.6245                 1.2559
 Frc consts  --      1.6177                 1.9237                 1.5116
 IR Inten    --      3.0119                 0.6412                 5.2972

                     76                     77                     78
                      A                      A                      A
 Frequencies --   1434.7308              1438.4925              1449.4552
 Red. masses --      1.2584                 1.2403                 1.2247
 Frc consts  --      1.5262                 1.5122                 1.5160
 IR Inten    --      4.5471                 1.9945                 8.9066

                     79                     80                     81
                      A                      A                      A
 Frequencies --   1499.2385              1510.7096              1515.8983
 Red. masses --      1.0806                 1.0784                 1.0590
 Frc consts  --      1.4310                 1.4501                 1.4338
 IR Inten    --      1.8217                 0.8037                 3.2820

                     82                     83                     84
                      A                      A                      A
 Frequencies --   1520.8068              1525.7568              1528.2634
 Red. masses --      1.0572                 1.0486                 1.0431
 Frc consts  --      1.4407                 1.4382                 1.4354
 IR Inten    --      4.5632                 0.6082                 3.7057

                     85                     86                     87
                      A                      A                      A
 Frequencies --   1530.6520              1532.0739              1534.1815
 Red. masses --      1.0479                 1.0515                 1.0537
 Frc consts  --      1.4465                 1.4542                 1.4612
 IR Inten    --      6.4601                 4.4036                 8.1052

                     88                     89                     90
                      A                      A                      A
 Frequencies --   1536.9776              1551.2418              1680.9288
 Red. masses --      1.0589                 1.0520                 4.2373
 Frc consts  --      1.4738                 1.4915                 7.0540
 IR Inten    --      4.3482                 2.7277                 2.6923

                     91                     92                     93
                      A                      A                      A
 Frequencies --   1728.1661              2997.8208              3007.3755
 Red. masses --      1.1235                 1.0822                 1.0830
 Frc consts  --      1.9769                 5.7300                 5.7713
 IR Inten    --      3.2187                27.5845                12.8214

                     94                     95                     96
                      A                      A                      A
 Frequencies --   3025.9287              3032.8540              3035.0822
 Red. masses --      1.0667                 1.0663                 1.0696
 Frc consts  --      5.7543                 5.7788                 5.8053
 IR Inten    --     14.1782                20.7086                11.8274

                     97                     98                     99
                      A                      A                      A
 Frequencies --   3036.7335              3037.9914              3039.8971
 Red. masses --      1.0400                 1.0410                 1.0460
 Frc consts  --      5.6504                 5.6610                 5.6953
 IR Inten    --     18.1084                38.9656                48.9465

                    100                    101                    102
                      A                      A                      A
 Frequencies --   3041.3371              3056.4809              3063.5700
 Red. masses --      1.0428                 1.0827                 1.0648
 Frc consts  --      5.6833                 5.9595                 5.8883
 IR Inten    --     31.8959                66.4976                40.6383

                    103                    104                    105
                      A                      A                      A
 Frequencies --   3067.2129              3070.8361              3085.3970
 Red. masses --      1.0869                 1.0870                 1.1002
 Frc consts  --      6.0247                 6.0394                 6.1709
 IR Inten    --     22.1874                53.6074                42.3624

                    106                    107                    108
                      A                      A                      A
 Frequencies --   3096.7467              3099.0668              3104.5773
 Red. masses --      1.1003                 1.1011                 1.1019
 Frc consts  --      6.2167                 6.2308                 6.2575
 IR Inten    --      0.5592                50.2214                41.7510

                    109                    110                    111
                      A                      A                      A
 Frequencies --   3105.6402              3107.4269              3107.6853
 Red. masses --      1.1008                 1.1006                 1.1013
 Frc consts  --      6.2556                 6.2617                 6.2665
 IR Inten    --     21.0839                27.9564                71.9277

                    112                    113                    114
                      A                      A                      A
 Frequencies --   3109.9451              3126.1329              3129.3741
 Red. masses --      1.1019                 1.0987                 1.0972
 Frc consts  --      6.2791                 6.3263                 6.3308
 IR Inten    --     48.5055                41.2178                33.8460

                    115                    116                    117
                      A                      A                      A
 Frequencies --   3165.5555              3190.9534              3498.5689
 Red. masses --      1.0845                 1.1014                 1.0709
 Frc consts  --      6.4027                 6.6073                 7.7227
 IR Inten    --     11.3610                38.1701                11.7876

 - Thermochemistry -
 -------------------
 Temperature   298.150 Kelvin.  Pressure   1.00000 Atm.
 Atom     1 has atomic number  6 and mass  12.00000

 Molecular mass:   206.20345 amu.
 Principal axes and moments of inertia in atomic units:
                           1         2         3
     Eigenvalues --  1725.295024208.174634600.94352
           X            0.99998  -0.00266   0.00511
           Y            0.00266   1.00000   0.00060
           Z           -0.00511  -0.00059   0.99999
 This molecule is an asymmetric top.
 Rotational symmetry number  1.
 Warning -- assumption of classical behavior for rotation
           may cause significant error
 Rotational temperatures (Kelvin)      0.05020     0.02058     0.01883
 Rotational constants (GHZ):           1.04605     0.42887     0.39225
 Zero-point vibrational energy    1007745.4 (Joules/Mol)
                                  240.85694 (Kcal/Mol)
 Warning -- explicit consideration of  25 degrees of freedom as
           vibrations may cause significant error
 Vibrational temperatures:     65.91   114.55   117.32   162.15   232.10
          (Kelvin)            306.76   310.62   336.69   363.48   372.34
                              393.56   403.54   461.56   475.30   518.79
                              533.91   566.29   570.71   613.71   639.28
                              669.77   723.15   756.00   838.72   872.18
                              917.16   989.45  1048.56  1091.47  1121.86
                             1162.50  1200.18  1228.82  1271.34  1296.57
                             1333.38  1342.60  1355.41  1381.92  1393.12
                             1404.53  1416.66  1455.90  1463.90  1482.58
                             1498.83  1541.27  1564.29  1592.82  1607.17
                             1640.50  1666.83  1673.00  1707.52  1727.09
                             1738.19  1753.78  1797.02  1825.73  1845.73
                             1851.57  1862.95  1900.40  1903.09  1921.10
                             1944.58  1963.50  1976.94  1983.30  1989.64
                             2004.65  2009.51  2033.65  2039.71  2056.36
                             2064.26  2069.67  2085.44  2157.07  2173.57
                             2181.04  2188.10  2195.22  2198.83  2202.27
                             2204.31  2207.35  2211.37  2231.89  2418.48
                             2486.45  4313.20  4326.94  4353.64  4363.60
                             4366.81  4369.18  4370.99  4373.73  4375.81
                             4397.59  4407.79  4413.04  4418.25  4439.20
                             4455.53  4458.87  4466.79  4468.32  4470.89
                             4471.27  4474.52  4497.81  4502.47  4554.53
                             4591.07  5033.66

 Zero-point correction=                           0.383830 (Hartree/Particle)
 Thermal correction to Energy=                    0.399247
 Thermal correction to Enthalpy=                  0.400191
 Thermal correction to Gibbs Free Energy=         0.342944
 Sum of electronic and zero-point Energies=           -586.861659
 Sum of electronic and thermal Energies=              -586.846242
 Sum of electronic and thermal Enthalpies=            -586.845297
 Sum of electronic and thermal Free Energies=         -586.902544

                     E (Thermal)             CV                S
                      KCal/Mol        Cal/Mol-Kelvin    Cal/Mol-Kelvin
 Total                  250.531             63.270            120.486
 Electronic               0.000              0.000              0.000
 Translational            0.889              2.981             41.875
 Rotational               0.889              2.981             31.880
 Vibrational            248.754             57.308             46.731
 Vibration     1          0.595              1.979              4.991
 Vibration     2          0.600              1.963              3.900
 Vibration     3          0.600              1.962              3.853
 Vibration     4          0.607              1.939              3.222
 Vibration     5          0.622              1.890              2.534
 Vibration     6          0.644              1.821              2.016
 Vibration     7          0.645              1.817              1.993
 Vibration     8          0.654              1.789              1.848
 Vibration     9          0.664              1.758              1.712
 Vibration    10          0.668              1.748              1.670
 Vibration    11          0.676              1.722              1.574
 Vibration    12          0.680              1.710              1.531
 Vibration    13          0.706              1.634              1.306
 Vibration    14          0.713              1.615              1.258
 Vibration    15          0.735              1.553              1.120
 Vibration    16          0.743              1.532              1.075
 Vibration    17          0.761              1.484              0.987
 Vibration    18          0.763              1.477              0.975
 Vibration    19          0.788              1.412              0.870
 Vibration    20          0.804              1.373              0.813
 Vibration    21          0.823              1.327              0.750
 Vibration    22          0.858              1.244              0.652
 Vibration    23          0.880              1.194              0.597
 Vibration    24          0.940              1.068              0.480
 Vibration    25          0.965              1.019              0.439

 Optimization completed.
    -- Stationary point found.
 Normal termination of Gaussian 16 at Thu Dec 10 15:42:28 2020.

 ----------------------------------------------------------------------
 # B3LYP/6-311++G(d,p) empiricaldispersion=gd3bj scf=xqc pop=npa geom=c
 heck
 ----------------------------------------------------------------------

 ---------------------------------------
 CID_149269797_JID_5283_Energie_neutraal
 ---------------------------------------
 Structure from the checkpoint file:  "JID_5283.chk"
 Charge =  0 Multiplicity = 1

 SCF Done:  E(RB3LYP) =  -587.402546010     A.U. after   14 cycles
 Normal termination of Gaussian 16 at Thu Dec 10 15:52:13 2020.

 ----------------------------------------------------------------------
 # B3LYP/6-311++G(d,p) empiricaldispersion=gd3bj scf=xqc pop=npa geom=c
 heck
 ----------------------------------------------------------------------

 -------------------------------------
 CID_149269797_JID_5283_Energie_kation
 -------------------------------------
 Structure from the checkpoint file:  "JID_5283.chk"
 Charge =  1 Multiplicity = 2

 SCF Done:  E(UB3LYP) =  -587.101135662     A.U. after   20 cycles
 Normal termination of Gaussian 16 at Thu Dec 10 16:10:17 2020.
 Gaussian 16:  ES64L-G16RevA.03 25-Dec-2016

 ----------------------------------------------------------------------
 # B3LYP/6-311++G(d,p) empiricaldispersion=gd3bj scf=xqc pop=npa geom=c
 heck
 ----------------------------------------------------------------------

 ------------------------------------
 CID_149269797_JID_5283_Energie_anion
 ------------------------------------
 Structure from the checkpoint file:  "JID_5283.chk"
 Charge = -1 Multiplicity = 2

                         Standard orientation:
 ---------------------------------------------------------------------
 Center     Atomic      Atomic             Coordinates (Angstroms)
 Number     Number       Type             X           Y           Z
 ---------------------------------------------------------------------
      1          6           0       -3.736677   -0.842291    0.296702
      2          6           0       -2.386297   -0.410678   -0.276605
      3          6           0       -1.992104    1.049910    0.202174
      4          6           0       -0.470060    0.884736    0.492283
      5          6           0        0.729802    1.686292   -0.014523
      6          6           0        1.649511    0.603111   -0.708257
      7          6           0        0.788025   -0.405322   -1.575007
      8          6           0       -0.055180   -1.615532   -0.981190
      9          6           0       -1.263948   -1.487401    0.061259
     10          6           0       -0.758909   -1.234151    1.474620
     11          6           0       -0.324037    0.011605    1.704139
     12          6           0        2.624051   -0.120446    0.255581
     13          6           0        3.497896   -1.142242   -0.489156
     14          6           0        3.533457    0.867136    1.001624
     15          6           0       -2.323943    2.095360   -0.860154
     16          1           0       -3.669581   -0.962399    1.384727
     17          1           0       -4.076414   -1.793600   -0.129551
     18          1           0       -4.507999   -0.089873    0.093178
     19          1           0       -2.470630   -0.377529   -1.373413
     20          1           0       -2.546607    1.292830    1.117861
     21          1           0       -0.364608    0.164112   -0.266754
     22          1           0        1.269122    2.263323    0.742679
     23          1           0        0.406872    2.398793   -0.782660
     24          1           0        2.282985    1.129303   -1.439539
     25          1           0        0.114132    0.201459   -2.196714
     26          1           0        1.476103   -0.878769   -2.285808
     27          1           0       -0.469210   -2.113045   -1.868627
     28          1           0        0.643928   -2.330322   -0.531878
     29          1           0       -1.747249   -2.470823    0.018599
     30          1           0       -0.785876   -2.020627    2.225057
     31          1           0        0.052323    0.370340    2.660183
     32          1           0        2.032168   -0.664010    1.000952
     33          1           0        4.061767   -0.658614   -1.298119
     34          1           0        4.224547   -1.597638    0.193447
     35          1           0        2.910207   -1.952724   -0.930204
     36          1           0        2.973807    1.532719    1.664995
     37          1           0        4.261945    0.328117    1.618278
     38          1           0        4.095032    1.492866    0.295219
     39          1           0       -3.391650    2.075771   -1.109953
     40          1           0       -2.078246    3.106142   -0.515309
     41          1           0       -1.766401    1.913665   -1.787588
 ---------------------------------------------------------------------

 SCF Done:  E(UB3LYP) =  -587.385954332     A.U. after   33 cycles
 SCF Done:  E(UB3LYP) =  -587.385954333     a.u. after    1 cycles

 The electronic state is 2-A.
 Alpha  occ. eigenvalues --  -10.08158 -10.07780 -10.07600 -10.07567 -10.07521
 Alpha  occ. eigenvalues --  -10.07295 -10.07101 -10.06793 -10.06532 -10.06310
 Alpha  occ. eigenvalues --  -10.06267 -10.06074 -10.05984 -10.05790 -10.04952
 Alpha  occ. eigenvalues --   -0.76951  -0.71819  -0.67567  -0.67253  -0.65910
 Alpha  occ. eigenvalues --   -0.62321  -0.58877  -0.57489  -0.56659  -0.53970
 Alpha  occ. eigenvalues --   -0.49817  -0.47495  -0.47045  -0.44029  -0.42107
 Alpha  occ. eigenvalues --   -0.38237  -0.37392  -0.36900  -0.34698  -0.34080
 Alpha  occ. eigenvalues --   -0.33827  -0.32887  -0.32627  -0.30520  -0.30244
 Alpha  occ. eigenvalues --   -0.29588  -0.29001  -0.28619  -0.28019  -0.27254
 Alpha  occ. eigenvalues --   -0.26612  -0.25553  -0.24925  -0.24498  -0.24131
 Alpha  occ. eigenvalues --   -0.23375  -0.22912  -0.21772  -0.21187  -0.19721
 Alpha  occ. eigenvalues --   -0.19116  -0.17392  -0.13910   0.04449
 Alpha virt. eigenvalues --    0.06437   0.06701   0.06902   0.08111   0.08380
 Alpha virt. eigenvalues --    0.08719   0.08831   0.09197   0.10199   0.10488
 Alpha virt. eigenvalues --    0.10861   0.11069   0.11501   0.11695   0.12129

  Beta  occ. eigenvalues --  -10.08152 -10.07776 -10.07592 -10.07558 -10.07502
  Beta  occ. eigenvalues --  -10.07281 -10.07097 -10.06783 -10.06526 -10.06301
  Beta  occ. eigenvalues --  -10.06246 -10.06057 -10.05963 -10.05766 -10.04945
  Beta  occ. eigenvalues --   -0.76933  -0.71799  -0.67543  -0.67231  -0.65884
  Beta  occ. eigenvalues --   -0.62288  -0.58838  -0.57454  -0.56625  -0.53926
  Beta  occ. eigenvalues --   -0.49772  -0.47454  -0.47008  -0.43999  -0.42074
  Beta  occ. eigenvalues --   -0.38203  -0.37358  -0.36878  -0.34676  -0.34053
  Beta  occ. eigenvalues --   -0.33793  -0.32864  -0.32591  -0.30495  -0.30218
  Beta  occ. eigenvalues --   -0.29556  -0.28979  -0.28595  -0.27992  -0.27229
  Beta  occ. eigenvalues --   -0.26589  -0.25524  -0.24895  -0.24467  -0.24100
  Beta  occ. eigenvalues --   -0.23341  -0.22884  -0.21754  -0.21162  -0.19694
  Beta  occ. eigenvalues --   -0.19096  -0.17357  -0.13892
  Beta virt. eigenvalues --    0.06396   0.06999   0.07304   0.07614   0.08441
  Beta virt. eigenvalues --    0.08746   0.09100   0.09240   0.09682   0.10412
  Beta virt. eigenvalues --    0.10845   0.11115   0.11412   0.11881   0.11965

 Mulliken charges and spin densities:
               1          2
     1  C   -0.457222  -0.253212
     2  C   -0.483388   0.549150
     3  C   -0.911473   0.743428
     4  C    0.740005   0.118957
     5  C   -1.388324   0.449764
     6  C    2.831284  -2.017684
     7  C   -2.180172   1.563414
     8  C   -0.434591  -0.236461
     9  C    0.273372  -0.035280
    10  C    0.778771  -1.207112
    11  C   -2.346642   1.747582
    12  C   -1.656116   1.624936
    13  C    0.143719  -0.775846
    14  C    0.420904  -1.092510
    15  C    0.432066  -1.084876
    16  H    0.013272   0.149939
    17  H   -0.247573   0.374885
    18  H   -0.023863   0.147813
    19  H    0.068987   0.161033
    20  H   -0.010259   0.212253
    21  H    6.140753  -6.095761
    22  H   -0.187136   0.317608
    23  H    0.035901   0.115029
    24  H   -0.025918   0.243891
    25  H   -0.321741   0.505109
    26  H   -0.493616   0.703023
    27  H   -0.553423   0.739449
    28  H    0.072266   0.068111
    29  H   -0.069299   0.329514
    30  H   -0.274399   0.436345
    31  H   -0.261604   0.418638
    32  H    0.084578   0.114063
    33  H   -0.054373   0.206584
    34  H   -0.089656   0.222974
    35  H   -0.108391   0.239604
    36  H    0.067813   0.061313
    37  H   -0.059898   0.188753
    38  H   -0.038722   0.183361
    39  H   -0.101031   0.236475
    40  H   -0.103615   0.248902
    41  H   -0.221246   0.376842
 Sum of Mulliken charges =  -1.00000   1.00000

 Dipole moment (field-independent basis, Debye):
    X=              0.1959    Y=              2.1753    Z=              2.5476  Tot=              3.3557
 Quadrupole moment (field-independent basis, Debye-Ang):
   XX=           -167.4716   YY=           -147.0004   ZZ=           -144.7816
   XY=             -1.1923   XZ=             -0.7166   YZ=             -2.7593

 Summary of Natural Population Analysis:

                                       Natural Population
                Natural  -----------------------------------------------
    Atom  No    Charge         Core      Valence    Rydberg      Total
 -----------------------------------------------------------------------
      C    1   -0.28432      0.99964     2.27839    0.00629     3.28432
      C    2   -0.10353      0.99957     2.09288    0.01108     3.10353
      C    3   -0.09195      0.99957     2.08148    0.01090     3.09195
      C    4   -0.20254      0.99940     2.19092    0.01222     3.20254
      C    5   -0.18068      0.99960     2.17173    0.00935     3.18068
      C    6   -0.09970      0.99958     2.08877    0.01135     3.09970
      C    7   -0.20945      0.99960     2.19945    0.01040     3.20945
      C    8   -0.18517      0.99959     2.17638    0.00920     3.18517
      C    9   -0.13479      0.99957     2.12231    0.01291     3.13479
      C   10   -0.09616      0.99950     2.08542    0.01124     3.09616
      C   11   -0.08408      0.99949     2.07349    0.01110     3.08408
      C   12   -0.12434      0.99958     2.11475    0.01002     3.12434
      C   13   -0.28312      0.99965     2.27769    0.00578     3.28312
      C   14   -0.28083      0.99965     2.27640    0.00478     3.28083
      C   15   -0.28515      0.99964     2.27927    0.00623     3.28515
      H   16    0.09843      0.00000     0.40049    0.00108     0.40157
      H   17    0.09945      0.00000     0.39957    0.00098     0.40055
      H   18    0.09819      0.00000     0.40097    0.00084     0.40181
      H   19    0.09626      0.00000     0.40183    0.00192     0.40374
      H   20    0.09255      0.00000     0.40589    0.00156     0.40745
      H   21    0.16636      0.00000     0.32481    0.00884     0.33364
      H   22    0.09851      0.00000     0.40040    0.00109     0.40149
      H   23    0.10186      0.00000     0.39696    0.00118     0.39814
      H   24    0.09564      0.00000     0.40295    0.00141     0.40436
      H   25    0.09972      0.00000     0.39879    0.00149     0.40028
      H   26    0.10930      0.00000     0.38938    0.00133     0.39070
      H   27    0.10264      0.00000     0.39575    0.00161     0.39736
      H   28    0.09910      0.00000     0.39949    0.00141     0.40090
      H   29    0.10756      0.00000     0.39060    0.00184     0.39244
      H   30    0.09809      0.00000     0.40089    0.00101     0.40191
      H   31    0.09832      0.00000     0.40069    0.00099     0.40168
      H   32    0.10271      0.00000     0.39490    0.00239     0.39729
      H   33    0.09582      0.00000     0.40312    0.00106     0.40418
      H   34    0.09727      0.00000     0.40193    0.00080     0.40273
      H   35    0.10071      0.00000     0.39823    0.00106     0.39929
      H   36    0.09824      0.00000     0.40079    0.00096     0.40176
      H   37    0.09745      0.00000     0.40175    0.00080     0.40255
      H   38    0.09527      0.00000     0.40373    0.00100     0.40473
      H   39    0.09966      0.00000     0.39951    0.00083     0.40034
      H   40    0.09921      0.00000     0.39993    0.00086     0.40079
      H   41    0.09749      0.00000     0.40127    0.00125     0.40251
 =======================================================================
   * Total *   -0.00000     14.99363    42.82396    0.18241    58.00000

 Normal termination of Gaussian 16 at Thu Dec 10 16:42:02 2020.
