 Gaussian 16, Revision A.03,

 -----------------------------------------------------------
 # opt freq B3LYP/6-31G(d) empiricaldispersion=gd3bj scf=xqc
 -----------------------------------------------------------

 ------------------------------
 CID_83848147_JID_5286_neutraal
 ------------------------------
 Symbolic Z-matrix:
 Charge =  0 Multiplicity = 1

 SCF Done:  E(RB3LYP) =  -631.783707905     A.U. after   14 cycles
 SCF Done:  E(RB3LYP) =  -631.788028823     A.U. after   12 cycles
 SCF Done:  E(RB3LYP) =  -631.788574883     A.U. after   12 cycles
 SCF Done:  E(RB3LYP) =  -631.789249513     A.U. after   12 cycles
 SCF Done:  E(RB3LYP) =  -631.789921789     A.U. after   13 cycles
 SCF Done:  E(RB3LYP) =  -631.789673256     A.U. after   12 cycles
 SCF Done:  E(RB3LYP) =  -631.790749624     A.U. after   11 cycles
 SCF Done:  E(RB3LYP) =  -631.792102255     A.U. after   13 cycles
 SCF Done:  E(RB3LYP) =  -631.792509296     A.U. after   11 cycles
 SCF Done:  E(RB3LYP) =  -631.792728685     A.U. after   12 cycles
 SCF Done:  E(RB3LYP) =  -631.792944626     A.U. after    7 cycles
 SCF Done:  E(RB3LYP) =  -631.792944660     A.U. after    6 cycles
 SCF Done:  E(RB3LYP) =  -631.792944700     A.U. after    7 cycles
 SCF Done:  E(RB3LYP) =  -631.792944730     A.U. after    7 cycles
 SCF Done:  E(RB3LYP) =  -631.792944749     A.U. after    6 cycles
 Optimization completed.
    -- Stationary point found.
 Normal termination of Gaussian 16 at Thu Dec 10 15:27:52 2020.

 --------------------------------------------------------------------
 #N Geom=AllCheck Guess=TCheck SCRF=Check GenChk RB3LYP/6-31G(d) Freq
 --------------------------------------------------------------------

 Structure from the checkpoint file:  "JID_5286.chk"
 ------------------------------
 CID_83848147_JID_5286_neutraal
 ------------------------------
 Charge =  0 Multiplicity = 1

 SCF Done:  E(RB3LYP) =  -631.792944749     A.U. after    1 cycles

  Exact polarizability: 180.603  -6.956 136.455   7.286   1.416  97.873
 Approx polarizability: 234.411  -7.953 221.947  16.803   3.738 149.951

                      1                      2                      3
                      A                      A                      A
 Frequencies --     24.0205                39.6723                60.9406
 Red. masses --      3.6397                 3.5301                 2.9364
 Frc consts  --      0.0012                 0.0033                 0.0064
 IR Inten    --      0.6829                 0.4339                 0.0341

                      4                      5                      6
                      A                      A                      A
 Frequencies --     76.8964                96.1384               124.1684
 Red. masses --      2.1582                 3.1112                 3.2548
 Frc consts  --      0.0075                 0.0169                 0.0296
 IR Inten    --      0.0737                 1.8975                 0.8173

                      7                      8                      9
                      A                      A                      A
 Frequencies --    143.1727               187.6308               249.5799
 Red. masses --      3.1558                 3.1187                 4.8313
 Frc consts  --      0.0381                 0.0647                 0.1773
 IR Inten    --      0.1124                 1.3454                 1.0394

                     10                     11                     12
                      A                      A                      A
 Frequencies --    324.6459               328.6143               341.3998
 Red. masses --      3.3397                 4.1345                 2.7476
 Frc consts  --      0.2074                 0.2631                 0.1887
 IR Inten    --      0.6665                 2.9822                 7.2347

                     13                     14                     15
                      A                      A                      A
 Frequencies --    392.0119               432.0017               487.2794
 Red. masses --      2.4984                 3.0376                 2.5673
 Frc consts  --      0.2262                 0.3340                 0.3592
 IR Inten    --      1.7173                 1.8710                13.1852

                     16                     17                     18
                      A                      A                      A
 Frequencies --    552.6635               604.2897               679.5959
 Red. masses --      3.4511                 3.9839                 3.0811
 Frc consts  --      0.6210                 0.8571                 0.8384
 IR Inten    --      7.0118                13.9551                 3.8460

                     19                     20                     21
                      A                      A                      A
 Frequencies --    682.7273               712.4589               776.7415
 Red. masses --      3.7528                 2.9770                 2.0078
 Frc consts  --      1.0306                 0.8903                 0.7137
 IR Inten    --      0.7437                 5.9601                 1.6319

                     22                     23                     24
                      A                      A                      A
 Frequencies --    792.0420               803.5515               814.5614
 Red. masses --      2.2776                 1.5597                 1.7638
 Frc consts  --      0.8418                 0.5933                 0.6895
 IR Inten    --     19.4978                13.0390                29.1979

                     25                     26                     27
                      A                      A                      A
 Frequencies --    834.2355               837.1311               844.5234
 Red. masses --      2.1330                 1.5522                 2.0638
 Frc consts  --      0.8746                 0.6409                 0.8673
 IR Inten    --      8.3951                49.1195                 2.7069

                     28                     29                     30
                      A                      A                      A
 Frequencies --    888.7668               896.3842               913.3163
 Red. masses --      1.4945                 2.3383                 2.9325
 Frc consts  --      0.6955                 1.1070                 1.4412
 IR Inten    --      7.7423                 0.1654                 2.4887

                     31                     32                     33
                      A                      A                      A
 Frequencies --    918.4250               924.1168               951.9827
 Red. masses --      2.4419                 2.4849                 2.7554
 Frc consts  --      1.2136                 1.2503                 1.4713
 IR Inten    --     19.0041                 3.7476                25.1620

                     34                     35                     36
                      A                      A                      A
 Frequencies --    967.2902               985.4339               990.8571
 Red. masses --      2.7568                 2.1758                 1.4723
 Frc consts  --      1.5197                 1.2449                 0.8517
 IR Inten    --     29.5145                13.1611                 0.4933

                     37                     38                     39
                      A                      A                      A
 Frequencies --   1011.7405              1040.5210              1055.8569
 Red. masses --      8.8010                 1.7548                 1.8910
 Frc consts  --      5.3079                 1.1194                 1.2421
 IR Inten    --      8.4313                 0.4717                16.4544

                     40                     41                     42
                      A                      A                      A
 Frequencies --   1065.7847              1084.5848              1087.2688
 Red. masses --      1.3320                 1.3299                 1.6555
 Frc consts  --      0.8915                 0.9217                 1.1531
 IR Inten    --     17.0676                 2.8653                 3.5888

                     43                     44                     45
                      A                      A                      A
 Frequencies --   1091.9311              1117.6712              1144.7786
 Red. masses --      1.5984                 3.3800                 1.0954
 Frc consts  --      1.1229                 2.4877                 0.8458
 IR Inten    --      0.7062                41.7138                 0.9137

                     46                     47                     48
                      A                      A                      A
 Frequencies --   1171.5560              1194.1726              1216.4048
 Red. masses --      1.2943                 2.0778                 1.3952
 Frc consts  --      1.0466                 1.7457                 1.2163
 IR Inten    --      2.2310                 2.2578                 0.7527

                     49                     50                     51
                      A                      A                      A
 Frequencies --   1231.6359              1239.6140              1247.9249
 Red. masses --      2.1351                 1.2882                 1.3684
 Frc consts  --      1.9082                 1.1662                 1.2555
 IR Inten    --      7.4601                18.9173                 0.4781

                     52                     53                     54
                      A                      A                      A
 Frequencies --   1256.2329              1259.0477              1293.4437
 Red. masses --      1.9703                 1.6033                 2.6449
 Frc consts  --      1.8320                 1.4974                 2.6071
 IR Inten    --      3.0043                 1.1979                 0.2457

                     55                     56                     57
                      A                      A                      A
 Frequencies --   1321.8105              1328.0257              1333.2250
 Red. masses --      1.3309                 1.3637                 1.2456
 Frc consts  --      1.3700                 1.4171                 1.3044
 IR Inten    --      4.4734                 0.0780                 0.4032

                     58                     59                     60
                      A                      A                      A
 Frequencies --   1347.4239              1358.3958              1383.8465
 Red. masses --      1.5554                 1.5375                 1.3507
 Frc consts  --      1.6638                 1.6716                 1.5240
 IR Inten    --      0.9067                12.7842                 8.4012

                     61                     62                     63
                      A                      A                      A
 Frequencies --   1398.5677              1404.7448              1440.1760
 Red. masses --      2.2444                 1.4528                 3.0151
 Frc consts  --      2.5865                 1.6891                 3.6846
 IR Inten    --     40.0330                16.8658                21.3062

                     64                     65                     66
                      A                      A                      A
 Frequencies --   1479.9163              1497.0439              1511.5800
 Red. masses --      1.2188                 1.0865                 1.1308
 Frc consts  --      1.5728                 1.4346                 1.5223
 IR Inten    --      7.9097                 2.0310                 6.0057

                     67                     68                     69
                      A                      A                      A
 Frequencies --   1517.2233              1519.4964              1532.8576
 Red. masses --      1.4093                 1.2892                 1.1078
 Frc consts  --      1.9114                 1.7538                 1.5336
 IR Inten    --      4.2950                12.1519                 3.6023

                     70                     71                     72
                      A                      A                      A
 Frequencies --   1536.3535              1550.1711              1590.6533
 Red. masses --      1.5100                 1.0932                 7.6412
 Frc consts  --      2.0999                 1.5478                11.3910
 IR Inten    --     14.8446                 3.8042                95.1282

                     73                     74                     75
                      A                      A                      A
 Frequencies --   1643.8404              3051.3638              3058.6649
 Red. masses --      6.1524                 1.0728                 1.0650
 Frc consts  --      9.7952                 5.8851                 5.8705
 IR Inten    --    325.3743                18.2541                46.1867

                     76                     77                     78
                      A                      A                      A
 Frequencies --   3067.9038              3074.9707              3076.9916
 Red. masses --      1.0768                 1.0639                 1.0631
 Frc consts  --      5.9713                 5.9269                 5.9304
 IR Inten    --     40.3900                23.2443                28.5779

                     79                     80                     81
                      A                      A                      A
 Frequencies --   3097.8922              3118.4073              3124.3257
 Red. masses --      1.1024                 1.1041                 1.1047
 Frc consts  --      6.2334                 6.3260                 6.3537
 IR Inten    --      9.7616                52.3783                14.1549

                     82                     83                     84
                      A                      A                      A
 Frequencies --   3135.0920              3151.5192              3153.9377
 Red. masses --      1.0987                 1.0503                 1.0587
 Frc consts  --      6.3625                 6.1464                 6.2051
 IR Inten    --     22.2099                17.8391                 7.1597

                     85                     86                     87
                      A                      A                      A
 Frequencies --   3180.1491              3199.4372              3201.7760
 Red. masses --      1.0905                 1.0910                 1.0905
 Frc consts  --      6.4981                 6.5801                 6.5868
 IR Inten    --     41.7594                 6.9641                 2.5088

                     88                     89                     90
                      A                      A                      A
 Frequencies --   3227.3264              3241.8662              3481.4633
 Red. masses --      1.1200                 1.1155                 1.0748
 Frc consts  --      6.8729                 6.9071                 7.6752
 IR Inten    --      0.1924                20.5903                 1.8936

 - Thermochemistry -
 -------------------
 Temperature   298.150 Kelvin.  Pressure   1.00000 Atm.
 Atom     1 has atomic number  6 and mass  12.00000

 Molecular mass:   203.14225 amu.
 Principal axes and moments of inertia in atomic units:
                           1         2         3
     Eigenvalues --  1358.521196050.165346872.97599
           X            0.99991  -0.01317  -0.00071
           Y            0.01318   0.99990   0.00438
           Z            0.00065  -0.00439   0.99999
 This molecule is an asymmetric top.
 Rotational symmetry number  1.
 Warning -- assumption of classical behavior for rotation
           may cause significant error
 Rotational temperatures (Kelvin)      0.06376     0.01432     0.01260
 Rotational constants (GHZ):           1.32846     0.29830     0.26259
 Zero-point vibrational energy     734673.9 (Joules/Mol)
                                  175.59126 (Kcal/Mol)
 Warning -- explicit consideration of  17 degrees of freedom as
           vibrations may cause significant error
 Vibrational temperatures:     34.56    57.08    87.68   110.64   138.32
          (Kelvin)            178.65   205.99   269.96   359.09   467.09
                              472.80   491.20   564.02   621.55   701.09
                              795.16   869.44   977.79   982.29  1025.07
                             1117.56  1139.57  1156.13  1171.97  1200.28
                             1204.44  1215.08  1278.74  1289.70  1314.06
                             1321.41  1329.60  1369.69  1391.71  1417.82
                             1425.62  1455.67  1497.08  1519.14  1533.43
                             1560.48  1564.34  1571.05  1608.08  1647.08
                             1685.61  1718.15  1750.14  1772.05  1783.53
                             1795.49  1807.44  1811.49  1860.98  1901.79
                             1910.73  1918.21  1938.64  1954.43  1991.05
                             2012.23  2021.11  2072.09  2129.27  2153.91
                             2174.83  2182.95  2186.22  2205.44  2210.47
                             2230.35  2288.60  2365.12  4390.23  4400.74
                             4414.03  4424.20  4427.10  4457.18  4486.69
                             4495.21  4510.70  4534.33  4537.81  4575.53
                             4603.28  4606.64  4643.40  4664.32  5009.05

 Zero-point correction=                           0.279822 (Hartree/Particle)
 Thermal correction to Energy=                    0.293267
 Thermal correction to Enthalpy=                  0.294211
 Thermal correction to Gibbs Free Energy=         0.237473
 Sum of electronic and zero-point Energies=           -631.513122
 Sum of electronic and thermal Energies=              -631.499678
 Sum of electronic and thermal Enthalpies=            -631.498734
 Sum of electronic and thermal Free Energies=         -631.555472

                     E (Thermal)             CV                S
                      KCal/Mol        Cal/Mol-Kelvin    Cal/Mol-Kelvin
 Total                  184.028             51.544            119.415
 Electronic               0.000              0.000              0.000
 Translational            0.889              2.981             41.831
 Rotational               0.889              2.981             32.402
 Vibrational            182.250             45.582             45.182
 Vibration     1          0.593              1.985              6.271
 Vibration     2          0.594              1.981              5.275
 Vibration     3          0.597              1.973              4.426
 Vibration     4          0.599              1.965              3.969
 Vibration     5          0.603              1.952              3.531
 Vibration     6          0.610              1.929              3.034
 Vibration     7          0.616              1.910              2.761
 Vibration     8          0.632              1.857              2.251
 Vibration     9          0.662              1.763              1.734
 Vibration    10          0.709              1.626              1.287
 Vibration    11          0.712              1.618              1.267
 Vibration    12          0.721              1.593              1.206
 Vibration    13          0.759              1.487              0.992
 Vibration    14          0.793              1.401              0.852
 Vibration    15          0.843              1.278              0.691
 Vibration    16          0.908              1.134              0.539
 Vibration    17          0.963              1.023              0.442

 Optimization completed.
    -- Stationary point found.
 Normal termination of Gaussian 16 at Thu Dec 10 15:36:43 2020.

 ----------------------------------------------------------------------
 # B3LYP/6-311++G(d,p) empiricaldispersion=gd3bj scf=xqc pop=npa geom=c
 heck
 ----------------------------------------------------------------------

 --------------------------------------
 CID_83848147_JID_5286_Energie_neutraal
 --------------------------------------
 Structure from the checkpoint file:  "JID_5286.chk"
 Charge =  0 Multiplicity = 1

 SCF Done:  E(RB3LYP) =  -631.961267507     A.U. after   15 cycles
 Normal termination of Gaussian 16 at Thu Dec 10 15:40:52 2020.

 ----------------------------------------------------------------------
 # B3LYP/6-311++G(d,p) empiricaldispersion=gd3bj scf=xqc pop=npa geom=c
 heck
 ----------------------------------------------------------------------

 ------------------------------------
 CID_83848147_JID_5286_Energie_kation
 ------------------------------------
 Structure from the checkpoint file:  "JID_5286.chk"
 Charge =  1 Multiplicity = 2

 SCF Done:  E(UB3LYP) =  -631.654151130     A.U. after   31 cycles
 Normal termination of Gaussian 16 at Thu Dec 10 15:51:20 2020.
 Gaussian 16:  ES64L-G16RevA.03 25-Dec-2016

 ----------------------------------------------------------------------
 # B3LYP/6-311++G(d,p) empiricaldispersion=gd3bj scf=xqc pop=npa geom=c
 heck
 ----------------------------------------------------------------------

 -----------------------------------
 CID_83848147_JID_5286_Energie_anion
 -----------------------------------
 Structure from the checkpoint file:  "JID_5286.chk"
 Charge = -1 Multiplicity = 2

                         Standard orientation:
 ---------------------------------------------------------------------
 Center     Atomic      Atomic             Coordinates (Angstroms)
 Number     Number       Type             X           Y           Z
 ---------------------------------------------------------------------
      1          6           0       -3.950642    0.654332    0.381609
      2          6           0       -2.622716    0.369012    1.117579
      3          6           0       -2.017892   -0.808032    0.322929
      4          7           0       -3.169625   -1.624021   -0.104345
      5          6           0       -4.251216   -0.658978   -0.404573
      6          6           0       -1.227296   -0.350474   -0.925738
      7          6           0        0.038165    0.377853   -0.568149
      8          6           0        1.236722   -0.303241   -0.361150
      9          6           0        2.364914    0.435879    0.014094
     10          7           0        2.288934    1.771445    0.168657
     11          6           0        1.095224    2.325858   -0.053769
     12          7           0       -0.035678    1.714719   -0.412359
     13          6           0        3.692061   -0.173451    0.261754
     14          6           0        3.809342   -1.554165    0.886332
     15          6           0        4.165542   -1.365067   -0.554152
     16          1           0       -4.753258    0.910277    1.079994
     17          1           0       -3.840666    1.499823   -0.304839
     18          1           0       -2.816386    0.041522    2.146279
     19          1           0       -1.968380    1.243161    1.158224
     20          1           0       -1.353389   -1.424472    0.939459
     21          1           0       -3.459118   -2.184385    0.695693
     22          1           0       -5.218361   -1.100801   -0.146578
     23          1           0       -4.268845   -0.463915   -1.482693
     24          1           0       -1.001220   -1.242535   -1.518262
     25          1           0       -1.850753    0.312299   -1.533993
     26          1           0        1.281418   -1.379795   -0.494650
     27          1           0        1.038952    3.406021    0.070628
     28          1           0        4.439530    0.560813    0.542901
     29          1           0        4.607568   -1.706228    1.606649
     30          1           0        2.884084   -2.069643    1.128369
     31          1           0        3.487379   -1.749377   -1.310935
     32          1           0        5.212780   -1.384922   -0.840522
 ---------------------------------------------------------------------

 SCF Done:  E(UB3LYP) =  -631.951536682     A.U. after   33 cycles
 SCF Done:  E(UB3LYP) =  -631.951536682     a.u. after    1 cycles

 The electronic state is 2-A.
 Alpha  occ. eigenvalues --  -14.18768 -14.18607 -14.18323 -10.11671 -10.09876
 Alpha  occ. eigenvalues --  -10.09427 -10.08918 -10.08478 -10.08286 -10.08239
 Alpha  occ. eigenvalues --  -10.07886 -10.06380 -10.05972 -10.05797 -10.05106
 Alpha  occ. eigenvalues --   -0.86175  -0.81140  -0.77958  -0.75707  -0.68347
 Alpha  occ. eigenvalues --   -0.65026  -0.63761  -0.58503  -0.55869  -0.52204
 Alpha  occ. eigenvalues --   -0.51077  -0.47886  -0.47330  -0.45021  -0.41790
 Alpha  occ. eigenvalues --   -0.41198  -0.39071  -0.37596  -0.35887  -0.34999
 Alpha  occ. eigenvalues --   -0.34426  -0.32937  -0.32120  -0.30200  -0.29399
 Alpha  occ. eigenvalues --   -0.27973  -0.27716  -0.26581  -0.25370  -0.24469
 Alpha  occ. eigenvalues --   -0.23899  -0.22608  -0.22115  -0.21545  -0.21225
 Alpha  occ. eigenvalues --   -0.17981  -0.17508  -0.15225  -0.13529  -0.12808
 Alpha  occ. eigenvalues --    0.04573
 Alpha virt. eigenvalues --    0.06230   0.06443   0.08041   0.08287   0.08689
 Alpha virt. eigenvalues --    0.08971   0.09022   0.09520   0.10580   0.11173
 Alpha virt. eigenvalues --    0.11391   0.11653   0.12857   0.13356   0.13666

  Beta  occ. eigenvalues --  -14.18743 -14.18474 -14.18156 -10.11698 -10.09640
  Beta  occ. eigenvalues --  -10.09213 -10.08897 -10.08463 -10.08274 -10.08245
  Beta  occ. eigenvalues --  -10.07826 -10.06449 -10.05963 -10.05812 -10.05092
  Beta  occ. eigenvalues --   -0.85898  -0.81081  -0.77713  -0.75486  -0.68141
  Beta  occ. eigenvalues --   -0.64975  -0.63678  -0.58349  -0.55757  -0.52083
  Beta  occ. eigenvalues --   -0.50968  -0.47787  -0.47251  -0.44934  -0.41692
  Beta  occ. eigenvalues --   -0.41123  -0.38988  -0.37491  -0.35840  -0.34914
  Beta  occ. eigenvalues --   -0.34362  -0.32802  -0.31935  -0.29748  -0.29292
  Beta  occ. eigenvalues --   -0.27922  -0.27644  -0.26498  -0.25260  -0.24334
  Beta  occ. eigenvalues --   -0.23728  -0.22310  -0.22030  -0.21488  -0.21119
  Beta  occ. eigenvalues --   -0.17764  -0.16674  -0.14804  -0.13357  -0.12760
  Beta virt. eigenvalues --    0.06736   0.07284   0.08166   0.08381   0.08565
  Beta virt. eigenvalues --    0.09116   0.09189   0.09373   0.09770   0.10738
  Beta virt. eigenvalues --    0.11249   0.11676   0.11950   0.12739   0.13360

 Mulliken charges and spin densities:
               1          2
     1  C    0.329692  -0.650047
     2  C   -0.776078   0.237675
     3  C    0.124238  -0.562442
     4  N   -0.093505   0.098936
     5  C   -0.146809  -0.258654
     6  C    0.166421  -0.573388
     7  C    0.889680  -0.308771
     8  C   -0.791922   0.449590
     9  C    0.155156  -0.605083
    10  N   -0.098914   0.055875
    11  C    0.102397  -0.023490
    12  N   -0.082084   0.105540
    13  C   -1.144338   1.099801
    14  C    0.372516  -0.745910
    15  C   -0.111484  -0.211911
    16  H   -0.070395   0.197014
    17  H    0.137652   0.006048
    18  H   -0.323729   0.500068
    19  H    0.155057   0.016335
    20  H    0.020607   0.195470
    21  H   -0.134820   0.384786
    22  H   -0.427326   0.580006
    23  H    0.206429  -0.062459
    24  H    0.226517  -0.031895
    25  H    0.203607   0.016958
    26  H    0.201693   0.017546
    27  H    0.170276   0.007068
    28  H    0.109693   0.137199
    29  H   -0.416912   0.580659
    30  H   -0.090521   0.220358
    31  H    0.029745   0.086832
    32  H    0.107459   0.040286
 Sum of Mulliken charges =  -1.00000   1.00000

 Dipole moment (field-independent basis, Debye):
    X=              2.2503    Y=              2.2417    Z=             -4.1782  Tot=              5.2484
 Quadrupole moment (field-independent basis, Debye-Ang):
   XX=           -174.0151   YY=           -127.3338   ZZ=           -117.3908
   XY=             -9.2495   XZ=              1.6888   YZ=              6.9542

 Summary of Natural Population Analysis:

                                       Natural Population
                Natural  -----------------------------------------------
    Atom  No    Charge         Core      Valence    Rydberg      Total
 -----------------------------------------------------------------------
      C    1   -0.20494      0.99964     2.19762    0.00768     3.20494
      C    2   -0.20491      0.99961     2.19610    0.00920     3.20491
      C    3   -0.00385      0.99959     1.99049    0.01378     3.00385
      N    4   -0.34140      0.99975     2.82814    0.01351     3.84140
      C    5   -0.09378      0.99964     2.08330    0.01084     3.09378
      C    6   -0.21120      0.99958     2.20097    0.01066     3.21120
      C    7    0.15970      0.99953     1.82690    0.01387     2.84030
      C    8   -0.16311      0.99945     2.15595    0.00770     3.16311
      C    9    0.15837      0.99952     1.82673    0.01538     2.84163
      N   10   -0.24472      0.99969     2.73599    0.00904     3.74472
      C   11    0.13838      0.99967     1.84412    0.01783     2.86162
      N   12   -0.24610      0.99968     2.73599    0.01043     3.74610
      C   13   -0.12849      0.99957     2.11700    0.01193     3.12849
      C   14   -0.18778      0.99963     2.17889    0.00926     3.18778
      C   15   -0.18989      0.99963     2.18309    0.00717     3.18989
      H   16    0.09918      0.00000     0.39963    0.00119     0.40082
      H   17    0.09562      0.00000     0.40334    0.00104     0.40438
      H   18    0.09730      0.00000     0.40092    0.00178     0.40270
      H   19    0.11262      0.00000     0.38609    0.00129     0.38738
      H   20    0.09680      0.00000     0.40193    0.00127     0.40320
      H   21    0.17670      0.00000     0.31885    0.00444     0.32330
      H   22    0.09460      0.00000     0.40411    0.00129     0.40540
      H   23    0.08476      0.00000     0.41404    0.00120     0.41524
      H   24    0.10476      0.00000     0.39426    0.00098     0.39524
      H   25    0.10482      0.00000     0.39386    0.00131     0.39518
      H   26    0.10162      0.00000     0.39717    0.00121     0.39838
      H   27    0.07626      0.00000     0.42259    0.00114     0.42374
      H   28    0.10938      0.00000     0.38824    0.00238     0.39062
      H   29    0.10399      0.00000     0.39447    0.00155     0.39601
      H   30    0.10470      0.00000     0.39425    0.00105     0.39530
      H   31    0.10110      0.00000     0.39798    0.00092     0.39890
      H   32    0.09951      0.00000     0.39973    0.00077     0.40049
 =======================================================================
   * Total *    0.00000     14.99418    39.81272    0.19309    55.00000

 Normal termination of Gaussian 16 at Thu Dec 10 16:02:41 2020.
