 Gaussian 16, Revision A.03,

 -----------------------------------------------------------
 # opt freq B3LYP/6-31G(d) empiricaldispersion=gd3bj scf=xqc
 -----------------------------------------------------------

 ------------------------------
 CID_79338977_JID_8401_neutraal
 ------------------------------
 Symbolic Z-matrix:
 Charge =  0 Multiplicity = 1

 SCF Done:  E(RB3LYP) =  -748.533423578     A.U. after   15 cycles
 SCF Done:  E(RB3LYP) =  -748.541471806     A.U. after   13 cycles
 SCF Done:  E(RB3LYP) =  -748.542941458     A.U. after   12 cycles
 SCF Done:  E(RB3LYP) =  -748.544136006     A.U. after   13 cycles
 SCF Done:  E(RB3LYP) =  -748.544805180     A.U. after   14 cycles
 SCF Done:  E(RB3LYP) =  -748.545512916     A.U. after   12 cycles
 SCF Done:  E(RB3LYP) =  -748.545904046     A.U. after   12 cycles
 SCF Done:  E(RB3LYP) =  -748.546077048     A.U. after   12 cycles
 SCF Done:  E(RB3LYP) =  -748.546155791     A.U. after   11 cycles
 SCF Done:  E(RB3LYP) =  -748.546195592     A.U. after   10 cycles
 SCF Done:  E(RB3LYP) =  -748.546268163     A.U. after    9 cycles
 SCF Done:  E(RB3LYP) =  -748.546270217     A.U. after    9 cycles
 SCF Done:  E(RB3LYP) =  -748.546271005     A.U. after    8 cycles
 SCF Done:  E(RB3LYP) =  -748.546271285     A.U. after    8 cycles
 SCF Done:  E(RB3LYP) =  -748.546271334     A.U. after    6 cycles
 Optimization completed.
    -- Stationary point found.
 Normal termination of Gaussian 16 at Fri Dec 11 20:37:27 2020.

 --------------------------------------------------------------------
 #N Geom=AllCheck Guess=TCheck SCRF=Check GenChk RB3LYP/6-31G(d) Freq
 --------------------------------------------------------------------

 Structure from the checkpoint file:  "JID_8401.chk"
 ------------------------------
 CID_79338977_JID_8401_neutraal
 ------------------------------
 Charge =  0 Multiplicity = 1

 SCF Done:  E(RB3LYP) =  -748.546271334     A.U. after    1 cycles

  Exact polarizability: 314.498   4.819 162.825  14.212 -12.581 110.190
 Approx polarizability: 425.920   4.763 275.505  30.811 -29.125 167.089

                      1                      2                      3
                      A                      A                      A
 Frequencies --     25.1248                31.1628                69.0192
 Red. masses --      3.7404                 3.0373                 3.3306
 Frc consts  --      0.0014                 0.0017                 0.0093
 IR Inten    --      0.1790                 0.5702                 1.0448

                      4                      5                      6
                      A                      A                      A
 Frequencies --     71.8498                75.1223               111.4642
 Red. masses --      3.6321                 2.7543                 3.2884
 Frc consts  --      0.0110                 0.0092                 0.0241
 IR Inten    --      0.1676                 0.2373                 1.3540

                      7                      8                      9
                      A                      A                      A
 Frequencies --    149.1602               162.4611               196.3707
 Red. masses --      2.6289                 3.0959                 3.1357
 Frc consts  --      0.0345                 0.0481                 0.0712
 IR Inten    --      0.9144                 0.8222                 1.1497

                     10                     11                     12
                      A                      A                      A
 Frequencies --    210.3880               228.2977               236.6598
 Red. masses --      3.6051                 3.6393                 1.4942
 Frc consts  --      0.0940                 0.1118                 0.0493
 IR Inten    --      2.1178                 0.5465                 0.7613

                     13                     14                     15
                      A                      A                      A
 Frequencies --    246.1509               262.8216               265.4046
 Red. masses --      2.3398                 1.8766                 1.1464
 Frc consts  --      0.0835                 0.0764                 0.0476
 IR Inten    --      0.9012                 0.6606                 1.0805

                     16                     17                     18
                      A                      A                      A
 Frequencies --    273.7230               325.2375               357.2096
 Red. masses --      1.5908                 2.1329                 2.6995
 Frc consts  --      0.0702                 0.1329                 0.2029
 IR Inten    --      0.5796                 1.9364                 1.4527

                     19                     20                     21
                      A                      A                      A
 Frequencies --    388.1030               403.3678               447.9781
 Red. masses --      3.0292                 2.8671                 3.0461
 Frc consts  --      0.2688                 0.2749                 0.3602
 IR Inten    --      3.0084                 2.4188                 7.4337

                     22                     23                     24
                      A                      A                      A
 Frequencies --    468.1652               491.2067               544.2656
 Red. masses --      3.9935                 3.3583                 3.2468
 Frc consts  --      0.5157                 0.4774                 0.5667
 IR Inten    --      1.3456                 2.5624                 1.6345

                     25                     26                     27
                      A                      A                      A
 Frequencies --    577.3100               610.3217               629.9756
 Red. masses --      3.4442                 4.7044                 6.4466
 Frc consts  --      0.6763                 1.0325                 1.5074
 IR Inten    --      0.1410                 6.2300                 0.3139

                     28                     29                     30
                      A                      A                      A
 Frequencies --    670.4594               679.8285               689.1951
 Red. masses --      1.3027                 2.9600                 1.7673
 Frc consts  --      0.3450                 0.8060                 0.4946
 IR Inten    --      6.9083                20.8780               105.9770

                     31                     32                     33
                      A                      A                      A
 Frequencies --    716.2852               736.9280               747.6801
 Red. masses --      3.9633                 4.3824                 1.8441
 Frc consts  --      1.1980                 1.4022                 0.6074
 IR Inten    --      3.6048                 8.6589                34.8541

                     34                     35                     36
                      A                      A                      A
 Frequencies --    758.7371               779.8479               827.6601
 Red. masses --      2.5932                 3.2806                 1.1380
 Frc consts  --      0.8796                 1.1755                 0.4593
 IR Inten    --     29.5654                13.3404                 0.6588

                     37                     38                     39
                      A                      A                      A
 Frequencies --    842.6516               852.4840               902.2728
 Red. masses --      1.4572                 3.1826                 1.8732
 Frc consts  --      0.6096                 1.3627                 0.8985
 IR Inten    --      2.0883                 1.3982                 9.5625

                     40                     41                     42
                      A                      A                      A
 Frequencies --    915.4550               920.7545               929.9279
 Red. masses --      2.1812                 1.2951                 1.9762
 Frc consts  --      1.0770                 0.6469                 1.0069
 IR Inten    --      7.1431                 0.4486                 6.1531

                     43                     44                     45
                      A                      A                      A
 Frequencies --    935.4863               946.4534               975.0481
 Red. masses --      2.9194                 1.2476                 1.2458
 Frc consts  --      1.5053                 0.6585                 0.6978
 IR Inten    --      2.1525                 1.1200                 0.1129

                     46                     47                     48
                      A                      A                      A
 Frequencies --    980.4806               993.4734              1025.4345
 Red. masses --      1.4352                 2.0086                 2.4955
 Frc consts  --      0.8129                 1.1680                 1.5460
 IR Inten    --      0.4176                 1.5245                 2.8452

                     49                     50                     51
                      A                      A                      A
 Frequencies --   1041.6957              1047.6324              1080.3517
 Red. masses --      2.8602                 2.9051                 1.7419
 Frc consts  --      1.8287                 1.8786                 1.1979
 IR Inten    --      2.2199                 1.4448                21.7296

                     52                     53                     54
                      A                      A                      A
 Frequencies --   1132.1635              1138.9510              1155.3573
 Red. masses --      2.3026                 2.3142                 1.5901
 Frc consts  --      1.7390                 1.7687                 1.2506
 IR Inten    --     19.8526                 9.2414                 9.0570

                     55                     56                     57
                      A                      A                      A
 Frequencies --   1161.1205              1171.8384              1183.9880
 Red. masses --      2.1543                 1.2412                 1.5383
 Frc consts  --      1.7112                 1.0042                 1.2705
 IR Inten    --     34.1628                13.2265                13.4861

                     58                     59                     60
                      A                      A                      A
 Frequencies --   1196.7849              1217.6990              1230.6048
 Red. masses --      2.1167                 1.8264                 1.6729
 Frc consts  --      1.7863                 1.5956                 1.4927
 IR Inten    --      0.6572                17.4638                15.1100

                     61                     62                     63
                      A                      A                      A
 Frequencies --   1270.2637              1290.7467              1296.8211
 Red. masses --      3.1539                 1.3523                 2.0912
 Frc consts  --      2.9984                 1.3274                 2.0721
 IR Inten    --     10.4176                 3.9050                19.3758

                     64                     65                     66
                      A                      A                      A
 Frequencies --   1323.6031              1339.5681              1361.4157
 Red. masses --      1.4131                 3.1324                 1.2842
 Frc consts  --      1.4587                 3.3118                 1.4023
 IR Inten    --      0.7269               100.1405                 6.5646

                     67                     68                     69
                      A                      A                      A
 Frequencies --   1375.9246              1390.0695              1398.3356
 Red. masses --      1.2698                 1.3985                 2.0110
 Frc consts  --      1.4164                 1.5921                 2.3168
 IR Inten    --     20.3619                 9.2166                32.3510

                     70                     71                     72
                      A                      A                      A
 Frequencies --   1410.8343              1414.0036              1423.1405
 Red. masses --      1.9537                 1.5049                 1.2636
 Frc consts  --      2.2912                 1.7728                 1.5079
 IR Inten    --      4.7291                 3.6065                 5.0868

                     73                     74                     75
                      A                      A                      A
 Frequencies --   1437.0244              1441.7928              1449.7714
 Red. masses --      1.4197                 1.3866                 1.2850
 Frc consts  --      1.7274                 1.6982                 1.5913
 IR Inten    --     10.4228                 4.2459                 4.8115

                     76                     77                     78
                      A                      A                      A
 Frequencies --   1502.2721              1506.4868              1519.5156
 Red. masses --      1.1916                 2.9034                 1.0642
 Frc consts  --      1.5845                 3.8823                 1.4477
 IR Inten    --     34.4917                 4.5676                 5.6470

                     79                     80                     81
                      A                      A                      A
 Frequencies --   1519.9169              1525.7670              1528.5245
 Red. masses --      1.0471                 1.0922                 1.0551
 Frc consts  --      1.4252                 1.4981                 1.4524
 IR Inten    --      5.6154                24.5850                 1.4849

                     82                     83                     84
                      A                      A                      A
 Frequencies --   1531.2232              1536.8616              1540.2584
 Red. masses --      1.0578                 1.0831                 5.1451
 Frc consts  --      1.4612                 1.5073                 7.1917
 IR Inten    --      1.6513                 0.6128                26.5379

                     85                     86                     87
                      A                      A                      A
 Frequencies --   1546.2937              1557.5308              1569.0978
 Red. masses --      1.0721                 1.0905                 4.8299
 Frc consts  --      1.5103                 1.5586                 7.0063
 IR Inten    --      8.3720                 2.8632                13.0082

                     88                     89                     90
                      A                      A                      A
 Frequencies --   1585.1267              1689.7125              1708.7132
 Red. masses --      4.8104                 6.2519                 7.0816
 Frc consts  --      7.1213                10.5170                12.1821
 IR Inten    --      5.0068                18.2848                 1.8570

                     91                     92                     93
                      A                      A                      A
 Frequencies --   2948.4067              3036.9037              3045.0192
 Red. masses --      1.0722                 1.0663                 1.0424
 Frc consts  --      5.4914                 5.7941                 5.6949
 IR Inten    --     92.0944                41.8466                22.0451

                     94                     95                     96
                      A                      A                      A
 Frequencies --   3046.5716              3047.7452              3054.2428
 Red. masses --      1.0493                 1.0679                 1.0453
 Frc consts  --      5.7379                 5.8444                 5.7453
 IR Inten    --     31.5266                 8.5450                37.5691

                     97                     98                     99
                      A                      A                      A
 Frequencies --   3054.9960              3088.7670              3109.2749
 Red. masses --      1.0768                 1.0967                 1.0992
 Frc consts  --      5.9214                 6.1646                 6.2610
 IR Inten    --     22.0440                36.0275                52.6856

                    100                    101                    102
                      A                      A                      A
 Frequencies --   3112.7795              3115.4038              3131.8280
 Red. masses --      1.0996                 1.1013                 1.1011
 Frc consts  --      6.2773                 6.2979                 6.3633
 IR Inten    --     19.5407                39.8729                 6.0461

                    103                    104                    105
                      A                      A                      A
 Frequencies --   3134.0850              3136.4088              3171.3360
 Red. masses --      1.1029                 1.0998                 1.0875
 Frc consts  --      6.3825                 6.3740                 6.4441
 IR Inten    --     30.0769                53.6827                13.1250

                    106                    107                    108
                      A                      A                      A
 Frequencies --   3209.0482              3224.4129              3236.6835
 Red. masses --      1.0876                 1.0889                 1.0944
 Frc consts  --      6.5987                 6.6701                 6.7552
 IR Inten    --      5.3342                 3.6859                 6.9660

                    109                    110                    111
                      A                      A                      A
 Frequencies --   3242.0165              3315.0659              3511.5128
 Red. masses --      1.0981                 1.0961                 1.0740
 Frc consts  --      6.8000                 7.0974                 7.8029
 IR Inten    --      8.8035                 0.2460                 0.4012

 - Thermochemistry -
 -------------------
 Temperature   298.150 Kelvin.  Pressure   1.00000 Atm.
 Atom     1 has atomic number  6 and mass  12.00000

 Molecular mass:   243.17355 amu.
 Principal axes and moments of inertia in atomic units:
                           1         2         3
     Eigenvalues --  1651.97001********************
           X            0.99999   0.00145  -0.00298
           Y           -0.00142   0.99996   0.00826
           Z            0.00300  -0.00826   0.99996
 This molecule is an asymmetric top.
 Rotational symmetry number  1.
 Warning -- assumption of classical behavior for rotation
           may cause significant error
 Rotational temperatures (Kelvin)      0.05243     0.00804     0.00762
 Rotational constants (GHZ):           1.09248     0.16756     0.15873
 Zero-point vibrational energy     893647.4 (Joules/Mol)
                                  213.58685 (Kcal/Mol)
 Warning -- explicit consideration of  26 degrees of freedom as
           vibrations may cause significant error
 Vibrational temperatures:     36.15    44.84    99.30   103.38   108.08
          (Kelvin)            160.37   214.61   233.75   282.53   302.70
                              328.47   340.50   354.16   378.14   381.86
                              393.83   467.94   513.95   558.39   580.36
                              644.54   673.59   706.74   783.08   830.62
                              878.12   906.39   964.64   978.12   991.60
                             1030.57  1060.27  1075.74  1091.65  1122.03
                             1190.82  1212.39  1226.53  1298.17  1317.14
                             1324.76  1337.96  1345.96  1361.74  1402.88
                             1410.69  1429.39  1475.37  1498.77  1507.31
                             1554.39  1628.93  1638.70  1662.30  1670.59
                             1686.01  1703.49  1721.91  1752.00  1770.57
                             1827.63  1857.10  1865.84  1904.37  1927.34
                             1958.77  1979.65  2000.00  2011.89  2029.88
                             2034.44  2047.58  2067.56  2074.42  2085.90
                             2161.43  2167.50  2186.24  2186.82  2195.24
                             2199.21  2203.09  2211.20  2216.09  2224.77
                             2240.94  2257.58  2280.64  2431.12  2458.46
                             4242.10  4369.43  4381.10  4383.34  4385.03
                             4394.37  4395.46  4444.05  4473.55  4478.60
                             4482.37  4506.00  4509.25  4512.59  4562.85
                             4617.10  4639.21  4656.87  4664.54  4769.64
                             5052.28

 Zero-point correction=                           0.340372 (Hartree/Particle)
 Thermal correction to Energy=                    0.358040
 Thermal correction to Enthalpy=                  0.358985
 Thermal correction to Gibbs Free Energy=         0.294009
 Sum of electronic and zero-point Energies=           -748.205899
 Sum of electronic and thermal Energies=              -748.188231
 Sum of electronic and thermal Enthalpies=            -748.187287
 Sum of electronic and thermal Free Energies=         -748.252262

                     E (Thermal)             CV                S
                      KCal/Mol        Cal/Mol-Kelvin    Cal/Mol-Kelvin
 Total                  224.674             68.153            136.753
 Electronic               0.000              0.000              0.000
 Translational            0.889              2.981             42.367
 Rotational               0.889              2.981             33.669
 Vibrational            222.896             62.192             60.717
 Vibration     1          0.593              1.985              6.181
 Vibration     2          0.594              1.983              5.754
 Vibration     3          0.598              1.969              4.181
 Vibration     4          0.598              1.967              4.102
 Vibration     5          0.599              1.966              4.014
 Vibration     6          0.607              1.940              3.243
 Vibration     7          0.618              1.904              2.683
 Vibration     8          0.623              1.888              2.521
 Vibration     9          0.636              1.845              2.167
 Vibration    10          0.643              1.825              2.040
 Vibration    11          0.651              1.798              1.892
 Vibration    12          0.656              1.785              1.828
 Vibration    13          0.661              1.769              1.758
 Vibration    14          0.670              1.741              1.643
 Vibration    15          0.671              1.736              1.626
 Vibration    16          0.676              1.722              1.573
 Vibration    17          0.709              1.625              1.284
 Vibration    18          0.732              1.560              1.134
 Vibration    19          0.756              1.496              1.007
 Vibration    20          0.769              1.463              0.950
 Vibration    21          0.807              1.365              0.802
 Vibration    22          0.825              1.321              0.743
 Vibration    23          0.847              1.270              0.680
 Vibration    24          0.899              1.152              0.556
 Vibration    25          0.934              1.080              0.490
 Vibration    26          0.969              1.010              0.432

 Optimization completed.
    -- Stationary point found.
 Normal termination of Gaussian 16 at Fri Dec 11 20:53:43 2020.

 ----------------------------------------------------------------------
 # B3LYP/6-311++G(d,p) empiricaldispersion=gd3bj scf=xqc pop=npa geom=c
 heck
 ----------------------------------------------------------------------

 --------------------------------------
 CID_79338977_JID_8401_Energie_neutraal
 --------------------------------------
 Structure from the checkpoint file:  "JID_8401.chk"
 Charge =  0 Multiplicity = 1

 SCF Done:  E(RB3LYP) =  -748.746442600     A.U. after   16 cycles
 Normal termination of Gaussian 16 at Fri Dec 11 21:02:15 2020.

 ----------------------------------------------------------------------
 # B3LYP/6-311++G(d,p) empiricaldispersion=gd3bj scf=xqc pop=npa geom=c
 heck
 ----------------------------------------------------------------------

 ------------------------------------
 CID_79338977_JID_8401_Energie_kation
 ------------------------------------
 Structure from the checkpoint file:  "JID_8401.chk"
 Charge =  1 Multiplicity = 2

 SCF Done:  E(UB3LYP) =  -748.481809346     A.U. after   26 cycles
 Normal termination of Gaussian 16 at Fri Dec 11 21:21:42 2020.
 Gaussian 16:  ES64L-G16RevA.03 25-Dec-2016

 ----------------------------------------------------------------------
 # B3LYP/6-311++G(d,p) empiricaldispersion=gd3bj scf=xqc pop=npa geom=c
 heck
 ----------------------------------------------------------------------

 -----------------------------------
 CID_79338977_JID_8401_Energie_anion
 -----------------------------------
 Structure from the checkpoint file:  "JID_8401.chk"
 Charge = -1 Multiplicity = 2

                         Standard orientation:
 ---------------------------------------------------------------------
 Center     Atomic      Atomic             Coordinates (Angstroms)
 Number     Number       Type             X           Y           Z
 ---------------------------------------------------------------------
      1          6           0        5.662310   -0.583861   -1.605792
      2          6           0        4.810414   -0.247216   -0.384521
      3          7           0        3.678499   -1.158816   -0.293332
      4          6           0        2.809197   -1.070770    0.890533
      5          6           0        1.519508   -0.292503    0.692767
      6          6           0        0.389866   -1.011136    0.516207
      7          6           0       -0.978352   -0.580008    0.261597
      8          6           0       -1.506466    0.647010   -0.139826
      9          7           0       -2.866737    0.461333   -0.237132
     10          6           0       -3.873886    1.323999   -0.591081
     11          6           0       -5.163881    0.874359   -0.608286
     12          6           0       -5.460893   -0.474701   -0.262523
     13          6           0       -4.453738   -1.339590    0.089927
     14          6           0       -3.115234   -0.884860    0.109265
     15          7           0       -1.984191   -1.511727    0.402898
     16          6           0        1.529918    1.227350    0.661436
     17          6           0        2.536843    1.858334    1.635336
     18          6           0        1.727249    1.771510   -0.767954
     19          1           0        5.994123   -1.625913   -1.565008
     20          1           0        6.541150    0.067930   -1.661414
     21          1           0        5.089104   -0.447906   -2.531828
     22          1           0        5.409193   -0.372423    0.526819
     23          1           0        4.534603    0.822639   -0.427331
     24          1           0        3.116200   -1.125007   -1.140164
     25          1           0        2.540541   -2.089799    1.196887
     26          1           0        3.404790   -0.648854    1.707575
     27          1           0        0.458279   -2.094521    0.591742
     28          1           0       -1.058650    1.591482   -0.397411
     29          1           0       -3.576905    2.335724   -0.840239
     30          1           0       -5.955870    1.559757   -0.887834
     31          1           0       -6.491088   -0.815036   -0.279757
     32          1           0       -4.641079   -2.372826    0.358360
     33          1           0        0.536867    1.548499    0.998371
     34          1           0        3.572912    1.668861    1.339404
     35          1           0        2.396735    2.944887    1.664730
     36          1           0        2.398937    1.474257    2.652164
     37          1           0        0.992813    1.344480   -1.458566
     38          1           0        1.624325    2.863702   -0.785775
     39          1           0        2.722884    1.527037   -1.150266
 ---------------------------------------------------------------------

 SCF Done:  E(UB3LYP) =  -748.747012714     A.U. after   33 cycles
 SCF Done:  E(UB3LYP) =  -748.747012714     a.u. after    1 cycles

 The electronic state is 2-A.
 Alpha  occ. eigenvalues --  -14.25983 -14.19300 -14.15621 -10.10202 -10.09842
 Alpha  occ. eigenvalues --  -10.08529 -10.07897 -10.07315 -10.07203 -10.07087
 Alpha  occ. eigenvalues --  -10.06925 -10.06290 -10.05906 -10.05145 -10.04909
 Alpha  occ. eigenvalues --  -10.04818 -10.04244 -10.03727  -0.90073  -0.80232
 Alpha  occ. eigenvalues --   -0.77659  -0.71318  -0.69984  -0.66251  -0.64598
 Alpha  occ. eigenvalues --   -0.62056  -0.60630  -0.58834  -0.55881  -0.51998
 Alpha  occ. eigenvalues --   -0.51195  -0.50533  -0.48519  -0.46923  -0.41808
 Alpha  occ. eigenvalues --   -0.40196  -0.38338  -0.37978  -0.36807  -0.35731
 Alpha  occ. eigenvalues --   -0.34675  -0.34219  -0.33645  -0.33299  -0.32211
 Alpha  occ. eigenvalues --   -0.31675  -0.31341  -0.29693  -0.29257  -0.28729
 Alpha  occ. eigenvalues --   -0.28382  -0.27624  -0.26010  -0.25760  -0.24721
 Alpha  occ. eigenvalues --   -0.24524  -0.23925  -0.22762  -0.22535  -0.21351
 Alpha  occ. eigenvalues --   -0.19626  -0.16221  -0.14872  -0.12303  -0.09985
 Alpha  occ. eigenvalues --   -0.08672   0.04250
 Alpha virt. eigenvalues --    0.05911   0.07112   0.07761   0.08043   0.08799
 Alpha virt. eigenvalues --    0.09133   0.09321   0.10122   0.10449   0.10611
 Alpha virt. eigenvalues --    0.11088   0.11466   0.12090   0.12687   0.12720

  Beta  occ. eigenvalues --  -14.25952 -14.19273 -14.15507 -10.10250 -10.09830
  Beta  occ. eigenvalues --  -10.08539 -10.07570 -10.07346 -10.07215 -10.07068
  Beta  occ. eigenvalues --  -10.06829 -10.06280 -10.05875 -10.05124 -10.04819
  Beta  occ. eigenvalues --  -10.04626 -10.04221 -10.03431  -0.89928  -0.80172
  Beta  occ. eigenvalues --   -0.77394  -0.71158  -0.69663  -0.66182  -0.64420
  Beta  occ. eigenvalues --   -0.61671  -0.60436  -0.58790  -0.55736  -0.51782
  Beta  occ. eigenvalues --   -0.51115  -0.50277  -0.48359  -0.46823  -0.41647
  Beta  occ. eigenvalues --   -0.40043  -0.38241  -0.37883  -0.36686  -0.35634
  Beta  occ. eigenvalues --   -0.34551  -0.34158  -0.33515  -0.32909  -0.32069
  Beta  occ. eigenvalues --   -0.31608  -0.31253  -0.29648  -0.29169  -0.28686
  Beta  occ. eigenvalues --   -0.28334  -0.27566  -0.25886  -0.25716  -0.24653
  Beta  occ. eigenvalues --   -0.24424  -0.23808  -0.22667  -0.21795  -0.21184
  Beta  occ. eigenvalues --   -0.18667  -0.15490  -0.14735  -0.12154  -0.09021
  Beta  occ. eigenvalues --   -0.07923
  Beta virt. eigenvalues --    0.06150   0.07169   0.07716   0.08074   0.08685
  Beta virt. eigenvalues --    0.09075   0.09231   0.09422   0.10118   0.10508
  Beta virt. eigenvalues --    0.10945   0.11063   0.11401   0.12042   0.12597

 Mulliken charges and spin densities:
               1          2
     1  C    0.289335  -0.819751
     2  C   -0.386382   0.156652
     3  N    0.013567   0.007286
     4  C   -0.902037   0.162674
     5  C    0.574409  -0.042639
     6  C   -0.254331  -0.118950
     7  C    0.039259  -0.042076
     8  C    0.108662  -0.100715
     9  N    0.197735  -0.005674
    10  C   -0.153544   0.233412
    11  C   -0.190985   0.025594
    12  C   -0.577699   0.054046
    13  C   -0.355296   0.263318
    14  C    0.126223  -0.081921
    15  N   -0.060996   0.048572
    16  C   -0.106609   0.586549
    17  C   -0.535770  -0.212118
    18  C   -0.417853  -0.448812
    19  H    0.060187   0.093390
    20  H   -0.176121   0.297113
    21  H   -0.008634   0.129651
    22  H   -0.023216   0.163681
    23  H    0.063660   0.008793
    24  H    0.230820  -0.029826
    25  H    0.114450   0.069923
    26  H    0.085002   0.014185
    27  H    0.170177   0.001862
    28  H    0.245583  -0.015417
    29  H    0.035240   0.025766
    30  H    0.129541   0.003448
    31  H    0.117192  -0.006429
    32  H    0.142758  -0.017044
    33  H    0.096623   0.080783
    34  H    0.028741   0.103553
    35  H    0.044976   0.086962
    36  H    0.136170   0.009448
    37  H    0.132532   0.021052
    38  H   -0.072565   0.200140
    39  H    0.039195   0.093516
 Sum of Mulliken charges =  -1.00000   1.00000

 Dipole moment (field-independent basis, Debye):
    X=              1.1779    Y=              2.5104    Z=              0.1571  Tot=              2.7774
 Quadrupole moment (field-independent basis, Debye-Ang):
   XX=           -200.6785   YY=           -135.4559   ZZ=           -129.1474
   XY=             -4.1093   XZ=              6.8690   YZ=              0.9998

 Summary of Natural Population Analysis:

                                       Natural Population
                Natural  -----------------------------------------------
    Atom  No    Charge         Core      Valence    Rydberg      Total
 -----------------------------------------------------------------------
      C    1   -0.28613      0.99967     2.28178    0.00468     3.28613
      C    2   -0.08758      0.99964     2.07661    0.01133     3.08758
      N    3   -0.34253      0.99974     2.83083    0.01195     3.84253
      C    4   -0.09693      0.99958     2.08493    0.01242     3.09693
      C    5    0.02503      0.99947     1.96641    0.00908     2.97497
      C    6   -0.10342      0.99946     2.09411    0.00986     3.10342
      C    7    0.06746      0.99955     1.92003    0.01296     2.93254
      C    8   -0.06073      0.99953     2.05092    0.01028     3.06073
      N    9   -0.17881      0.99961     2.67111    0.00808     3.67881
      C   10    0.06520      0.99957     1.92405    0.01118     2.93480
      C   11   -0.13398      0.99958     2.12527    0.00912     3.13398
      C   12   -0.09517      0.99958     2.08566    0.00993     3.09517
      C   13   -0.06597      0.99953     2.05776    0.00868     3.06597
      C   14    0.17468      0.99959     1.81042    0.01531     2.82532
      N   15   -0.25275      0.99969     2.74219    0.01087     3.75275
      C   16   -0.13280      0.99957     2.12413    0.00910     3.13280
      C   17   -0.28190      0.99965     2.27740    0.00485     3.28190
      C   18   -0.28271      0.99964     2.27634    0.00673     3.28271
      H   19    0.09874      0.00000     0.39972    0.00153     0.40126
      H   20    0.09724      0.00000     0.40160    0.00116     0.40276
      H   21    0.09383      0.00000     0.40482    0.00135     0.40617
      H   22    0.08727      0.00000     0.41136    0.00137     0.41273
      H   23    0.07548      0.00000     0.42256    0.00196     0.42452
      H   24    0.17316      0.00000     0.32411    0.00273     0.32684
      H   25    0.09250      0.00000     0.40607    0.00143     0.40750
      H   26    0.09161      0.00000     0.40691    0.00147     0.40839
      H   27    0.09825      0.00000     0.39940    0.00235     0.40175
      H   28    0.10042      0.00000     0.39847    0.00111     0.39958
      H   29    0.08922      0.00000     0.40965    0.00113     0.41078
      H   30    0.09626      0.00000     0.40291    0.00083     0.40374
      H   31    0.09173      0.00000     0.40730    0.00097     0.40827
      H   32    0.09952      0.00000     0.39965    0.00084     0.40048
      H   33    0.10273      0.00000     0.39493    0.00234     0.39727
      H   34    0.09537      0.00000     0.40361    0.00102     0.40463
      H   35    0.09590      0.00000     0.40324    0.00085     0.40410
      H   36    0.09836      0.00000     0.40083    0.00081     0.40164
      H   37    0.10235      0.00000     0.39675    0.00090     0.39765
      H   38    0.09364      0.00000     0.40546    0.00090     0.40636
      H   39    0.09545      0.00000     0.40358    0.00098     0.40455
 =======================================================================
   * Total *    0.00000     17.99267    47.80287    0.20446    66.00000

 Normal termination of Gaussian 16 at Fri Dec 11 21:46:05 2020.
