 Gaussian 16, Revision A.03,

 -----------------------------------------------------------
 # opt freq B3LYP/6-31G(d) empiricaldispersion=gd3bj scf=xqc
 -----------------------------------------------------------

 ----------------------------
 CID_250895_JID_4493_neutraal
 ----------------------------
 Symbolic Z-matrix:
 Charge =  0 Multiplicity = 1

 SCF Done:  E(RB3LYP) =  -1484.70566796     A.U. after   15 cycles
 SCF Done:  E(RB3LYP) =  -1484.70885528     A.U. after   13 cycles
 SCF Done:  E(RB3LYP) =  -1484.71149414     A.U. after   13 cycles
 SCF Done:  E(RB3LYP) =  -1484.71232194     A.U. after   12 cycles
 SCF Done:  E(RB3LYP) =  -1484.71257525     A.U. after   11 cycles
 SCF Done:  E(RB3LYP) =  -1484.71271025     A.U. after   12 cycles
 SCF Done:  E(RB3LYP) =  -1484.71273644     A.U. after   10 cycles
 SCF Done:  E(RB3LYP) =  -1484.71274951     A.U. after   10 cycles
 SCF Done:  E(RB3LYP) =  -1484.71275544     A.U. after    9 cycles
 SCF Done:  E(RB3LYP) =  -1484.71275928     A.U. after   10 cycles
 SCF Done:  E(RB3LYP) =  -1484.71294383     A.U. after   11 cycles
 SCF Done:  E(RB3LYP) =  -1484.71295182     A.U. after   10 cycles
 SCF Done:  E(RB3LYP) =  -1484.71295466     A.U. after   10 cycles
 SCF Done:  E(RB3LYP) =  -1484.71295598     A.U. after    8 cycles
 SCF Done:  E(RB3LYP) =  -1484.71295647     A.U. after   11 cycles
 SCF Done:  E(RB3LYP) =  -1484.71295671     A.U. after    8 cycles
 Optimization completed.
    -- Stationary point found.
 Normal termination of Gaussian 16 at Thu Dec 10 10:15:33 2020.

 --------------------------------------------------------------------
 #N Geom=AllCheck Guess=TCheck SCRF=Check GenChk RB3LYP/6-31G(d) Freq
 --------------------------------------------------------------------

 Structure from the checkpoint file:  "JID_4493.chk"
 ----------------------------
 CID_250895_JID_4493_neutraal
 ----------------------------
 Charge =  0 Multiplicity = 1

 SCF Done:  E(RB3LYP) =  -1484.71295671     A.U. after    1 cycles

  Exact polarizability: 120.121  -3.195 121.967  -3.370   0.181  94.758
 Approx polarizability: 167.826  -0.480 161.189  -8.006   2.053 165.138

                      1                      2                      3
                      A                      A                      A
 Frequencies --     23.4539                34.5797                37.7255
 Red. masses --      3.7757                 3.3831                 6.1501
 Frc consts  --      0.0012                 0.0024                 0.0052
 IR Inten    --      0.6419                 0.9070                 5.0762

                      4                      5                      6
                      A                      A                      A
 Frequencies --     58.6837                79.9737                90.8431
 Red. masses --      3.2884                 5.3032                 2.7135
 Frc consts  --      0.0067                 0.0200                 0.0132
 IR Inten    --      0.2147                 0.9567                 1.5345

                      7                      8                      9
                      A                      A                      A
 Frequencies --    105.3849               136.1485               164.3042
 Red. masses --      4.2657                 5.7704                 4.2551
 Frc consts  --      0.0279                 0.0630                 0.0677
 IR Inten    --      0.4173                 5.8137                 0.4412

                     10                     11                     12
                      A                      A                      A
 Frequencies --    214.2137               216.3681               248.1736
 Red. masses --      1.7578                 1.9972                 3.9736
 Frc consts  --      0.0475                 0.0551                 0.1442
 IR Inten    --      1.6323                 7.8244                 1.8120

                     13                     14                     15
                      A                      A                      A
 Frequencies --    266.4816               276.1851               295.2284
 Red. masses --      1.5516                 2.0238                 2.4555
 Frc consts  --      0.0649                 0.0910                 0.1261
 IR Inten    --      3.4874                 3.8221                 3.0622

                     16                     17                     18
                      A                      A                      A
 Frequencies --    312.5353               339.1404               386.9951
 Red. masses --      2.7589                 4.4481                 4.6438
 Frc consts  --      0.1588                 0.3014                 0.4098
 IR Inten    --      3.3686                 2.6423                18.2387

                     19                     20                     21
                      A                      A                      A
 Frequencies --    429.0138               471.5069               477.1851
 Red. masses --      4.0230                 5.4752                 8.2867
 Frc consts  --      0.4363                 0.7172                 1.1117
 IR Inten    --     20.0974                 9.1846                31.1335

                     22                     23                     24
                      A                      A                      A
 Frequencies --    485.9304               505.4846               522.1811
 Red. masses --      9.1332                 4.7920                 4.1957
 Frc consts  --      1.2706                 0.7214                 0.6741
 IR Inten    --      5.5437                 7.0977                 9.7854

                     25                     26                     27
                      A                      A                      A
 Frequencies --    569.7864               667.9268               689.3586
 Red. masses --      3.9642                 5.8436                 5.3066
 Frc consts  --      0.7583                 1.5360                 1.4858
 IR Inten    --     14.9300                14.2220                42.1849

                     28                     29                     30
                      A                      A                      A
 Frequencies --    731.7378               769.1815               819.4309
 Red. masses --      4.4321                 5.7753                 1.1424
 Frc consts  --      1.3982                 2.0132                 0.4519
 IR Inten    --     40.6625               192.4165                 0.2251

                     31                     32                     33
                      A                      A                      A
 Frequencies --    821.2138               895.7962               908.5763
 Red. masses --      1.1359                 3.2538                 3.2090
 Frc consts  --      0.4513                 1.5384                 1.5608
 IR Inten    --      0.2108                57.8490               290.6112

                     34                     35                     36
                      A                      A                      A
 Frequencies --    909.8845               925.6030              1032.9946
 Red. masses --      2.0504                 1.8275                 3.4785
 Frc consts  --      1.0001                 0.9225                 2.1869
 IR Inten    --     14.6415                 0.2989                61.0401

                     37                     38                     39
                      A                      A                      A
 Frequencies --   1039.7433              1067.9696              1126.2570
 Red. masses --      3.8918                 2.9948                 1.9683
 Frc consts  --      2.4788                 2.0125                 1.4710
 IR Inten    --    258.9444                 0.0815                17.0026

                     40                     41                     42
                      A                      A                      A
 Frequencies --   1127.4651              1131.2892              1145.0480
 Red. masses --      2.2320                 3.7354                 6.6325
 Frc consts  --      1.6717                 2.8166                 5.1236
 IR Inten    --     52.9660               202.0763                 1.4888

                     43                     44                     45
                      A                      A                      A
 Frequencies --   1172.1790              1197.2955              1207.6054
 Red. masses --      1.2208                 1.6024                 1.6304
 Frc consts  --      0.9883                 1.3534                 1.4009
 IR Inten    --     29.2394                10.3354                25.8243

                     46                     47                     48
                      A                      A                      A
 Frequencies --   1244.7106              1314.0712              1322.9665
 Red. masses --      1.1797                 3.9683                 2.4923
 Frc consts  --      1.0769                 4.0373                 2.5701
 IR Inten    --      1.4974                44.2600               203.6921

                     49                     50                     51
                      A                      A                      A
 Frequencies --   1331.6510              1332.0452              1351.4028
 Red. masses --      1.1567                 1.2930                 1.7276
 Frc consts  --      1.2085                 1.3517                 1.8590
 IR Inten    --     18.3482                47.2666                99.0000

                     52                     53                     54
                      A                      A                      A
 Frequencies --   1371.2173              1411.9956              1415.2795
 Red. masses --      1.8316                 1.2261                 1.2330
 Frc consts  --      2.0291                 1.4403                 1.4552
 IR Inten    --      4.2084                 4.2932                11.9653

                     55                     56                     57
                      A                      A                      A
 Frequencies --   1443.5048              1450.2115              1472.2138
 Red. masses --      1.2897                 1.2699                 1.0884
 Frc consts  --      1.5833                 1.5735                 1.3899
 IR Inten    --     11.5127                26.5236                12.2888

                     58                     59                     60
                      A                      A                      A
 Frequencies --   1473.5083              1511.7901              1516.9549
 Red. masses --      1.0830                 1.0416                 1.0443
 Frc consts  --      1.3854                 1.4026                 1.4159
 IR Inten    --     10.9446                 5.9529                 3.1352

                     61                     62                     63
                      A                      A                      A
 Frequencies --   1522.2323              1528.1575              1533.8606
 Red. masses --      1.0629                 1.0526                 1.0749
 Frc consts  --      1.4511                 1.4483                 1.4900
 IR Inten    --      0.7564                 2.9605                 6.3645

                     64                     65                     66
                      A                      A                      A
 Frequencies --   1545.2312              3064.1886              3067.4255
 Red. masses --      1.0750                 1.0366                 1.0389
 Frc consts  --      1.5123                 5.7346                 5.7594
 IR Inten    --      5.2624                 8.9091                14.6688

                     67                     68                     69
                      A                      A                      A
 Frequencies --   3087.2290              3099.5220              3100.8321
 Red. masses --      1.0619                 1.0603                 1.0618
 Frc consts  --      5.9632                 6.0017                 6.0151
 IR Inten    --     18.7213                15.3166                 3.4338

                     70                     71                     72
                      A                      A                      A
 Frequencies --   3106.8084              3134.8486              3137.8068
 Red. masses --      1.0612                 1.0995                 1.1037
 Frc consts  --      6.0348                 6.3663                 6.4026
 IR Inten    --      0.2289                27.3294                11.2915

                     73                     74                     75
                      A                      A                      A
 Frequencies --   3139.9794              3140.7076              3162.6843
 Red. masses --      1.1043                 1.1004                 1.1079
 Frc consts  --      6.4150                 6.3954                 6.5294
 IR Inten    --      5.2918                22.0144                20.3729

                     76                     77                     78
                      A                      A                      A
 Frequencies --   3166.6356              3170.2742              3173.1326
 Red. masses --      1.1056                 1.1049                 1.1033
 Frc consts  --      6.5319                 6.5427                 6.5452
 IR Inten    --      0.4306                13.8578                 5.7350

 - Thermochemistry -
 -------------------
 Temperature   298.150 Kelvin.  Pressure   1.00000 Atm.
 Atom     1 has atomic number  6 and mass  12.00000

 Molecular mass:   246.02318 amu.
 Principal axes and moments of inertia in atomic units:
                           1         2         3
     Eigenvalues --  2221.405254124.051385359.83386
           X            0.99977  -0.02093  -0.00560
           Y            0.02090   0.99977  -0.00383
           Z            0.00568   0.00371   0.99998
 This molecule is an asymmetric top.
 Rotational symmetry number  1.
 Warning -- assumption of classical behavior for rotation
           may cause significant error
 Rotational temperatures (Kelvin)      0.03899     0.02100     0.01616
 Rotational constants (GHZ):           0.81243     0.43761     0.33672
 Zero-point vibrational energy     580064.1 (Joules/Mol)
                                  138.63864 (Kcal/Mol)
 Warning -- explicit consideration of  25 degrees of freedom as
           vibrations may cause significant error
 Vibrational temperatures:     33.74    49.75    54.28    84.43   115.06
          (Kelvin)            130.70   151.63   195.89   236.40   308.21
                              311.31   357.07   383.41   397.37   424.77
                              449.67   487.95   556.80   617.26   678.39
                              686.56   699.15   727.28   751.30   819.80
                              961.00   991.83  1052.81  1106.68  1178.98
                             1181.54  1288.85  1307.24  1309.12  1331.74
                             1486.25  1495.96  1536.57  1620.43  1622.17
                             1627.67  1647.47  1686.50  1722.64  1737.47
                             1790.86  1890.66  1903.45  1915.95  1916.52
                             1944.37  1972.88  2031.55  2036.27  2076.88
                             2086.53  2118.19  2120.05  2175.13  2182.56
                             2190.15  2198.68  2206.88  2223.24  4408.68
                             4413.34  4441.83  4459.52  4461.41  4470.00
                             4510.35  4514.60  4517.73  4518.78  4550.40
                             4556.08  4561.32  4565.43

 Zero-point correction=                           0.220935 (Hartree/Particle)
 Thermal correction to Energy=                    0.237509
 Thermal correction to Enthalpy=                  0.238453
 Thermal correction to Gibbs Free Energy=         0.174622
 Sum of electronic and zero-point Energies=          -1484.492022
 Sum of electronic and thermal Energies=             -1484.475448
 Sum of electronic and thermal Enthalpies=           -1484.474504
 Sum of electronic and thermal Free Energies=        -1484.538335

                     E (Thermal)             CV                S
                      KCal/Mol        Cal/Mol-Kelvin    Cal/Mol-Kelvin
 Total                  149.039             58.620            134.344
 Electronic               0.000              0.000              0.000
 Translational            0.889              2.981             42.401
 Rotational               0.889              2.981             32.263
 Vibrational            147.261             52.658             59.680
 Vibration     1          0.593              1.985              6.318
 Vibration     2          0.594              1.983              5.548
 Vibration     3          0.594              1.982              5.375
 Vibration     4          0.596              1.974              4.501
 Vibration     5          0.600              1.963              3.892
 Vibration     6          0.602              1.956              3.642
 Vibration     7          0.605              1.945              3.352
 Vibration     8          0.614              1.917              2.857
 Vibration     9          0.623              1.886              2.500
 Vibration    10          0.644              1.819              2.007
 Vibration    11          0.645              1.816              1.989
 Vibration    12          0.662              1.766              1.744
 Vibration    13          0.672              1.735              1.619
 Vibration    14          0.678              1.717              1.557
 Vibration    15          0.689              1.683              1.444
 Vibration    16          0.701              1.650              1.349
 Vibration    17          0.719              1.597              1.216
 Vibration    18          0.755              1.498              1.012
 Vibration    19          0.790              1.407              0.862
 Vibration    20          0.828              1.313              0.733
 Vibration    21          0.834              1.301              0.718
 Vibration    22          0.842              1.281              0.694
 Vibration    23          0.861              1.238              0.645
 Vibration    24          0.877              1.201              0.605
 Vibration    25          0.926              1.097              0.505

                           ! Non-Optimized Parameters !
 Normal termination of Gaussian 16 at Thu Dec 10 10:23:29 2020.

 ----------------------------------------------------------------------
 # B3LYP/6-311++G(d,p) empiricaldispersion=gd3bj scf=xqc pop=npa geom=c
 heck
 ----------------------------------------------------------------------

 ------------------------------------
 CID_250895_JID_4493_Energie_neutraal
 ------------------------------------
 Structure from the checkpoint file:  "JID_4493.chk"
 Charge =  0 Multiplicity = 1

 SCF Done:  E(RB3LYP) =  -1484.97175443     A.U. after   15 cycles
 Normal termination of Gaussian 16 at Thu Dec 10 10:27:32 2020.

 ----------------------------------------------------------------------
 # B3LYP/6-311++G(d,p) empiricaldispersion=gd3bj scf=xqc pop=npa geom=c
 heck
 ----------------------------------------------------------------------

 ----------------------------------
 CID_250895_JID_4493_Energie_kation
 ----------------------------------
 Structure from the checkpoint file:  "JID_4493.chk"
 Charge =  1 Multiplicity = 2

 SCF Done:  E(UB3LYP) =  -1484.60129150     A.U. after   25 cycles
 Normal termination of Gaussian 16 at Thu Dec 10 10:38:15 2020.
 Gaussian 16:  ES64L-G16RevA.03 25-Dec-2016

 ----------------------------------------------------------------------
 # B3LYP/6-311++G(d,p) empiricaldispersion=gd3bj scf=xqc pop=npa geom=c
 heck
 ----------------------------------------------------------------------

 ---------------------------------
 CID_250895_JID_4493_Energie_anion
 ---------------------------------
 Structure from the checkpoint file:  "JID_4493.chk"
 Charge = -1 Multiplicity = 2

                         Standard orientation:
 ---------------------------------------------------------------------
 Center     Atomic      Atomic             Coordinates (Angstroms)
 Number     Number       Type             X           Y           Z
 ---------------------------------------------------------------------
      1          6           0        1.117449    2.811822    0.284218
      2          6           0        1.971702    1.991911   -0.663925
      3          8           0        1.435000    0.641878   -0.825083
      4         16           0        2.081272   -0.491873    0.147397
      5          8           0        3.433473   -0.804394   -0.311434
      6          8           0        1.861324   -0.142637    1.552513
      7          6           0        0.990510   -1.858922   -0.327467
      8          6           0       -0.298054   -1.952615    0.475340
      9         16           0       -1.672772   -0.949570   -0.151451
     10          8           0       -1.569870   -0.853594   -1.606239
     11          8           0       -2.906637   -1.437793    0.465861
     12          8           0       -1.274147    0.474798    0.534966
     13          6           0       -2.374248    1.386708    0.827736
     14          6           0       -2.954976    2.010113   -0.429081
     15          1           0        0.090729    2.872153   -0.085717
     16          1           0        1.523667    3.827348    0.356076
     17          1           0        1.108151    2.361247    1.279123
     18          1           0        1.963006    2.396345   -1.678152
     19          1           0        3.013190    1.927472   -0.334165
     20          1           0        0.808710   -1.771041   -1.400776
     21          1           0        1.605405   -2.744149   -0.142863
     22          1           0       -0.694059   -2.970530    0.414675
     23          1           0       -0.155759   -1.688307    1.524867
     24          1           0       -3.128661    0.843782    1.402863
     25          1           0       -1.902322    2.131684    1.471076
     26          1           0       -3.451073    1.261144   -1.052463
     27          1           0       -3.694301    2.769577   -0.150873
     28          1           0       -2.170105    2.486199   -1.024415
 ---------------------------------------------------------------------

 SCF Done:  E(UB3LYP) =  -1484.96169889     A.U. after   26 cycles

 The electronic state is 2-A.
 Alpha  occ. eigenvalues --  -88.99095 -88.99017 -19.08299 -19.08250 -19.03981
 Alpha  occ. eigenvalues --  -19.03871 -19.03854 -19.03755 -10.14977 -10.14941
 Alpha  occ. eigenvalues --  -10.14116 -10.14086 -10.07965 -10.07338  -8.05213
 Alpha  occ. eigenvalues --   -8.05144  -6.01594  -6.01523  -6.01397  -6.01324
 Alpha  occ. eigenvalues --   -6.01263  -6.01196  -1.06192  -1.05954  -0.95658
 Alpha  occ. eigenvalues --   -0.95539  -0.93104  -0.92937  -0.75167  -0.69617
 Alpha  occ. eigenvalues --   -0.68461  -0.63930  -0.58688  -0.56394  -0.51397
 Alpha  occ. eigenvalues --   -0.49756  -0.45884  -0.45311  -0.43759  -0.42084
 Alpha  occ. eigenvalues --   -0.40705  -0.39631  -0.39047  -0.37371  -0.36725
 Alpha  occ. eigenvalues --   -0.36114  -0.34850  -0.33773  -0.32777  -0.32639
 Alpha  occ. eigenvalues --   -0.32426  -0.30307  -0.29275  -0.28559  -0.28356
 Alpha  occ. eigenvalues --   -0.26246  -0.25897  -0.25397  -0.24660  -0.24055
 Alpha  occ. eigenvalues --   -0.23694  -0.23232  -0.22987  -0.21152  -0.20431
 Alpha  occ. eigenvalues --    0.04052
 Alpha virt. eigenvalues --    0.05476   0.06698   0.08017   0.08897   0.09151
 Alpha virt. eigenvalues --    0.09835   0.09864   0.10220   0.11152   0.11757
 Alpha virt. eigenvalues --    0.11909   0.12402   0.13072   0.13486   0.14057

  Beta  occ. eigenvalues --  -88.99093 -88.99013 -19.08285 -19.08234 -19.03971
  Beta  occ. eigenvalues --  -19.03859 -19.03837 -19.03745 -10.14959 -10.14922
  Beta  occ. eigenvalues --  -10.14074 -10.14041 -10.07933 -10.07302  -8.05210
  Beta  occ. eigenvalues --   -8.05138  -6.01592  -6.01518  -6.01395  -6.01320
  Beta  occ. eigenvalues --   -6.01261  -6.01191  -1.06162  -1.05922  -0.95628
  Beta  occ. eigenvalues --   -0.95506  -0.93077  -0.92902  -0.75111  -0.69576
  Beta  occ. eigenvalues --   -0.68415  -0.63861  -0.58638  -0.56316  -0.51343
  Beta  occ. eigenvalues --   -0.49696  -0.45851  -0.45281  -0.43723  -0.42053
  Beta  occ. eigenvalues --   -0.40666  -0.39591  -0.39018  -0.37340  -0.36663
  Beta  occ. eigenvalues --   -0.36076  -0.34807  -0.33726  -0.32727  -0.32598
  Beta  occ. eigenvalues --   -0.32388  -0.30269  -0.29236  -0.28535  -0.28330
  Beta  occ. eigenvalues --   -0.26212  -0.25879  -0.25372  -0.24634  -0.24034
  Beta  occ. eigenvalues --   -0.23668  -0.23204  -0.22957  -0.21128  -0.20404
  Beta virt. eigenvalues --    0.06372   0.07148   0.07395   0.08385   0.09284
  Beta virt. eigenvalues --    0.09681   0.10149   0.10256   0.10530   0.11576
  Beta virt. eigenvalues --    0.12049   0.12150   0.12678   0.13272   0.13614

 Mulliken charges and spin densities:
               1          2
     1  C    0.098419  -0.613098
     2  C    0.171513  -0.346820
     3  O   -0.049983   0.027214
     4  S    0.689592  -0.359522
     5  O   -0.177099   0.022253
     6  O   -0.241756   0.007771
     7  C   -0.339508  -0.310405
     8  C    0.125685  -0.781404
     9  S    0.618834  -0.421738
    10  O   -0.157812   0.000660
    11  O   -0.198716   0.028927
    12  O   -0.038935   0.033533
    13  C   -0.380846   0.011867
    14  C    0.593048  -0.894323
    15  H    0.067859   0.076930
    16  H   -0.589163   0.729753
    17  H    0.075523   0.118863
    18  H   -0.190119   0.379294
    19  H    0.204187  -0.021680
    20  H    0.245706   0.070817
    21  H   -0.624544   0.889738
    22  H   -0.714969   0.982683
    23  H    0.190804   0.114309
    24  H    0.166126   0.026826
    25  H   -0.238565   0.405819
    26  H    0.060932   0.129955
    27  H   -0.425914   0.575114
    28  H    0.059698   0.116665
 Sum of Mulliken charges =  -1.00000   1.00000

 Dipole moment (field-independent basis, Debye):
    X=              0.0978    Y=              0.6262    Z=             -0.1525  Tot=              0.6518
 Quadrupole moment (field-independent basis, Debye-Ang):
   XX=           -156.4434   YY=           -169.4191   ZZ=           -127.9030
   XY=              4.7692   XZ=             -3.2693   YZ=              0.2749

 Summary of Natural Population Analysis:

                                       Natural Population
                Natural  -----------------------------------------------
    Atom  No    Charge         Core      Valence    Rydberg      Total
 -----------------------------------------------------------------------
      C    1   -0.30013      0.99966     2.29479    0.00569     3.30013
      C    2   -0.01569      0.99959     2.00406    0.01204     3.01569
      O    3   -0.36905      0.99991     3.36041    0.00874     4.36905
      S    4    1.12628      4.99933     1.77428    0.10010     6.87372
      O    5   -0.45374      0.99990     3.44848    0.00535     4.45374
      O    6   -0.45341      0.99990     3.44779    0.00572     4.45341
      C    7   -0.30143      0.99955     2.28648    0.01540     3.30143
      C    8   -0.30016      0.99955     2.28494    0.01567     3.30016
      S    9    1.12578      4.99932     1.77448    0.10042     6.87422
      O   10   -0.44986      0.99990     3.44434    0.00562     4.44986
      O   11   -0.45599      0.99990     3.45082    0.00526     4.45599
      O   12   -0.37159      0.99991     3.36208    0.00960     4.37159
      C   13   -0.01732      0.99959     2.00569    0.01204     3.01732
      C   14   -0.30321      0.99966     2.29775    0.00580     3.30321
      H   15    0.10288      0.00000     0.39550    0.00162     0.39712
      H   16    0.10289      0.00000     0.39539    0.00172     0.39711
      H   17    0.10970      0.00000     0.38890    0.00140     0.39030
      H   18    0.09516      0.00000     0.40374    0.00110     0.40484
      H   19    0.09126      0.00000     0.40750    0.00124     0.40874
      H   20    0.13466      0.00000     0.36394    0.00140     0.36534
      H   21    0.13055      0.00000     0.36605    0.00339     0.36945
      H   22    0.13082      0.00000     0.36528    0.00390     0.36918
      H   23    0.13307      0.00000     0.36553    0.00140     0.36693
      H   24    0.09587      0.00000     0.40298    0.00114     0.40413
      H   25    0.09770      0.00000     0.40102    0.00128     0.40230
      H   26    0.10510      0.00000     0.39384    0.00106     0.39490
      H   27    0.10489      0.00000     0.39355    0.00157     0.39511
      H   28    0.10496      0.00000     0.39366    0.00138     0.39504
 =======================================================================
   * Total *    0.00000     21.99567    42.67326    0.33106    65.00000

 Normal termination of Gaussian 16 at Thu Dec 10 10:48:41 2020.
