 Gaussian 16, Revision A.03,

 -----------------------------------------------------------
 # opt freq B3LYP/6-31G(d) empiricaldispersion=gd3bj scf=xqc
 -----------------------------------------------------------

 ------------------------------
 CID_62584205_JID_7011_neutraal
 ------------------------------
 Symbolic Z-matrix:
 Charge =  0 Multiplicity = 1

 SCF Done:  E(RB3LYP) =  -716.692140907     A.U. after   13 cycles
 SCF Done:  E(RB3LYP) =  -716.595889843     A.U. after   14 cycles
 SCF Done:  E(RB3LYP) =  -716.695694181     A.U. after   12 cycles
 SCF Done:  E(RB3LYP) =  -716.697039213     A.U. after   12 cycles
 SCF Done:  E(RB3LYP) =  -716.697468793     A.U. after   12 cycles
 SCF Done:  E(RB3LYP) =  -716.697633791     A.U. after   10 cycles
 SCF Done:  E(RB3LYP) =  -716.697600942     A.U. after   12 cycles
 SCF Done:  E(RB3LYP) =  -716.697865459     A.U. after   11 cycles
 SCF Done:  E(RB3LYP) =  -716.698005757     A.U. after   11 cycles
 SCF Done:  E(RB3LYP) =  -716.698096404     A.U. after   11 cycles
 SCF Done:  E(RB3LYP) =  -716.698418227     A.U. after   10 cycles
 SCF Done:  E(RB3LYP) =  -716.698412703     A.U. after   10 cycles
 SCF Done:  E(RB3LYP) =  -716.698418645     A.U. after   10 cycles
 SCF Done:  E(RB3LYP) =  -716.698418728     A.U. after    8 cycles
 SCF Done:  E(RB3LYP) =  -716.698418743     A.U. after    7 cycles
 Optimization completed.
    -- Stationary point found.
 Normal termination of Gaussian 16 at Mon Dec 14 17:05:21 2020.

 --------------------------------------------------------------------
 #N Geom=AllCheck Guess=TCheck SCRF=Check GenChk RB3LYP/6-31G(d) Freq
 --------------------------------------------------------------------

 Structure from the checkpoint file:  "JID_7011.chk"
 ------------------------------
 CID_62584205_JID_7011_neutraal
 ------------------------------
 Charge =  0 Multiplicity = 1

 SCF Done:  E(RB3LYP) =  -716.698418743     A.U. after    1 cycles

  Exact polarizability: 206.453  22.389 150.058  -5.073  10.205 141.664
 Approx polarizability: 257.104  41.094 215.772 -14.924  22.003 245.673

                      1                      2                      3
                      A                      A                      A
 Frequencies --     11.6326                26.2199                30.1626
 Red. masses --      4.6340                 3.2253                 2.9185
 Frc consts  --      0.0004                 0.0013                 0.0016
 IR Inten    --      0.0158                 0.0223                 0.0995

                      4                      5                      6
                      A                      A                      A
 Frequencies --     58.6833                60.9785                72.7122
 Red. masses --      3.4687                 3.6368                 3.6011
 Frc consts  --      0.0070                 0.0080                 0.0112
 IR Inten    --      0.9759                 0.1509                 0.3697

                      7                      8                      9
                      A                      A                      A
 Frequencies --     93.3841               107.5410               163.0666
 Red. masses --      2.5951                 2.3443                 2.2931
 Frc consts  --      0.0133                 0.0160                 0.0359
 IR Inten    --      0.3054                 0.3524                 1.1593

                     10                     11                     12
                      A                      A                      A
 Frequencies --    168.9293               203.9920               226.8981
 Red. masses --      1.8291                 3.2745                 2.4323
 Frc consts  --      0.0308                 0.0803                 0.0738
 IR Inten    --      0.9183                 0.5575                 2.1968

                     13                     14                     15
                      A                      A                      A
 Frequencies --    232.0000               255.8974               271.0640
 Red. masses --      2.3040                 1.3153                 1.6456
 Frc consts  --      0.0731                 0.0507                 0.0712
 IR Inten    --      2.8739                 0.6321                 0.6463

                     16                     17                     18
                      A                      A                      A
 Frequencies --    286.7566               332.7111               336.0047
 Red. masses --      2.3898                 1.9769                 3.7302
 Frc consts  --      0.1158                 0.1289                 0.2481
 IR Inten    --      0.3374                 2.7385                 2.4609

                     19                     20                     21
                      A                      A                      A
 Frequencies --    359.5026               390.8771               418.1252
 Red. masses --      2.1027                 2.5426                 2.4429
 Frc consts  --      0.1601                 0.2289                 0.2516
 IR Inten    --      0.1999                 1.0907                 0.2209

                     22                     23                     24
                      A                      A                      A
 Frequencies --    425.2451               447.3906               471.4652
 Red. masses --      3.1205                 2.9975                 2.4308
 Frc consts  --      0.3325                 0.3535                 0.3183
 IR Inten    --      0.1399                 0.1301                 1.4475

                     25                     26                     27
                      A                      A                      A
 Frequencies --    529.9405               554.3167               588.1554
 Red. masses --      2.9529                 2.4275                 2.9374
 Frc consts  --      0.4886                 0.4395                 0.5987
 IR Inten    --      1.8788                 9.0212                 2.5289

                     28                     29                     30
                      A                      A                      A
 Frequencies --    656.0869               727.8347               733.1291
 Red. masses --      6.6162                 2.3098                 3.8628
 Frc consts  --      1.6780                 0.7209                 1.2232
 IR Inten    --      0.1823                14.0538                 0.6762

                     31                     32                     33
                      A                      A                      A
 Frequencies --    752.7919               767.8944               800.6630
 Red. masses --      1.3583                 1.4199                 1.6041
 Frc consts  --      0.4535                 0.4933                 0.6059
 IR Inten    --     15.8560                91.5462                12.6986

                     34                     35                     36
                      A                      A                      A
 Frequencies --    820.1515               829.0591               829.7584
 Red. masses --      2.1499                 1.6133                 1.5007
 Frc consts  --      0.8520                 0.6533                 0.6087
 IR Inten    --      2.9005                 5.5414                 1.2866

                     37                     38                     39
                      A                      A                      A
 Frequencies --    852.4374               866.2162               882.8936
 Red. masses --      1.6761                 2.2074                 2.3199
 Frc consts  --      0.7176                 0.9759                 1.0655
 IR Inten    --     36.5228                 2.2743                 3.0751

                     40                     41                     42
                      A                      A                      A
 Frequencies --    902.8473               908.8319               926.6612
 Red. masses --      1.6508                 1.4337                 2.3036
 Frc consts  --      0.7928                 0.6977                 1.1655
 IR Inten    --      9.7540                 0.7175                35.1352

                     43                     44                     45
                      A                      A                      A
 Frequencies --    944.5831               958.4086               976.9509
 Red. masses --      1.3202                 1.2992                 2.0639
 Frc consts  --      0.6940                 0.7031                 1.1606
 IR Inten    --      0.0650                 0.7941                 6.0198

                     46                     47                     48
                      A                      A                      A
 Frequencies --    995.2374              1035.4836              1037.7557
 Red. masses --      1.4978                 2.6340                 1.8305
 Frc consts  --      0.8741                 1.6640                 1.1615
 IR Inten    --      5.7902                 2.2648                34.1519

                     49                     50                     51
                      A                      A                      A
 Frequencies --   1053.6177              1078.0991              1090.5983
 Red. masses --      1.9242                 2.6473                 1.6158
 Frc consts  --      1.2585                 1.8129                 1.1323
 IR Inten    --      0.9859                40.0672                 3.2719

                     52                     53                     54
                      A                      A                      A
 Frequencies --   1094.2687              1112.2485              1113.4428
 Red. masses --      2.4406                 1.6798                 1.7860
 Frc consts  --      1.7218                 1.2243                 1.3046
 IR Inten    --      0.3421                 6.5140                 1.0426

                     55                     56                     57
                      A                      A                      A
 Frequencies --   1152.2818              1153.6841              1175.4208
 Red. masses --      1.3014                 2.0075                 3.1707
 Frc consts  --      1.0181                 1.5742                 2.5810
 IR Inten    --      8.2058                 4.9337                25.9543

                     58                     59                     60
                      A                      A                      A
 Frequencies --   1190.0607              1210.7363              1239.1623
 Red. masses --      2.1529                 1.1567                 2.5539
 Frc consts  --      1.7964                 0.9990                 2.3105
 IR Inten    --      4.7192                21.0915                 1.9362

                     61                     62                     63
                      A                      A                      A
 Frequencies --   1247.7731              1252.4778              1268.0536
 Red. masses --      1.1662                 1.4378                 1.2797
 Frc consts  --      1.0698                 1.3289                 1.2124
 IR Inten    --      1.4823                 9.1238                41.7028

                     64                     65                     66
                      A                      A                      A
 Frequencies --   1276.6387              1301.8076              1306.8521
 Red. masses --      1.3571                 2.5076                 1.2810
 Frc consts  --      1.3031                 2.5038                 1.2890
 IR Inten    --     30.1036               198.4149                22.8983

                     67                     68                     69
                      A                      A                      A
 Frequencies --   1314.0136              1346.1188              1352.4351
 Red. masses --      1.2453                 1.4417                 1.2239
 Frc consts  --      1.2668                 1.5392                 1.3189
 IR Inten    --     12.8627                12.7639                 4.7248

                     70                     71                     72
                      A                      A                      A
 Frequencies --   1364.6128              1385.3749              1387.1673
 Red. masses --      2.8950                 1.3306                 1.5360
 Frc consts  --      3.1762                 1.5046                 1.7414
 IR Inten    --     15.5324                10.1739                12.1172

                     73                     74                     75
                      A                      A                      A
 Frequencies --   1393.8731              1399.1578              1406.1508
 Red. masses --      1.4100                 1.3772                 1.4026
 Frc consts  --      1.6140                 1.5885                 1.6340
 IR Inten    --      8.2038                10.5219                 4.5540

                     76                     77                     78
                      A                      A                      A
 Frequencies --   1421.0790              1432.6524              1442.7622
 Red. masses --      1.3731                 1.2788                 1.2690
 Frc consts  --      1.6338                 1.5465                 1.5563
 IR Inten    --      1.5551                 8.0364                 7.5008

                     79                     80                     81
                      A                      A                      A
 Frequencies --   1446.4738              1470.6534              1501.6211
 Red. masses --      1.2561                 2.8714                 1.0870
 Frc consts  --      1.5485                 3.6590                 1.4441
 IR Inten    --      1.8804                 1.8536                 2.7856

                     82                     83                     84
                      A                      A                      A
 Frequencies --   1508.0555              1514.9792              1517.3650
 Red. masses --      1.0873                 1.0851                 1.0976
 Frc consts  --      1.4569                 1.4673                 1.4890
 IR Inten    --      0.4634                 2.3860                 9.9104

                     85                     86                     87
                      A                      A                      A
 Frequencies --   1519.3473              1526.5653              1530.6199
 Red. masses --      1.0801                 1.0556                 1.0813
 Frc consts  --      1.4691                 1.4494                 1.4925
 IR Inten    --      1.3945                17.0063                13.5422

                     88                     89                     90
                      A                      A                      A
 Frequencies --   1531.1950              1535.0259              1538.4934
 Red. masses --      1.0554                 1.1443                 1.0622
 Frc consts  --      1.4579                 1.5886                 1.4813
 IR Inten    --     10.7306                33.5523                 4.3272

                     91                     92                     93
                      A                      A                      A
 Frequencies --   1543.9749              1559.7205              1568.9670
 Red. masses --      1.1428                 1.1714                 1.9926
 Frc consts  --      1.6051                 1.6790                 2.8900
 IR Inten    --     19.2286                36.2546                81.4812

                     94                     95                     96
                      A                      A                      A
 Frequencies --   1636.7697              1677.6089              2967.4079
 Red. masses --      6.5107                 5.8576                 1.0718
 Frc consts  --     10.2767                 9.7129                 5.5607
 IR Inten    --     10.1118                48.4302                50.5171

                     97                     98                     99
                      A                      A                      A
 Frequencies --   3031.7164              3032.4512              3032.9218
 Red. masses --      1.0615                 1.0695                 1.0604
 Frc consts  --      5.7483                 5.7947                 5.7470
 IR Inten    --     37.8669                 1.1299                19.3942

                    100                    101                    102
                      A                      A                      A
 Frequencies --   3035.3877              3037.7249              3045.1494
 Red. masses --      1.0638                 1.0613                 1.0388
 Frc consts  --      5.7750                 5.7700                 5.6756
 IR Inten    --     23.9620                39.4018                22.8183

                    103                    104                    105
                      A                      A                      A
 Frequencies --   3046.1219              3048.7632              3052.3044
 Red. masses --      1.0795                 1.0429                 1.0603
 Frc consts  --      5.9018                 5.7114                 5.8204
 IR Inten    --     68.4141                24.4005                68.7218

                    106                    107                    108
                      A                      A                      A
 Frequencies --   3066.1838              3067.1293              3078.4137
 Red. masses --      1.0941                 1.1004                 1.1029
 Frc consts  --      6.0607                 6.0992                 6.1580
 IR Inten    --     50.3850                36.8435                34.0217

                    109                    110                    111
                      A                      A                      A
 Frequencies --   3080.5228              3083.1755              3099.8183
 Red. masses --      1.1028                 1.1032                 1.1048
 Frc consts  --      6.1661                 6.1787                 6.2549
 IR Inten    --     40.8611                29.8123                53.5063

                    112                    113                    114
                      A                      A                      A
 Frequencies --   3109.3952              3116.4437              3124.8427
 Red. masses --      1.1008                 1.0989                 1.1021
 Frc consts  --      6.2707                 6.2880                 6.3406
 IR Inten    --     45.4975                49.5748                47.6106

                    115                    116                    117
                      A                      A                      A
 Frequencies --   3130.3655              3177.0470              3181.6258
 Red. masses --      1.1007                 1.0884                 1.0889
 Frc consts  --      6.3552                 6.4729                 6.4943
 IR Inten    --     31.6321                15.8643                18.8469

                    118                    119                    120
                      A                      A                      A
 Frequencies --   3210.7494              3220.9218              3517.3246
 Red. masses --      1.0930                 1.0917                 1.0724
 Frc consts  --      6.6387                 6.6726                 7.8170
 IR Inten    --      8.5271                10.6537                 0.8471

 - Thermochemistry -
 -------------------
 Temperature   298.150 Kelvin.  Pressure   1.00000 Atm.
 Atom     1 has atomic number  6 and mass  12.00000

 Molecular mass:   235.19361 amu.
 Principal axes and moments of inertia in atomic units:
                           1         2         3
     Eigenvalues --  2038.212768049.477009191.08692
           X            0.99998  -0.00520   0.00235
           Y            0.00516   0.99987   0.01533
           Z           -0.00243  -0.01532   0.99988
 This molecule is an asymmetric top.
 Rotational symmetry number  1.
 Warning -- assumption of classical behavior for rotation
           may cause significant error
 Rotational temperatures (Kelvin)      0.04250     0.01076     0.00942
 Rotational constants (GHZ):           0.88545     0.22421     0.19636
 Zero-point vibrational energy     998961.3 (Joules/Mol)
                                  238.75749 (Kcal/Mol)
 Warning -- explicit consideration of  27 degrees of freedom as
           vibrations may cause significant error
 Vibrational temperatures:     16.74    37.72    43.40    84.43    87.73
          (Kelvin)            104.62   134.36   154.73   234.62   243.05
                              293.50   326.46   333.80   368.18   390.00
                              412.58   478.70   483.44   517.24   562.38
                              601.59   611.83   643.70   678.33   762.47
                              797.54   846.22   943.96  1047.19  1054.81
                             1083.10  1104.83  1151.98  1180.02  1192.83
                             1193.84  1226.47  1246.29  1270.29  1299.00
                             1307.61  1333.26  1359.04  1378.94  1405.61
                             1431.92  1489.83  1493.10  1515.92  1551.14
                             1569.13  1574.41  1600.28  1602.00  1657.88
                             1659.89  1691.17  1712.23  1741.98  1782.88
                             1795.27  1802.04  1824.45  1836.80  1873.01
                             1880.27  1890.57  1936.76  1945.85  1963.37
                             1993.25  1995.82  2005.47  2013.08  2023.14
                             2044.62  2061.27  2075.81  2081.15  2115.94
                             2160.50  2169.76  2179.72  2183.15  2186.00
                             2196.39  2202.22  2203.05  2208.56  2213.55
                             2221.44  2244.09  2257.39  2354.95  2413.71
                             4269.44  4361.96  4363.02  4363.70  4367.25
                             4370.61  4381.29  4382.69  4386.49  4391.59
                             4411.55  4412.92  4429.15  4432.19  4436.00
                             4459.95  4473.73  4483.87  4495.95  4503.90
                             4571.06  4577.65  4619.55  4634.19  5060.65

 Zero-point correction=                           0.380484 (Hartree/Particle)
 Thermal correction to Energy=                    0.399028
 Thermal correction to Enthalpy=                  0.399972
 Thermal correction to Gibbs Free Energy=         0.331012
 Sum of electronic and zero-point Energies=           -716.317934
 Sum of electronic and thermal Energies=              -716.299391
 Sum of electronic and thermal Enthalpies=            -716.298447
 Sum of electronic and thermal Free Energies=         -716.367407

                     E (Thermal)             CV                S
                      KCal/Mol        Cal/Mol-Kelvin    Cal/Mol-Kelvin
 Total                  250.394             69.506            145.138
 Electronic               0.000              0.000              0.000
 Translational            0.889              2.981             42.267
 Rotational               0.889              2.981             33.377
 Vibrational            248.616             63.544             69.494
 Vibration     1          0.593              1.987              7.711
 Vibration     2          0.593              1.985              6.097
 Vibration     3          0.594              1.984              5.819
 Vibration     4          0.596              1.974              4.501
 Vibration     5          0.597              1.973              4.425
 Vibration     6          0.599              1.967              4.079
 Vibration     7          0.602              1.954              3.588
 Vibration     8          0.606              1.943              3.313
 Vibration     9          0.623              1.888              2.514
 Vibration    10          0.625              1.881              2.447
 Vibration    11          0.640              1.834              2.097
 Vibration    12          0.651              1.800              1.903
 Vibration    13          0.653              1.792              1.863
 Vibration    14          0.666              1.753              1.690
 Vibration    15          0.675              1.727              1.589
 Vibration    16          0.684              1.698              1.493
 Vibration    17          0.715              1.610              1.247
 Vibration    18          0.717              1.604              1.231
 Vibration    19          0.734              1.556              1.124
 Vibration    20          0.759              1.490              0.997
 Vibration    21          0.781              1.431              0.898
 Vibration    22          0.787              1.415              0.874
 Vibration    23          0.807              1.367              0.804
 Vibration    24          0.828              1.313              0.733
 Vibration    25          0.885              1.184              0.587
 Vibration    26          0.910              1.130              0.535
 Vibration    27          0.945              1.057              0.470

 Optimization completed.
    -- Stationary point found.
 Normal termination of Gaussian 16 at Mon Dec 14 17:23:49 2020.

 ----------------------------------------------------------------------
 # B3LYP/6-311++G(d,p) empiricaldispersion=gd3bj scf=xqc pop=npa geom=c
 heck
 ----------------------------------------------------------------------

 --------------------------------------
 CID_62584205_JID_7011_Energie_neutraal
 --------------------------------------
 Structure from the checkpoint file:  "JID_7011.chk"
 Charge =  0 Multiplicity = 1

 SCF Done:  E(RB3LYP) =  -716.896398003     A.U. after   15 cycles
 Normal termination of Gaussian 16 at Mon Dec 14 17:33:14 2020.

 ----------------------------------------------------------------------
 # B3LYP/6-311++G(d,p) empiricaldispersion=gd3bj scf=xqc pop=npa geom=c
 heck
 ----------------------------------------------------------------------

 ------------------------------------
 CID_62584205_JID_7011_Energie_kation
 ------------------------------------
 Structure from the checkpoint file:  "JID_7011.chk"
 Charge =  1 Multiplicity = 2

 SCF Done:  E(UB3LYP) =  -716.614525335     A.U. after   24 cycles
 Normal termination of Gaussian 16 at Mon Dec 14 17:55:30 2020.
 Gaussian 16:  ES64L-G16RevA.03 25-Dec-2016

 ----------------------------------------------------------------------
 # B3LYP/6-311++G(d,p) empiricaldispersion=gd3bj scf=xqc pop=npa geom=c
 heck
 ----------------------------------------------------------------------

 -----------------------------------
 CID_62584205_JID_7011_Energie_anion
 -----------------------------------
 Structure from the checkpoint file:  "JID_7011.chk"
 Charge = -1 Multiplicity = 2

                         Standard orientation:
 ---------------------------------------------------------------------
 Center     Atomic      Atomic             Coordinates (Angstroms)
 Number     Number       Type             X           Y           Z
 ---------------------------------------------------------------------
      1          6           0       -1.275332    2.242947   -0.702442
      2          6           0       -2.338128    2.209284    0.399614
      3          6           0       -3.740320    1.800844   -0.087677
      4          6           0       -3.847150    0.361129   -0.598347
      5          7           0       -3.736540   -0.597833    0.503540
      6          6           0       -3.356523   -1.947876    0.108298
      7          6           0       -1.914251   -2.064471   -0.393496
      8          8           0       -1.082720   -1.570764    0.658940
      9          6           0        0.098683   -0.961007    0.344040
     10          6           0        0.766149   -1.112582   -0.873850
     11          6           0        1.955436   -0.413476   -1.098060
     12          6           0        2.508252    0.428917   -0.131757
     13          6           0        1.831148    0.547921    1.092103
     14          6           0        0.645248   -0.132775    1.333134
     15          6           0        3.813340    1.154741   -0.363474
     16          6           0        5.010934    0.496722    0.351630
     17          6           0        5.310957   -0.918142   -0.146319
     18          1           0       -1.117368    1.256705   -1.149334
     19          1           0       -0.307959    2.566107   -0.304580
     20          1           0       -1.563988    2.934126   -1.504266
     21          1           0       -2.000362    1.537282    1.200416
     22          1           0       -2.410665    3.202778    0.860817
     23          1           0       -4.465257    1.929785    0.726393
     24          1           0       -4.044801    2.480424   -0.894740
     25          1           0       -4.823798    0.214968   -1.079453
     26          1           0       -3.090394    0.208092   -1.387704
     27          1           0       -3.034381   -0.272081    1.163680
     28          1           0       -3.481607   -2.609678    0.973754
     29          1           0       -4.038233   -2.303759   -0.674397
     30          1           0       -1.650120   -3.104486   -0.630116
     31          1           0       -1.768036   -1.459647   -1.295140
     32          1           0        0.375923   -1.769708   -1.642740
     33          1           0        2.463509   -0.533762   -2.051758
     34          1           0        2.237379    1.195918    1.865543
     35          1           0        0.113665   -0.027103    2.273596
     36          1           0        4.021313    1.200222   -1.440336
     37          1           0        3.722863    2.193053   -0.018610
     38          1           0        5.894879    1.133304    0.213990
     39          1           0        4.810391    0.471524    1.431080
     40          1           0        5.538756   -0.916600   -1.219735
     41          1           0        6.171658   -1.348408    0.377384
     42          1           0        4.453525   -1.581169    0.009577
 ---------------------------------------------------------------------

 SCF Done:  E(UB3LYP) =  -716.882518257     A.U. after   33 cycles
 SCF Done:  E(UB3LYP) =  -716.882518257     a.u. after    1 cycles

 The electronic state is 2-A.
 Alpha  occ. eigenvalues --  -19.06121 -14.20591 -10.14102 -10.13272 -10.10722
 Alpha  occ. eigenvalues --  -10.09999 -10.08190 -10.08132 -10.08064 -10.08019
 Alpha  occ. eigenvalues --  -10.07969 -10.07945 -10.07868 -10.07546 -10.07475
 Alpha  occ. eigenvalues --  -10.06430 -10.06227  -0.97788  -0.81910  -0.76641
 Alpha  occ. eigenvalues --   -0.70941  -0.70098  -0.66956  -0.65711  -0.64005
 Alpha  occ. eigenvalues --   -0.61463  -0.58210  -0.55609  -0.53642  -0.51644
 Alpha  occ. eigenvalues --   -0.50372  -0.48133  -0.47443  -0.44681  -0.40569
 Alpha  occ. eigenvalues --   -0.40326  -0.38717  -0.38535  -0.37214  -0.35777
 Alpha  occ. eigenvalues --   -0.35670  -0.35126  -0.34257  -0.33450  -0.33082
 Alpha  occ. eigenvalues --   -0.32186  -0.30814  -0.30273  -0.29686  -0.29016
 Alpha  occ. eigenvalues --   -0.28518  -0.27595  -0.27030  -0.26797  -0.25691
 Alpha  occ. eigenvalues --   -0.24417  -0.24331  -0.23885  -0.23687  -0.23657
 Alpha  occ. eigenvalues --   -0.23598  -0.21973  -0.16491  -0.13937  -0.12956
 Alpha  occ. eigenvalues --    0.04112
 Alpha virt. eigenvalues --    0.05686   0.06309   0.07032   0.07339   0.07382
 Alpha virt. eigenvalues --    0.07614   0.08169   0.08619   0.09003   0.09360
 Alpha virt. eigenvalues --    0.09585   0.10065   0.10443   0.10609   0.11259

  Beta  occ. eigenvalues --  -19.06114 -14.20591 -10.14093 -10.13250 -10.10709
  Beta  occ. eigenvalues --  -10.09984 -10.08173 -10.08122 -10.08053 -10.08020
  Beta  occ. eigenvalues --  -10.07956 -10.07938 -10.07863 -10.07530 -10.07457
  Beta  occ. eigenvalues --  -10.06409 -10.06211  -0.97770  -0.81901  -0.76618
  Beta  occ. eigenvalues --   -0.70916  -0.70074  -0.66929  -0.65683  -0.63978
  Beta  occ. eigenvalues --   -0.61435  -0.58170  -0.55573  -0.53605  -0.51613
  Beta  occ. eigenvalues --   -0.50319  -0.48099  -0.47401  -0.44643  -0.40551
  Beta  occ. eigenvalues --   -0.40301  -0.38696  -0.38498  -0.37191  -0.35749
  Beta  occ. eigenvalues --   -0.35636  -0.35090  -0.34231  -0.33427  -0.33057
  Beta  occ. eigenvalues --   -0.32157  -0.30789  -0.30245  -0.29657  -0.28988
  Beta  occ. eigenvalues --   -0.28487  -0.27562  -0.27001  -0.26771  -0.25658
  Beta  occ. eigenvalues --   -0.24398  -0.24301  -0.23863  -0.23657  -0.23627
  Beta  occ. eigenvalues --   -0.23578  -0.21944  -0.16456  -0.13928  -0.12913
  Beta virt. eigenvalues --    0.06047   0.06543   0.06874   0.07227   0.07460
  Beta virt. eigenvalues --    0.07838   0.07952   0.08367   0.08959   0.09218
  Beta virt. eigenvalues --    0.09616   0.09888   0.10460   0.10617   0.10855

 Mulliken charges and spin densities:
               1          2
     1  C    0.043068  -0.491990
     2  C   -0.207923   0.164767
     3  C   -0.362476  -0.170717
     4  C    0.098757  -0.413339
     5  N   -0.047963   0.070242
     6  C    0.010871  -0.835290
     7  C    0.419558  -0.265707
     8  O   -0.059354   0.024641
     9  C    0.783377  -1.475062
    10  C    1.412219  -1.370139
    11  C   -1.046292   0.727201
    12  C    0.465048   0.374609
    13  C   -0.914278   0.456179
    14  C   -0.639751   0.642088
    15  C    0.640814  -0.973677
    16  C    0.082576  -0.321105
    17  C    0.120678  -0.748679
    18  H    0.217061  -0.082328
    19  H    0.085444   0.044286
    20  H   -0.038609   0.191863
    21  H    0.053141   0.016591
    22  H   -0.058926   0.226340
    23  H    0.135537   0.023448
    24  H    0.007161   0.119526
    25  H   -0.125603   0.297271
    26  H   -0.115570   0.195343
    27  H    0.226634  -0.017951
    28  H    0.112817   0.067012
    29  H   -0.279192   0.446827
    30  H   -0.260938   0.441502
    31  H    0.111038  -0.012974
    32  H   -0.738696   0.952408
    33  H   -0.241172   0.426218
    34  H   -0.249631   0.426592
    35  H    0.075933   0.117161
    36  H   -0.240056   0.407532
    37  H   -0.180486   0.340908
    38  H   -0.389890   0.538163
    39  H    0.086162   0.037131
    40  H   -0.008298   0.144670
    41  H   -0.125056   0.256669
    42  H    0.142265   0.001772
 Sum of Mulliken charges =  -1.00000   1.00000

 Dipole moment (field-independent basis, Debye):
    X=             -3.3530    Y=              0.7012    Z=              3.4750  Tot=              4.8795
 Quadrupole moment (field-independent basis, Debye-Ang):
   XX=           -214.2276   YY=           -156.2597   ZZ=           -144.5679
   XY=            -10.7406   XZ=             -1.3322   YZ=             -5.2449

 Summary of Natural Population Analysis:

                                       Natural Population
                Natural  -----------------------------------------------
    Atom  No    Charge         Core      Valence    Rydberg      Total
 -----------------------------------------------------------------------
      C    1   -0.28812      0.99966     2.28313    0.00533     3.28812
      C    2   -0.19321      0.99964     2.18599    0.00759     3.19321
      C    3   -0.19328      0.99962     2.18567    0.00799     3.19328
      C    4   -0.08951      0.99962     2.07884    0.01105     3.08951
      N    5   -0.34223      0.99975     2.83141    0.01107     3.84223
      C    6   -0.09421      0.99963     2.08220    0.01238     3.09421
      C    7   -0.02225      0.99956     2.01081    0.01187     3.02225
      O    8   -0.28588      0.99985     3.27646    0.00957     4.28588
      C    9    0.15840      0.99938     1.82857    0.01365     2.84160
      C   10   -0.13940      0.99951     2.13044    0.00946     3.13940
      C   11   -0.08881      0.99951     2.07927    0.01003     3.08881
      C   12   -0.02864      0.99950     2.01791    0.01122     3.02864
      C   13   -0.09126      0.99951     2.08246    0.00929     3.09126
      C   14   -0.12060      0.99952     2.11227    0.00882     3.12060
      C   15   -0.19598      0.99960     2.18622    0.01016     3.19598
      C   16   -0.18473      0.99964     2.17749    0.00760     3.18473
      C   17   -0.28724      0.99966     2.28322    0.00435     3.28724
      H   18    0.09946      0.00000     0.39887    0.00168     0.40054
      H   19    0.10416      0.00000     0.39477    0.00106     0.39584
      H   20    0.09323      0.00000     0.40584    0.00094     0.40677
      H   21    0.09180      0.00000     0.40663    0.00157     0.40820
      H   22    0.09448      0.00000     0.40462    0.00090     0.40552
      H   23    0.09734      0.00000     0.40157    0.00109     0.40266
      H   24    0.09698      0.00000     0.40214    0.00088     0.40302
      H   25    0.09041      0.00000     0.40833    0.00126     0.40959
      H   26    0.08118      0.00000     0.41699    0.00183     0.41882
      H   27    0.17422      0.00000     0.32205    0.00374     0.32578
      H   28    0.09440      0.00000     0.40452    0.00108     0.40560
      H   29    0.09662      0.00000     0.40221    0.00117     0.40338
      H   30    0.08882      0.00000     0.40950    0.00168     0.41118
      H   31    0.08781      0.00000     0.40988    0.00232     0.41219
      H   32    0.10746      0.00000     0.39064    0.00190     0.39254
      H   33    0.10192      0.00000     0.39677    0.00131     0.39808
      H   34    0.10015      0.00000     0.39881    0.00104     0.39985
      H   35    0.10310      0.00000     0.39547    0.00143     0.39690
      H   36    0.09931      0.00000     0.39925    0.00144     0.40069
      H   37    0.10305      0.00000     0.39551    0.00144     0.39695
      H   38    0.09569      0.00000     0.40269    0.00162     0.40431
      H   39    0.09235      0.00000     0.40644    0.00122     0.40765
      H   40    0.09553      0.00000     0.40317    0.00129     0.40447
      H   41    0.09700      0.00000     0.40207    0.00093     0.40300
      H   42    0.10046      0.00000     0.39838    0.00116     0.39954
 =======================================================================
   * Total *    0.00000     16.99317    47.80944    0.19739    65.00000

 Normal termination of Gaussian 16 at Mon Dec 14 18:24:54 2020.
