 Gaussian 16, Revision A.03,

 -----------------------------------------------------------
 # opt freq B3LYP/6-31G(d) empiricaldispersion=gd3bj scf=xqc
 -----------------------------------------------------------

 -------------------------------
 CID_152605744_JID_1244_neutraal
 -------------------------------
 Symbolic Z-matrix:
 Charge =  0 Multiplicity = 1

 SCF Done:  E(RB3LYP) =  -522.451829681     A.U. after   19 cycles
 SCF Done:  E(RB3LYP) =  -522.485404521     A.U. after   16 cycles
 SCF Done:  E(RB3LYP) =  -522.492351835     A.U. after   16 cycles
 SCF Done:  E(RB3LYP) =  -522.495235084     A.U. after   16 cycles
 SCF Done:  E(RB3LYP) =  -522.497954077     A.U. after   15 cycles
 SCF Done:  E(RB3LYP) =  -522.500128921     A.U. after   17 cycles
 SCF Done:  E(RB3LYP) =  -522.501417003     A.U. after   17 cycles
 SCF Done:  E(RB3LYP) =  -522.502070142     A.U. after   17 cycles
 SCF Done:  E(RB3LYP) =  -522.502491702     A.U. after   15 cycles
 SCF Done:  E(RB3LYP) =  -522.502813845     A.U. after   17 cycles
 SCF Done:  E(RB3LYP) =  -522.506312999     A.U. after   17 cycles
 SCF Done:  E(RB3LYP) =  -522.506538873     A.U. after   17 cycles
 SCF Done:  E(RB3LYP) =  -522.506926037     A.U. after   13 cycles
 SCF Done:  E(RB3LYP) =  -522.506945172     A.U. after   12 cycles
 SCF Done:  E(RB3LYP) =  -522.506948644     A.U. after   10 cycles
 SCF Done:  E(RB3LYP) =  -522.506948922     A.U. after    9 cycles
 Optimization completed.
    -- Stationary point found.
 Normal termination of Gaussian 16 at Tue Dec  8 19:37:24 2020.

 --------------------------------------------------------------------
 #N Geom=AllCheck Guess=TCheck SCRF=Check GenChk RB3LYP/6-31G(d) Freq
 --------------------------------------------------------------------

 Structure from the checkpoint file:  "JID_1244.chk"
 -------------------------------
 CID_152605744_JID_1244_neutraal
 -------------------------------
 Charge =  0 Multiplicity = 1

 SCF Done:  E(RB3LYP) =  -522.506948922     A.U. after    1 cycles

  Exact polarizability: 156.194   2.884  84.497   1.692  -2.853  54.647
 Approx polarizability: 272.382   7.251 137.680  10.331  -1.352  85.794

                      1                      2                      3
                      A                      A                      A
 Frequencies --     38.7082                74.3096               134.8523
 Red. masses --      8.8691                 7.3625                 3.2098
 Frc consts  --      0.0078                 0.0240                 0.0344
 IR Inten    --      0.9674                 2.4897                 4.7517

                      4                      5                      6
                      A                      A                      A
 Frequencies --    149.3150               190.0019               199.0284
 Red. masses --      3.5014                 1.8854                 2.4403
 Frc consts  --      0.0460                 0.0401                 0.0570
 IR Inten    --      2.5324                 2.5962                 5.1130

                      7                      8                      9
                      A                      A                      A
 Frequencies --    222.9266               313.3574               387.1568
 Red. masses --      6.7444                 3.8561                 3.3171
 Frc consts  --      0.1975                 0.2231                 0.2929
 IR Inten    --      8.4333                 4.1786                30.6424

                     10                     11                     12
                      A                      A                      A
 Frequencies --    413.9504               459.8299               528.0501
 Red. masses --      3.7725                 3.7925                 7.3256
 Frc consts  --      0.3809                 0.4725                 1.2035
 IR Inten    --      4.2045                97.0898                 3.4668

                     13                     14                     15
                      A                      A                      A
 Frequencies --    532.4057               556.4556               578.0192
 Red. masses --      7.1627                 6.4530                12.7689
 Frc consts  --      1.1962                 1.1773                 2.5136
 IR Inten    --      3.6614                15.6429                10.8057

                     16                     17                     18
                      A                      A                      A
 Frequencies --    585.1155               686.6787               714.1471
 Red. masses --      5.8736                 5.1540                 8.6226
 Frc consts  --      1.1848                 1.4319                 2.5910
 IR Inten    --     31.6125                 0.7863                40.5663

                     19                     20                     21
                      A                      A                      A
 Frequencies --    887.8855               921.1731               938.9762
 Red. masses --      1.4706                 4.6280                 4.9579
 Frc consts  --      0.6830                 2.3138                 2.5755
 IR Inten    --     14.6681                19.6059                 9.4220

                     22                     23                     24
                      A                      A                      A
 Frequencies --    993.8352              1031.6448              1078.3945
 Red. masses --      3.0801                 2.0294                 2.9232
 Frc consts  --      1.7925                 1.2725                 2.0029
 IR Inten    --     18.1260                10.5821                89.9104

                     25                     26                     27
                      A                      A                      A
 Frequencies --   1141.1519              1164.2847              1210.6611
 Red. masses --      1.9560                 1.6101                 1.3212
 Frc consts  --      1.5008                 1.2860                 1.1409
 IR Inten    --     25.6693                 3.6650                70.3805

                     28                     29                     30
                      A                      A                      A
 Frequencies --   1255.9889              1282.3177              1292.1961
 Red. masses --      2.7882                 2.2258                 2.3523
 Frc consts  --      2.5915                 2.1564                 2.3142
 IR Inten    --    140.9791                 1.2023                 2.8484

                     31                     32                     33
                      A                      A                      A
 Frequencies --   1332.7460              1418.7909              1472.6889
 Red. masses --      1.8441                 5.0203                 1.1899
 Frc consts  --      1.9298                 5.9541                 1.5205
 IR Inten    --      3.8650               100.3772                 0.3009

                     34                     35                     36
                      A                      A                      A
 Frequencies --   1497.8415              1505.5524              1544.7448
 Red. masses --      1.0941                 1.0489                 1.0605
 Frc consts  --      1.4463                 1.4008                 1.4911
 IR Inten    --      1.2688                25.2919                11.6630

                     37                     38                     39
                      A                      A                      A
 Frequencies --   1667.3775              2217.7739              2333.3601
 Red. masses --      6.4176                13.9656                12.6407
 Frc consts  --     10.5121                40.4710                40.5494
 IR Inten    --    123.8191               771.0953               106.7420

                     40                     41                     42
                      A                      A                      A
 Frequencies --   3048.8517              3058.5020              3129.3910
 Red. masses --      1.0417                 1.0704                 1.0938
 Frc consts  --      5.7051                 5.8993                 6.3112
 IR Inten    --     47.1719                15.2560                15.4517

                     43                     44                     45
                      A                      A                      A
 Frequencies --   3164.8471              3176.6516              3267.1807
 Red. masses --      1.1053                 1.0963                 1.0981
 Frc consts  --      6.5227                 6.5180                 6.9062
 IR Inten    --      6.1168                 1.5677                 1.3874

 - Thermochemistry -
 -------------------
 Temperature   298.150 Kelvin.  Pressure   1.00000 Atm.
 Atom     1 has atomic number  6 and mass  12.00000

 Molecular mass:   150.06539 amu.
 Principal axes and moments of inertia in atomic units:
                           1         2         3
     Eigenvalues --   803.927902583.220733117.88489
           X            0.99985   0.01700  -0.00300
           Y           -0.01710   0.99918  -0.03669
           Z            0.00238   0.03673   0.99932
 This molecule is an asymmetric top.
 Rotational symmetry number  1.
 Warning -- assumption of classical behavior for rotation
           may cause significant error
 Rotational temperatures (Kelvin)      0.10774     0.03353     0.02778
 Rotational constants (GHZ):           2.24490     0.69864     0.57884
 Zero-point vibrational energy     321790.2 (Joules/Mol)
                                   76.90970 (Kcal/Mol)
 Warning -- explicit consideration of  16 degrees of freedom as
           vibrations may cause significant error
 Vibrational temperatures:     55.69   106.91   194.02   214.83   273.37
          (Kelvin)            286.36   320.74   450.85   557.03   595.58
                              661.59   759.75   766.01   800.62   831.64
                              841.85   987.98  1027.50  1277.47  1325.36
                             1350.98  1429.91  1484.31  1551.57  1641.86
                             1675.15  1741.87  1807.09  1844.97  1859.18
                             1917.52  2041.32  2118.87  2155.06  2166.15
                             2222.54  2398.98  3190.88  3357.18  4386.62
                             4400.50  4502.50  4553.51  4570.49  4700.74

 Zero-point correction=                           0.122563 (Hartree/Particle)
 Thermal correction to Energy=                    0.132836
 Thermal correction to Enthalpy=                  0.133780
 Thermal correction to Gibbs Free Energy=         0.085944
 Sum of electronic and zero-point Energies=           -522.384386
 Sum of electronic and thermal Energies=              -522.374113
 Sum of electronic and thermal Enthalpies=            -522.373169
 Sum of electronic and thermal Free Energies=         -522.421005

                     E (Thermal)             CV                S
                      KCal/Mol        Cal/Mol-Kelvin    Cal/Mol-Kelvin
 Total                   83.356             36.644            100.680
 Electronic               0.000              0.000              0.000
 Translational            0.889              2.981             40.928
 Rotational               0.889              2.981             30.250
 Vibrational             81.578             30.683             29.503
 Vibration     1          0.594              1.981              5.324
 Vibration     2          0.599              1.966              4.036
 Vibration     3          0.613              1.919              2.876
 Vibration     4          0.618              1.903              2.681
 Vibration     5          0.633              1.854              2.228
 Vibration     6          0.637              1.841              2.142
 Vibration     7          0.649              1.806              1.935
 Vibration     8          0.701              1.648              1.345
 Vibration     9          0.756              1.498              1.011
 Vibration    10          0.778              1.440              0.913
 Vibration    11          0.818              1.339              0.767
 Vibration    12          0.883              1.188              0.592
 Vibration    13          0.887              1.178              0.582
 Vibration    14          0.912              1.126              0.531
 Vibration    15          0.935              1.079              0.489
 Vibration    16          0.942              1.064              0.476

                           ! Non-Optimized Parameters !
 Normal termination of Gaussian 16 at Tue Dec  8 19:40:27 2020.

 ----------------------------------------------------------------------
 # B3LYP/6-311++G(d,p) empiricaldispersion=gd3bj scf=xqc pop=npa geom=c
 heck
 ----------------------------------------------------------------------

 ---------------------------------------
 CID_152605744_JID_1244_Energie_neutraal
 ---------------------------------------
 Structure from the checkpoint file:  "JID_1244.chk"
 Charge =  0 Multiplicity = 1

 SCF Done:  E(RB3LYP) =  -522.649512767     A.U. after   17 cycles
 Normal termination of Gaussian 16 at Tue Dec  8 19:41:40 2020.

 ----------------------------------------------------------------------
 # B3LYP/6-311++G(d,p) empiricaldispersion=gd3bj scf=xqc pop=npa geom=c
 heck
 ----------------------------------------------------------------------

 -------------------------------------
 CID_152605744_JID_1244_Energie_kation
 -------------------------------------
 Structure from the checkpoint file:  "JID_1244.chk"
 Charge =  1 Multiplicity = 2

 SCF Done:  E(UB3LYP) =  -522.345951343     A.U. after   23 cycles
 Normal termination of Gaussian 16 at Tue Dec  8 19:43:35 2020.
 Gaussian 16:  ES64L-G16RevA.03 25-Dec-2016

 ----------------------------------------------------------------------
 # B3LYP/6-311++G(d,p) empiricaldispersion=gd3bj scf=xqc pop=npa geom=c
 heck
 ----------------------------------------------------------------------

 ------------------------------------
 CID_152605744_JID_1244_Energie_anion
 ------------------------------------
 Structure from the checkpoint file:  "JID_1244.chk"
 Charge = -1 Multiplicity = 2

                         Standard orientation:
 ---------------------------------------------------------------------
 Center     Atomic      Atomic             Coordinates (Angstroms)
 Number     Number       Type             X           Y           Z
 ---------------------------------------------------------------------
      1          6           0        1.223818    2.179975   -0.129587
      2          7           0        0.208310    1.247009    0.312169
      3          6           0       -1.056717    1.145238   -0.239854
      4          6           0       -1.623374   -0.040619    0.077676
      5          6           0       -0.616482   -0.758848    0.964091
      6          7           0        0.660055   -0.037272    0.710249
      7          7           0        1.237643   -0.697152   -0.555560
      8          7           0        2.419669   -1.003508   -0.324940
      9          7           0        3.508529   -1.330662   -0.224000
     10          6           0       -2.919647   -0.491530   -0.236549
     11          7           0       -3.986546   -0.895682   -0.478390
     12          1           0        1.667658    1.882007   -1.088003
     13          1           0        2.004767    2.228405    0.632540
     14          1           0        0.767587    3.167251   -0.232857
     15          1           0       -1.481011    1.976702   -0.787151
     16          1           0       -0.482458   -1.819645    0.757911
     17          1           0       -0.855750   -0.619158    2.026214
 ---------------------------------------------------------------------

 SCF Done:  E(UB3LYP) =  -522.663282690     A.U. after   32 cycles

 The electronic state is 2-A.
 Alpha  occ. eigenvalues --  -14.27666 -14.23908 -14.23473 -14.20094 -14.18867
 Alpha  occ. eigenvalues --  -14.15751 -10.09341 -10.08056 -10.07788 -10.06355
 Alpha  occ. eigenvalues --  -10.04559  -0.96200  -0.90258  -0.79640  -0.75900
 Alpha  occ. eigenvalues --   -0.70629  -0.66572  -0.58791  -0.51713  -0.47955
 Alpha  occ. eigenvalues --   -0.43244  -0.39791  -0.36254  -0.34540  -0.33940
 Alpha  occ. eigenvalues --   -0.31923  -0.30666  -0.30209  -0.28616  -0.27371
 Alpha  occ. eigenvalues --   -0.26931  -0.23158  -0.22504  -0.20983  -0.19900
 Alpha  occ. eigenvalues --   -0.18663  -0.12624  -0.09728  -0.07328   0.04992
 Alpha virt. eigenvalues --    0.08101   0.09603   0.10442   0.10804   0.12357
 Alpha virt. eigenvalues --    0.13118   0.13495   0.14382   0.15743   0.16046
 Alpha virt. eigenvalues --    0.16891   0.17041   0.17621   0.18028   0.18856

  Beta  occ. eigenvalues --  -14.27247 -14.23985 -14.23122 -14.20114 -14.18169
  Beta  occ. eigenvalues --  -14.15577 -10.09329 -10.08081 -10.07533 -10.06341
  Beta  occ. eigenvalues --  -10.04401  -0.95320  -0.89889  -0.79115  -0.75633
  Beta  occ. eigenvalues --   -0.70455  -0.65986  -0.58638  -0.51280  -0.47434
  Beta  occ. eigenvalues --   -0.42960  -0.39471  -0.36062  -0.34071  -0.32539
  Beta  occ. eigenvalues --   -0.31493  -0.30573  -0.29481  -0.28393  -0.26939
  Beta  occ. eigenvalues --   -0.26011  -0.22515  -0.22080  -0.20088  -0.19284
  Beta  occ. eigenvalues --   -0.18026  -0.11918  -0.09426  -0.06570
  Beta virt. eigenvalues --    0.08012   0.10109   0.10573   0.10782   0.12548
  Beta virt. eigenvalues --    0.12894   0.13283   0.13809   0.14432   0.15865
  Beta virt. eigenvalues --    0.16147   0.17021   0.17054   0.17713   0.18164

 Mulliken charges and spin densities:
               1          2
     1  C   -0.324819  -0.076885
     2  N   -0.101925   0.022584
     3  C    0.011977   0.343274
     4  C    1.256395  -0.013996
     5  C   -0.407665   0.017177
     6  N    0.316417  -0.017932
     7  N   -0.455470  -0.019571
     8  N    0.476064   0.184361
     9  N   -0.573226   0.394809
    10  C   -1.644084  -0.079564
    11  N   -0.327258   0.094365
    12  H    0.092749   0.075591
    13  H    0.134919   0.010271
    14  H    0.120930  -0.007077
    15  H    0.121882   0.027623
    16  H    0.160240   0.032112
    17  H    0.142875   0.012858
 Sum of Mulliken charges =  -1.00000   1.00000

 Dipole moment (field-independent basis, Debye):
    X=              1.1419    Y=              4.8471    Z=              1.7785  Tot=              5.2878
 Quadrupole moment (field-independent basis, Debye-Ang):
   XX=           -130.7689   YY=            -70.7645   ZZ=            -73.0017
   XY=              2.6114   XZ=             -3.4516   YZ=             -3.9946

 Summary of Natural Population Analysis:

                                       Natural Population
                Natural  -----------------------------------------------
    Atom  No    Charge         Core      Valence    Rydberg      Total
 -----------------------------------------------------------------------
      C    1   -0.17521      0.99965     2.16816    0.00739     3.17521
      N    2   -0.16404      0.99968     2.65144    0.01293     3.66404
      C    3    0.08529      0.99948     1.90340    0.01183     2.91471
      C    4   -0.11688      0.99941     2.10719    0.01029     3.11688
      C    5   -0.08609      0.99961     2.07478    0.01170     3.08609
      N    6   -0.06666      0.99975     2.55048    0.01643     3.56666
      N    7   -0.17717      0.99974     2.66180    0.01562     3.67717
      N    8    0.13477      0.99971     2.34802    0.01749     3.36523
      N    9    0.02832      0.99982     2.45897    0.01290     3.47168
      C   10    0.14692      0.99963     1.83584    0.01760     2.85308
      N   11   -0.19442      0.99979     2.68581    0.00882     3.69442
      H   12    0.09452      0.00000     0.40313    0.00235     0.40548
      H   13    0.09975      0.00000     0.39897    0.00128     0.40025
      H   14    0.09181      0.00000     0.40727    0.00092     0.40819
      H   15    0.09595      0.00000     0.40308    0.00097     0.40405
      H   16    0.10795      0.00000     0.39105    0.00099     0.39205
      H   17    0.09517      0.00000     0.40367    0.00115     0.40483
 =======================================================================
   * Total *    0.00000     10.99629    27.85306    0.15064    39.00000

 Normal termination of Gaussian 16 at Tue Dec  8 19:46:55 2020.
