 Gaussian 16, Revision A.03,

 -----------------------------------------------------------
 # opt freq B3LYP/6-31G(d) empiricaldispersion=gd3bj scf=xqc
 -----------------------------------------------------------

 -------------------------------
 CID_131057735_JID_2764_neutraal
 -------------------------------
 Symbolic Z-matrix:
 Charge =  0 Multiplicity = 1

 SCF Done:  E(RB3LYP) =  -929.699805484     A.U. after   15 cycles
 SCF Done:  E(RB3LYP) =  -929.705273393     A.U. after   13 cycles
 SCF Done:  E(RB3LYP) =  -929.706417013     A.U. after   12 cycles
 SCF Done:  E(RB3LYP) =  -929.706733857     A.U. after   12 cycles
 SCF Done:  E(RB3LYP) =  -929.706519748     A.U. after   13 cycles
 SCF Done:  E(RB3LYP) =  -929.707109242     A.U. after   12 cycles
 SCF Done:  E(RB3LYP) =  -929.707413159     A.U. after   12 cycles
 SCF Done:  E(RB3LYP) =  -929.708746924     A.U. after   15 cycles
 SCF Done:  E(RB3LYP) =  -929.680690385     A.U. after   13 cycles
 SCF Done:  E(RB3LYP) =  -929.711019485     A.U. after   13 cycles
 SCF Done:  E(RB3LYP) =  -929.713352029     A.U. after   12 cycles
 SCF Done:  E(RB3LYP) =  -929.713693110     A.U. after   12 cycles
 SCF Done:  E(RB3LYP) =  -929.713857223     A.U. after   12 cycles
 SCF Done:  E(RB3LYP) =  -929.713890256     A.U. after   10 cycles
 SCF Done:  E(RB3LYP) =  -929.713901563     A.U. after   10 cycles
 SCF Done:  E(RB3LYP) =  -929.713901968     A.U. after    8 cycles
 Optimization completed.
    -- Stationary point found.
 Normal termination of Gaussian 16 at Wed Dec  9 17:58:31 2020.

 --------------------------------------------------------------------
 #N Geom=AllCheck Guess=TCheck SCRF=Check GenChk RB3LYP/6-31G(d) Freq
 --------------------------------------------------------------------

 Structure from the checkpoint file:  "JID_2764.chk"
 -------------------------------
 CID_131057735_JID_2764_neutraal
 -------------------------------
 Charge =  0 Multiplicity = 1

 SCF Done:  E(RB3LYP) =  -929.713901968     A.U. after    1 cycles

  Exact polarizability: 144.396   0.898 142.781  -0.238  -0.798  47.156
 Approx polarizability: 216.069  -1.695 234.425  -2.448  -3.798  72.201

                      1                      2                      3
                      A                      A                      A
 Frequencies --     56.8859                88.3087               119.1743
 Red. masses --     10.9972                 4.4290                 1.2367
 Frc consts  --      0.0210                 0.0204                 0.0103
 IR Inten    --      2.5628                 3.0256                14.2499

                      4                      5                      6
                      A                      A                      A
 Frequencies --    141.3338               152.4170               164.7709
 Red. masses --      3.1977                 7.1505                 4.8728
 Frc consts  --      0.0376                 0.0979                 0.0779
 IR Inten    --     13.3468                 1.0214                 5.0457

                      7                      8                      9
                      A                      A                      A
 Frequencies --    195.7125               224.7828               286.2827
 Red. masses --      3.2744                 2.7348                 1.7965
 Frc consts  --      0.0739                 0.0814                 0.0867
 IR Inten    --     12.2867                11.6366                51.6987

                     10                     11                     12
                      A                      A                      A
 Frequencies --    332.4245               362.0917               384.1775
 Red. masses --      3.4140                 6.7498                 8.8983
 Frc consts  --      0.2223                 0.5214                 0.7738
 IR Inten    --     12.5196                 3.2241                 3.3652

                     13                     14                     15
                      A                      A                      A
 Frequencies --    455.7577               481.0556               551.2689
 Red. masses --      6.0760                 3.5497                 3.9686
 Frc consts  --      0.7436                 0.4840                 0.7106
 IR Inten    --      3.0808                 3.4526                24.8596

                     16                     17                     18
                      A                      A                      A
 Frequencies --    569.4568               584.9853               631.4417
 Red. masses --      2.8916                 2.7155                 1.5681
 Frc consts  --      0.5525                 0.5475                 0.3684
 IR Inten    --      8.8729                65.5985                59.0584

                     19                     20                     21
                      A                      A                      A
 Frequencies --    650.2559               685.8240               698.0393
 Red. masses --      3.3407                 2.3375                 2.3198
 Frc consts  --      0.8323                 0.6478                 0.6660
 IR Inten    --    126.8637                26.1105                 7.6337

                     22                     23                     24
                      A                      A                      A
 Frequencies --    772.6374               853.8376               857.5763
 Red. masses --      3.6604                 1.4870                 5.6197
 Frc consts  --      1.2874                 0.6387                 2.4351
 IR Inten    --     69.5678                 2.2563                64.1440

                     25                     26                     27
                      A                      A                      A
 Frequencies --    888.6775               909.0297               921.3061
 Red. masses --      1.6709                 1.3696                 1.9065
 Frc consts  --      0.7775                 0.6668                 0.9535
 IR Inten    --     23.7700                 4.5257                98.1617

                     28                     29                     30
                      A                      A                      A
 Frequencies --    938.0236               986.2104              1015.5868
 Red. masses --      1.4766                 2.2208                 5.1016
 Frc consts  --      0.7655                 1.2726                 3.1002
 IR Inten    --     38.4918                 1.8443                 5.1028

                     31                     32                     33
                      A                      A                      A
 Frequencies --   1133.2753              1144.7280              1170.5392
 Red. masses --      1.8636                 1.9468                 2.2237
 Frc consts  --      1.4102                 1.5030                 1.7951
 IR Inten    --     37.4201                54.6775                30.1610

                     34                     35                     36
                      A                      A                      A
 Frequencies --   1208.7159              1297.0695              1318.6206
 Red. masses --      1.9111                 1.4998                 1.5156
 Frc consts  --      1.6451                 1.4867                 1.5526
 IR Inten    --    264.1253                 8.0662                 7.1853

                     37                     38                     39
                      A                      A                      A
 Frequencies --   1340.4936              1377.8040              1399.9956
 Red. masses --      1.4828                 4.5982                 2.8402
 Frc consts  --      1.5699                 5.1429                 3.2798
 IR Inten    --     18.9387                 7.0223               182.1166

                     40                     41                     42
                      A                      A                      A
 Frequencies --   1462.7231              1495.8467              1554.7240
 Red. masses --      2.2793                 4.2705                 1.7355
 Frc consts  --      2.8733                 5.6299                 2.4716
 IR Inten    --     19.2734                68.8953                59.1883

                     43                     44                     45
                      A                      A                      A
 Frequencies --   1641.9662              1654.9730              1719.3658
 Red. masses --      5.0862                 4.9416                 1.1428
 Frc consts  --      8.0793                 7.9745                 1.9904
 IR Inten    --     63.1794               116.2692                35.7363

                     46                     47                     48
                      A                      A                      A
 Frequencies --   1820.0834              2698.6096              3210.5985
 Red. masses --      9.7421                 1.0384                 1.0901
 Frc consts  --     19.0144                 4.4556                 6.6208
 IR Inten    --    290.5860                11.1868                 3.5735

                     49                     50                     51
                      A                      A                      A
 Frequencies --   3233.1995              3236.5722              3433.0954
 Red. masses --      1.0900                 1.0910                 1.0528
 Frc consts  --      6.7133                 6.7335                 7.3110
 IR Inten    --      0.2156                 0.5058                12.7293

                     52                     53                     54
                      A                      A                      A
 Frequencies --   3499.7446              3561.0509              3701.2086
 Red. masses --      1.0756                 1.0909                 1.0641
 Frc consts  --      7.7620                 8.1505                 8.5889
 IR Inten    --      8.2103                 2.0879                73.9670

 - Thermochemistry -
 -------------------
 Temperature   298.150 Kelvin.  Pressure   1.00000 Atm.
 Atom     1 has atomic number  6 and mass  12.00000

 Molecular mass:   184.03065 amu.
 Principal axes and moments of inertia in atomic units:
                           1         2         3
     Eigenvalues --  2018.542112946.928824945.79280
           X            0.99623   0.08674   0.00245
           Y           -0.08675   0.99623   0.00267
           Z           -0.00221  -0.00287   0.99999
 This molecule is an asymmetric top.
 Rotational symmetry number  1.
 Warning -- assumption of classical behavior for rotation
           may cause significant error
 Rotational temperatures (Kelvin)      0.04291     0.02939     0.01751
 Rotational constants (GHZ):           0.89408     0.61241     0.36490
 Zero-point vibrational energy     390427.2 (Joules/Mol)
                                   93.31435 (Kcal/Mol)
 Warning -- explicit consideration of  17 degrees of freedom as
           vibrations may cause significant error
 Vibrational temperatures:     81.85   127.06   171.47   203.35   219.29
          (Kelvin)            237.07   281.59   323.41   411.90   478.28
                              520.97   552.75   655.73   692.13   793.15
                              819.32   841.66   908.50   935.57   986.75
                             1004.32  1111.65  1228.48  1233.86  1278.61
                             1307.89  1325.55  1349.61  1418.94  1461.20
                             1630.53  1647.01  1684.14  1739.07  1866.19
                             1897.20  1928.67  1982.35  2014.28  2104.53
                             2152.19  2236.90  2362.42  2381.14  2473.78
                             2618.69  3882.70  4619.34  4651.85  4656.71
                             4939.46  5035.35  5123.56  5325.21

 Zero-point correction=                           0.148706 (Hartree/Particle)
 Thermal correction to Energy=                    0.160495
 Thermal correction to Enthalpy=                  0.161440
 Thermal correction to Gibbs Free Energy=         0.110311
 Sum of electronic and zero-point Energies=           -929.565196
 Sum of electronic and thermal Energies=              -929.553407
 Sum of electronic and thermal Enthalpies=            -929.552462
 Sum of electronic and thermal Free Energies=         -929.603591

                     E (Thermal)             CV                S
                      KCal/Mol        Cal/Mol-Kelvin    Cal/Mol-Kelvin
 Total                  100.712             43.490            107.609
 Electronic               0.000              0.000              0.000
 Translational            0.889              2.981             41.536
 Rotational               0.889              2.981             31.754
 Vibrational             98.935             37.528             34.320
 Vibration     1          0.596              1.975              4.562
 Vibration     2          0.601              1.957              3.697
 Vibration     3          0.609              1.933              3.114
 Vibration     4          0.615              1.912              2.786
 Vibration     5          0.619              1.900              2.642
 Vibration     6          0.623              1.886              2.494
 Vibration     7          0.636              1.846              2.173
 Vibration     8          0.649              1.803              1.920
 Vibration     9          0.684              1.699              1.496
 Vibration    10          0.714              1.611              1.248
 Vibration    11          0.736              1.550              1.113
 Vibration    12          0.753              1.504              1.023
 Vibration    13          0.814              1.348              0.779
 Vibration    14          0.837              1.292              0.707
 Vibration    15          0.907              1.137              0.542
 Vibration    16          0.926              1.097              0.505
 Vibration    17          0.942              1.064              0.476

 Optimization completed.
    -- Stationary point found.
 Normal termination of Gaussian 16 at Wed Dec  9 18:03:07 2020.

 ----------------------------------------------------------------------
 # B3LYP/6-311++G(d,p) empiricaldispersion=gd3bj scf=xqc pop=npa geom=c
 heck
 ----------------------------------------------------------------------

 ---------------------------------------
 CID_131057735_JID_2764_Energie_neutraal
 ---------------------------------------
 Structure from the checkpoint file:  "JID_2764.chk"
 Charge =  0 Multiplicity = 1

 SCF Done:  E(RB3LYP) =  -929.911075874     A.U. after   15 cycles
 Normal termination of Gaussian 16 at Wed Dec  9 18:05:25 2020.

 ----------------------------------------------------------------------
 # B3LYP/6-311++G(d,p) empiricaldispersion=gd3bj scf=xqc pop=npa geom=c
 heck
 ----------------------------------------------------------------------

 -------------------------------------
 CID_131057735_JID_2764_Energie_kation
 -------------------------------------
 Structure from the checkpoint file:  "JID_2764.chk"
 Charge =  1 Multiplicity = 2

 SCF Done:  E(UB3LYP) =  -929.626801733     A.U. after   24 cycles
 Normal termination of Gaussian 16 at Wed Dec  9 18:09:46 2020.
 Gaussian 16:  ES64L-G16RevA.03 25-Dec-2016

 ----------------------------------------------------------------------
 # B3LYP/6-311++G(d,p) empiricaldispersion=gd3bj scf=xqc pop=npa geom=c
 heck
 ----------------------------------------------------------------------

 ------------------------------------
 CID_131057735_JID_2764_Energie_anion
 ------------------------------------
 Structure from the checkpoint file:  "JID_2764.chk"
 Charge = -1 Multiplicity = 2

                         Standard orientation:
 ---------------------------------------------------------------------
 Center     Atomic      Atomic             Coordinates (Angstroms)
 Number     Number       Type             X           Y           Z
 ---------------------------------------------------------------------
      1          6           0        0.336263   -1.332166    0.058480
      2          6           0        1.210068   -0.246656    0.015249
      3          6           0        0.730426    1.068186   -0.002255
      4          6           0       -0.650201    1.277892    0.022724
      5          6           0       -1.537475    0.198738    0.067064
      6          6           0       -1.047190   -1.113585    0.091272
      7          7           0       -1.905519   -2.212443    0.194461
      8          7           0       -3.250810   -2.014982   -0.175520
      9         16           0       -1.364661    2.915369   -0.003499
     10          6           0        2.664628   -0.544719   -0.020586
     11          8           0        3.149257   -1.659319   -0.022476
     12          8           0        3.437983    0.571781   -0.053090
     13          1           0        0.749195   -2.335891    0.070499
     14          1           0        1.426936    1.896420   -0.038764
     15          1           0       -2.609828    0.352304    0.081968
     16          1           0       -1.481996   -3.082102   -0.117777
     17          1           0       -3.412992   -2.283013   -1.147463
     18          1           0       -3.837000   -2.589096    0.423399
     19          1           0       -0.200173    3.591993   -0.061880
     20          1           0        4.357697    0.249628   -0.073734
 ---------------------------------------------------------------------

 SCF Done:  E(UB3LYP) =  -929.914215822     A.U. after   30 cycles

 The electronic state is 2-A.
 Alpha  occ. eigenvalues --  -88.73986 -19.03383 -18.96003 -14.22317 -14.21575
 Alpha  occ. eigenvalues --  -10.14444 -10.07987 -10.07908 -10.03836 -10.03476
 Alpha  occ. eigenvalues --  -10.02725 -10.02693  -7.82679  -5.79067  -5.78675
 Alpha  occ. eigenvalues --   -5.78081  -0.96948  -0.87415  -0.86610  -0.73646
 Alpha  occ. eigenvalues --   -0.68828  -0.65555  -0.60516  -0.57170  -0.52673
 Alpha  occ. eigenvalues --   -0.47370  -0.45113  -0.40081  -0.39678  -0.38452
 Alpha  occ. eigenvalues --   -0.36040  -0.34781  -0.33753  -0.31593  -0.31348
 Alpha  occ. eigenvalues --   -0.29183  -0.26841  -0.25599  -0.25268  -0.23758
 Alpha  occ. eigenvalues --   -0.21312  -0.20011  -0.19406  -0.15774  -0.15569
 Alpha  occ. eigenvalues --   -0.14210  -0.10445  -0.08133   0.04494
 Alpha virt. eigenvalues --    0.06627   0.08350   0.09209   0.09958   0.10531
 Alpha virt. eigenvalues --    0.11387   0.12088   0.12329   0.14056   0.14501
 Alpha virt. eigenvalues --    0.15019   0.16315   0.16537   0.16661   0.17823

  Beta  occ. eigenvalues --  -88.73987 -19.03324 -18.95764 -14.22306 -14.21525
  Beta  occ. eigenvalues --  -10.14190 -10.08036 -10.07938 -10.03698 -10.03378
  Beta  occ. eigenvalues --  -10.02551 -10.02478  -7.82680  -5.79067  -5.78675
  Beta  occ. eigenvalues --   -5.78083  -0.96685  -0.87051  -0.86547  -0.73427
  Beta  occ. eigenvalues --   -0.68725  -0.65300  -0.60193  -0.56938  -0.52137
  Beta  occ. eigenvalues --   -0.47293  -0.44906  -0.39931  -0.39593  -0.38358
  Beta  occ. eigenvalues --   -0.35775  -0.34566  -0.33576  -0.31244  -0.30436
  Beta  occ. eigenvalues --   -0.29085  -0.26630  -0.25226  -0.25102  -0.23596
  Beta  occ. eigenvalues --   -0.21213  -0.19865  -0.18462  -0.15612  -0.15021
  Beta  occ. eigenvalues --   -0.13967  -0.09527  -0.07480
  Beta virt. eigenvalues --    0.07531   0.08360   0.09189   0.09577   0.10405
  Beta virt. eigenvalues --    0.11202   0.11395   0.12195   0.12356   0.14132
  Beta virt. eigenvalues --    0.14499   0.15042   0.16239   0.16578   0.16695

 Mulliken charges and spin densities:
               1          2
     1  C   -0.937092  -0.042458
     2  C    1.709862  -0.278495
     3  C   -1.679658   0.146345
     4  C    0.713810   0.102419
     5  C    0.166845   0.475118
     6  C   -0.200118  -0.257258
     7  N   -0.016607  -0.090823
     8  N   -0.291252  -0.086929
     9  S   -0.732639   0.019028
    10  C    0.333550  -0.029841
    11  O   -0.412087   0.087229
    12  O   -0.234380   0.012566
    13  H    0.096511   0.060570
    14  H    0.124529   0.002181
    15  H    0.206863  -0.014688
    16  H   -0.048765   0.280962
    17  H   -0.106680   0.326519
    18  H   -0.045322   0.282673
    19  H    0.083482   0.004664
    20  H    0.269148   0.000220
 Sum of Mulliken charges =  -1.00000   1.00000

 Dipole moment (field-independent basis, Debye):
    X=              2.0085    Y=              4.0731    Z=              0.2263  Tot=              4.5471
 Quadrupole moment (field-independent basis, Debye-Ang):
   XX=           -117.3453   YY=           -107.2759   ZZ=            -91.7719
   XY=              2.3493   XZ=             -1.0154   YZ=             -2.0457

 Summary of Natural Population Analysis:

                                       Natural Population
                Natural  -----------------------------------------------
    Atom  No    Charge         Core      Valence    Rydberg      Total
 -----------------------------------------------------------------------
      C    1   -0.08047      0.99950     2.07128    0.00969     3.08047
      C    2   -0.04914      0.99946     2.03775    0.01194     3.04914
      C    3   -0.10128      0.99947     2.09308    0.00873     3.10128
      C    4   -0.08289      0.99941     2.07458    0.00890     3.08289
      C    5   -0.09033      0.99946     2.08086    0.01002     3.09033
      C    6    0.07894      0.99948     1.90944    0.01215     2.92106
      N    7   -0.23298      0.99966     2.71797    0.01535     3.73298
      N    8   -0.32322      0.99977     2.81021    0.01324     3.82322
      S    9   -0.00243      4.99957     2.98551    0.01735     8.00243
      C   10    0.42621      0.99966     1.54770    0.02644     2.57379
      O   11   -0.30598      0.99987     3.29980    0.00631     4.30598
      O   12   -0.35368      0.99988     3.34675    0.00704     4.35368
      H   13    0.10557      0.00000     0.39315    0.00128     0.39443
      H   14    0.10134      0.00000     0.39768    0.00098     0.39866
      H   15    0.10829      0.00000     0.39050    0.00121     0.39171
      H   16    0.17210      0.00000     0.32452    0.00339     0.32790
      H   17    0.16896      0.00000     0.32691    0.00413     0.33104
      H   18    0.17418      0.00000     0.32372    0.00210     0.32582
      H   19    0.05437      0.00000     0.44283    0.00281     0.44563
      H   20    0.23244      0.00000     0.26476    0.00280     0.26756
 =======================================================================
   * Total *   -0.00000     15.99518    31.83899    0.16583    48.00000

 Normal termination of Gaussian 16 at Wed Dec  9 18:15:58 2020.
