 Gaussian 16, Revision A.03,

 -----------------------------------------------------------
 # opt freq B3LYP/6-31G(d) empiricaldispersion=gd3bj scf=xqc
 -----------------------------------------------------------

 -------------------------------
 CID_139835659_JID_3572_neutraal
 -------------------------------
 Symbolic Z-matrix:
 Charge =  0 Multiplicity = 1

 SCF Done:  E(RB3LYP) =  -582.913394770     A.U. after   13 cycles
 SCF Done:  E(RB3LYP) =  -582.916072333     A.U. after   11 cycles
 SCF Done:  E(RB3LYP) =  -582.916468184     A.U. after   11 cycles
 SCF Done:  E(RB3LYP) =  -582.917544753     A.U. after   11 cycles
 SCF Done:  E(RB3LYP) =  -582.918964220     A.U. after   10 cycles
 SCF Done:  E(RB3LYP) =  -582.919667614     A.U. after   10 cycles
 SCF Done:  E(RB3LYP) =  -582.920366815     A.U. after   10 cycles
 SCF Done:  E(RB3LYP) =  -582.919949397     A.U. after   10 cycles
 SCF Done:  E(RB3LYP) =  -582.920529728     A.U. after   10 cycles
 SCF Done:  E(RB3LYP) =  -582.920546572     A.U. after    9 cycles
 SCF Done:  E(RB3LYP) =  -582.920550454     A.U. after    7 cycles
 SCF Done:  E(RB3LYP) =  -582.920551524     A.U. after    7 cycles
 SCF Done:  E(RB3LYP) =  -582.920552131     A.U. after    7 cycles
 SCF Done:  E(RB3LYP) =  -582.920552245     A.U. after    7 cycles
 SCF Done:  E(RB3LYP) =  -582.920552299     A.U. after    6 cycles
 Optimization completed.
    -- Stationary point found.
 Normal termination of Gaussian 16 at Mon Dec 14 16:34:59 2020.

 --------------------------------------------------------------------
 #N Geom=AllCheck Guess=TCheck SCRF=Check GenChk RB3LYP/6-31G(d) Freq
 --------------------------------------------------------------------

 Structure from the checkpoint file:  "JID_3572.chk"
 -------------------------------
 CID_139835659_JID_3572_neutraal
 -------------------------------
 Charge =  0 Multiplicity = 1

 SCF Done:  E(RB3LYP) =  -582.920552300     A.U. after    1 cycles

  Exact polarizability: 132.878   1.918 120.631   0.425   2.124 105.963
 Approx polarizability: 169.968   2.414 162.822   1.904   1.176 163.383

                      1                      2                      3
                      A                      A                      A
 Frequencies --     56.1260                71.7208               106.7601
 Red. masses --      3.5813                 2.8272                 2.5718
 Frc consts  --      0.0066                 0.0086                 0.0173
 IR Inten    --      0.2852                 0.3783                 0.0090

                      4                      5                      6
                      A                      A                      A
 Frequencies --    127.7636               208.2220               212.8939
 Red. masses --      2.9793                 1.5403                 2.2391
 Frc consts  --      0.0287                 0.0393                 0.0598
 IR Inten    --      0.0157                 0.6393                 1.5939

                      7                      8                      9
                      A                      A                      A
 Frequencies --    226.5904               238.4388               243.2079
 Red. masses --      2.6430                 1.4139                 1.4305
 Frc consts  --      0.0800                 0.0474                 0.0499
 IR Inten    --      0.5464                 1.1469                 0.5737

                     10                     11                     12
                      A                      A                      A
 Frequencies --    265.4853               277.2855               299.9492
 Red. masses --      1.4932                 1.3289                 1.5217
 Frc consts  --      0.0620                 0.0602                 0.0807
 IR Inten    --      2.3963                 0.1597                75.6300

                     13                     14                     15
                      A                      A                      A
 Frequencies --    328.0180               351.4854               371.2502
 Red. masses --      2.9151                 2.4173                 2.0211
 Frc consts  --      0.1848                 0.1760                 0.1641
 IR Inten    --      1.4669                 8.6008                28.5992

                     16                     17                     18
                      A                      A                      A
 Frequencies --    387.7841               408.0876               412.7705
 Red. masses --      2.1302                 1.9976                 2.2621
 Frc consts  --      0.1887                 0.1960                 0.2271
 IR Inten    --      2.8475                 0.0575                 0.9722

                     19                     20                     21
                      A                      A                      A
 Frequencies --    437.7471               452.6779               471.3803
 Red. masses --      2.1168                 2.2608                 2.4138
 Frc consts  --      0.2390                 0.2730                 0.3160
 IR Inten    --      3.4838                 5.4083                 2.3488

                     22                     23                     24
                      A                      A                      A
 Frequencies --    541.8109               569.3423               685.6273
 Red. masses --      3.6715                 4.5475                 4.8477
 Frc consts  --      0.6350                 0.8685                 1.3426
 IR Inten    --      4.3728                 6.4448                12.2490

                     25                     26                     27
                      A                      A                      A
 Frequencies --    703.7784               790.6712               845.5674
 Red. masses --      2.7780                 2.4122                 3.1635
 Frc consts  --      0.8107                 0.8885                 1.3326
 IR Inten    --      4.5589                 4.7590                 2.8993

                     28                     29                     30
                      A                      A                      A
 Frequencies --    876.0311               886.4155               907.6306
 Red. masses --      2.1429                 2.4573                 2.3574
 Frc consts  --      0.9689                 1.1376                 1.1442
 IR Inten    --     20.5970                 9.2549                 5.5920

                     31                     32                     33
                      A                      A                      A
 Frequencies --    941.5662               944.2917               949.7046
 Red. masses --      1.2922                 1.5001                 1.4894
 Frc consts  --      0.6750                 0.7881                 0.7915
 IR Inten    --      2.1769                 4.0050                12.5716

                     34                     35                     36
                      A                      A                      A
 Frequencies --    962.2832               973.9661               978.6357
 Red. masses --      1.8399                 1.5747                 1.5034
 Frc consts  --      1.0038                 0.8801                 0.8483
 IR Inten    --     12.0935                 5.0113                 0.7874

                     37                     38                     39
                      A                      A                      A
 Frequencies --    997.6427              1036.7829              1072.0824
 Red. masses --      1.8504                 2.3470                 2.1083
 Frc consts  --      1.0851                 1.4864                 1.4277
 IR Inten    --     16.2441                 9.6464                30.0333

                     40                     41                     42
                      A                      A                      A
 Frequencies --   1095.4079              1108.1068              1123.9007
 Red. masses --      1.7517                 3.5763                 1.5976
 Frc consts  --      1.2384                 2.5873                 1.1890
 IR Inten    --      8.8252               102.7430                10.8118

                     43                     44                     45
                      A                      A                      A
 Frequencies --   1150.0317              1168.6632              1183.7169
 Red. masses --      2.1605                 2.1163                 2.4165
 Frc consts  --      1.6835                 1.7030                 1.9949
 IR Inten    --     11.9045                19.2799                73.1788

                     46                     47                     48
                      A                      A                      A
 Frequencies --   1200.1198              1202.0497              1209.6002
 Red. masses --      1.8937                 2.0767                 1.8408
 Frc consts  --      1.6070                 1.7679                 1.5868
 IR Inten    --      5.3376                15.8166                10.9678

                     49                     50                     51
                      A                      A                      A
 Frequencies --   1241.1109              1285.6714              1302.1474
 Red. masses --      1.5822                 1.3723                 1.3346
 Frc consts  --      1.4359                 1.3365                 1.3332
 IR Inten    --      8.7536                35.3935                27.0363

                     52                     53                     54
                      A                      A                      A
 Frequencies --   1315.3459              1331.8950              1340.7484
 Red. masses --      1.1949                 1.3991                 1.2859
 Frc consts  --      1.2181                 1.4623                 1.3619
 IR Inten    --     26.7135                 2.4886                 1.8258

                     55                     56                     57
                      A                      A                      A
 Frequencies --   1356.6981              1368.4618              1379.0997
 Red. masses --      1.3503                 1.3911                 1.4022
 Frc consts  --      1.4644                 1.5348                 1.5713
 IR Inten    --     14.9392                 3.5265                 1.3714

                     58                     59                     60
                      A                      A                      A
 Frequencies --   1386.0010              1410.3623              1415.1586
 Red. masses --      1.3025                 1.3092                 1.4078
 Frc consts  --      1.4742                 1.5343                 1.6611
 IR Inten    --      0.8138                29.1015                 1.1414

                     61                     62                     63
                      A                      A                      A
 Frequencies --   1424.2503              1427.5183              1429.8791
 Red. masses --      1.3718                 1.2624                 1.2604
 Frc consts  --      1.6395                 1.5157                 1.5183
 IR Inten    --      9.2841                 0.4343                 3.8179

                     64                     65                     66
                      A                      A                      A
 Frequencies --   1442.6955              1449.1144              1453.8541
 Red. masses --      1.2573                 1.2379                 1.2399
 Frc consts  --      1.5419                 1.5316                 1.5441
 IR Inten    --     13.1686                 4.2275                 3.7981

                     67                     68                     69
                      A                      A                      A
 Frequencies --   1481.0471              1518.7070              1519.0275
 Red. masses --      1.4378                 1.0717                 1.0545
 Frc consts  --      1.8582                 1.4564                 1.4336
 IR Inten    --     30.1712                 4.9102                 0.5051

                     70                     71                     72
                      A                      A                      A
 Frequencies --   1519.9930              1524.3580              1532.2312
 Red. masses --      1.0677                 1.0566                 1.0597
 Frc consts  --      1.4534                 1.4466                 1.4659
 IR Inten    --      2.4311                 5.3367                11.9401

                     73                     74                     75
                      A                      A                      A
 Frequencies --   1533.9622              1535.1548              1543.0456
 Red. masses --      1.0565                 1.0579                 1.0545
 Frc consts  --      1.4647                 1.4690                 1.4794
 IR Inten    --      4.7462                 4.2609                 9.2117

                     76                     77                     78
                      A                      A                      A
 Frequencies --   1555.3821              1559.5755              2900.8502
 Red. masses --      1.0569                 1.0553                 1.0821
 Frc consts  --      1.5065                 1.5123                 5.3649
 IR Inten    --      1.4513                 4.4258                82.1564

                     79                     80                     81
                      A                      A                      A
 Frequencies --   2976.2342              3001.4552              3017.1396
 Red. masses --      1.0743                 1.0822                 1.0817
 Frc consts  --      5.6068                 5.7438                 5.8018
 IR Inten    --     57.8892                33.8752                14.5864

                     82                     83                     84
                      A                      A                      A
 Frequencies --   3036.6165              3037.5830              3039.0459
 Red. masses --      1.0471                 1.0395                 1.0719
 Frc consts  --      5.6889                 5.6509                 5.8326
 IR Inten    --     22.5957                23.0665                60.7124

                     85                     86                     87
                      A                      A                      A
 Frequencies --   3042.3892              3043.8460              3053.7767
 Red. masses --      1.0569                 1.0438                 1.0686
 Frc consts  --      5.7637                 5.6977                 5.8712
 IR Inten    --     10.1347                38.2268                63.3018

                     88                     89                     90
                      A                      A                      A
 Frequencies --   3088.3127              3092.6803              3099.9228
 Red. masses --      1.0853                 1.0994                 1.0995
 Frc consts  --      6.0989                 6.1955                 6.2250
 IR Inten    --      7.8816                12.1752                 4.3362

                     91                     92                     93
                      A                      A                      A
 Frequencies --   3104.9316              3113.5470              3119.9198
 Red. masses --      1.0987                 1.0955                 1.0979
 Frc consts  --      6.2405                 6.2568                 6.2964
 IR Inten    --     55.5115                66.1684                35.6801

                     94                     95                     96
                      A                      A                      A
 Frequencies --   3125.1853              3128.8201              3145.4072
 Red. masses --      1.0995                 1.0914                 1.0897
 Frc consts  --      6.3267                 6.2952                 6.3519
 IR Inten    --     46.5553                41.5951                31.6661

                     97                     98                     99
                      A                      A                      A
 Frequencies --   3161.5938              3192.8341              3727.6641
 Red. masses --      1.0933                 1.0939                 1.0651
 Frc consts  --      6.4388                 6.5704                 8.7196
 IR Inten    --     24.0767                 4.9731                22.7017

 - Thermochemistry -
 -------------------
 Temperature   298.150 Kelvin.  Pressure   1.00000 Atm.
 Atom     1 has atomic number  6 and mass  12.00000

 Molecular mass:   186.16198 amu.
 Principal axes and moments of inertia in atomic units:
                           1         2         3
     Eigenvalues --  1747.188212807.530253736.06934
           X            0.99966   0.02585  -0.00414
           Y           -0.02581   0.99963   0.00912
           Z            0.00438  -0.00901   0.99995
 This molecule is an asymmetric top.
 Rotational symmetry number  1.
 Warning -- assumption of classical behavior for rotation
           may cause significant error
 Rotational temperatures (Kelvin)      0.04957     0.03085     0.02318
 Rotational constants (GHZ):           1.03294     0.64282     0.48306
 Zero-point vibrational energy     848710.5 (Joules/Mol)
                                  202.84669 (Kcal/Mol)
 Warning -- explicit consideration of  23 degrees of freedom as
           vibrations may cause significant error
 Vibrational temperatures:     80.75   103.19   153.60   183.82   299.59
          (Kelvin)            306.31   326.01   343.06   349.92   381.97
                              398.95   431.56   471.94   505.71   534.15
                              557.93   587.15   593.88   629.82   651.30
                              678.21   779.55   819.16   986.46  1012.58
                             1137.60  1216.58  1260.41  1275.35  1305.88
                             1354.70  1358.63  1366.41  1384.51  1401.32
                             1408.04  1435.39  1491.70  1542.49  1576.05
                             1594.32  1617.04  1654.64  1681.45  1703.10
                             1726.70  1729.48  1740.34  1785.68  1849.79
                             1873.50  1892.49  1916.30  1929.04  1951.99
                             1968.91  1984.22  1994.15  2029.20  2036.10
                             2049.18  2053.88  2057.28  2075.72  2084.95
                             2091.77  2130.90  2185.08  2185.54  2186.93
                             2193.21  2204.54  2207.03  2208.75  2220.10
                             2237.85  2243.88  4173.68  4282.14  4318.42
                             4340.99  4369.01  4370.40  4372.51  4377.32
                             4379.42  4393.70  4443.39  4449.68  4460.10
                             4467.30  4479.70  4488.87  4496.44  4501.67
                             4525.54  4548.83  4593.78  5363.28

 Zero-point correction=                           0.323257 (Hartree/Particle)
 Thermal correction to Energy=                    0.337490
 Thermal correction to Enthalpy=                  0.338434
 Thermal correction to Gibbs Free Energy=         0.283747
 Sum of electronic and zero-point Energies=           -582.597296
 Sum of electronic and thermal Energies=              -582.583062
 Sum of electronic and thermal Enthalpies=            -582.582118
 Sum of electronic and thermal Free Energies=         -582.636805

                     E (Thermal)             CV                S
                      KCal/Mol        Cal/Mol-Kelvin    Cal/Mol-Kelvin
 Total                  211.778             56.337            115.099
 Electronic               0.000              0.000              0.000
 Translational            0.889              2.981             41.570
 Rotational               0.889              2.981             31.283
 Vibrational            210.001             50.375             42.245
 Vibration     1          0.596              1.975              4.589
 Vibration     2          0.598              1.967              4.106
 Vibration     3          0.606              1.944              3.327
 Vibration     4          0.611              1.925              2.979
 Vibration     5          0.642              1.828              2.059
 Vibration     6          0.644              1.821              2.019
 Vibration     7          0.650              1.801              1.906
 Vibration     8          0.656              1.782              1.814
 Vibration     9          0.659              1.774              1.779
 Vibration    10          0.671              1.736              1.625
 Vibration    11          0.678              1.715              1.550
 Vibration    12          0.692              1.674              1.417
 Vibration    13          0.711              1.620              1.270
 Vibration    14          0.728              1.572              1.160
 Vibration    15          0.743              1.531              1.075
 Vibration    16          0.756              1.496              1.009
 Vibration    17          0.773              1.453              0.933
 Vibration    18          0.777              1.443              0.917
 Vibration    19          0.798              1.388              0.834
 Vibration    20          0.811              1.355              0.788
 Vibration    21          0.828              1.314              0.734
 Vibration    22          0.897              1.158              0.561
 Vibration    23          0.925              1.098              0.506

 Optimization completed.
    -- Stationary point found.
 Normal termination of Gaussian 16 at Mon Dec 14 16:46:07 2020.

 ----------------------------------------------------------------------
 # B3LYP/6-311++G(d,p) empiricaldispersion=gd3bj scf=xqc pop=npa geom=c
 heck
 ----------------------------------------------------------------------

 ---------------------------------------
 CID_139835659_JID_3572_Energie_neutraal
 ---------------------------------------
 Structure from the checkpoint file:  "JID_3572.chk"
 Charge =  0 Multiplicity = 1

 SCF Done:  E(RB3LYP) =  -583.094842416     A.U. after   13 cycles
 Normal termination of Gaussian 16 at Mon Dec 14 16:50:59 2020.

 ----------------------------------------------------------------------
 # B3LYP/6-311++G(d,p) empiricaldispersion=gd3bj scf=xqc pop=npa geom=c
 heck
 ----------------------------------------------------------------------

 -------------------------------------
 CID_139835659_JID_3572_Energie_kation
 -------------------------------------
 Structure from the checkpoint file:  "JID_3572.chk"
 Charge =  1 Multiplicity = 2

 SCF Done:  E(UB3LYP) =  -582.764347048     A.U. after   22 cycles
 Normal termination of Gaussian 16 at Mon Dec 14 17:02:57 2020.
 Gaussian 16:  ES64L-G16RevA.03 25-Dec-2016

 ----------------------------------------------------------------------
 # B3LYP/6-311++G(d,p) empiricaldispersion=gd3bj scf=xqc pop=npa geom=c
 heck
 ----------------------------------------------------------------------

 ------------------------------------
 CID_139835659_JID_3572_Energie_anion
 ------------------------------------
 Structure from the checkpoint file:  "JID_3572.chk"
 Charge = -1 Multiplicity = 2

                         Standard orientation:
 ---------------------------------------------------------------------
 Center     Atomic      Atomic             Coordinates (Angstroms)
 Number     Number       Type             X           Y           Z
 ---------------------------------------------------------------------
      1          6           0       -2.832686    1.494928   -0.258814
      2          6           0       -2.017958    0.353490    0.368912
      3          6           0       -2.917813   -0.439939    1.327186
      4          6           0       -1.385951   -0.525568   -0.742648
      5          6           0       -0.206580    0.141667   -1.496038
      6          6           0        1.167428    0.112359   -0.762874
      7          6           0        1.368231   -1.345862   -0.320500
      8          8           0        0.291194   -1.796444    0.493088
      9          6           0       -0.906277   -1.900900   -0.269307
     10          8           0        2.541832   -1.529952    0.410550
     11          6           0        1.382872    1.155905    0.368993
     12          6           0        2.879312    1.362827    0.666014
     13          6           0        0.779905    2.528352    0.030929
     14          1           0       -3.710019    1.093408   -0.782574
     15          1           0       -2.255095    2.075617   -0.984937
     16          1           0       -3.192843    2.188592    0.509225
     17          1           0       -1.213541    0.788720    0.969310
     18          1           0       -3.676836   -1.014006    0.778957
     19          1           0       -2.344360   -1.135371    1.947176
     20          1           0       -3.446773    0.242077    2.002431
     21          1           0       -2.182445   -0.713352   -1.480047
     22          1           0       -0.075273   -0.407315   -2.438709
     23          1           0       -0.455086    1.164971   -1.785393
     24          1           0        1.927998    0.320227   -1.529771
     25          1           0        1.378074   -1.980692   -1.230124
     26          1           0       -1.634293   -2.406861    0.365792
     27          1           0       -0.724989   -2.543437   -1.148262
     28          1           0        2.488749   -2.426659    0.780002
     29          1           0        0.904595    0.773489    1.279845
     30          1           0        3.389746    1.763645   -0.220359
     31          1           0        3.006355    2.092089    1.475024
     32          1           0        3.369854    0.433943    0.951574
     33          1           0       -0.308979    2.520541   -0.039976
     34          1           0        1.052374    3.256190    0.803487
     35          1           0        1.175682    2.901812   -0.922893
 ---------------------------------------------------------------------

 SCF Done:  E(UB3LYP) =  -583.078547875     A.U. after   28 cycles

 The electronic state is 2-A.
 Alpha  occ. eigenvalues --  -19.02970 -19.02371 -10.16385 -10.10658 -10.07263
 Alpha  occ. eigenvalues --  -10.07244 -10.07041 -10.06818 -10.06332 -10.05752
 Alpha  occ. eigenvalues --  -10.05584 -10.05563 -10.04972  -0.97169  -0.90688
 Alpha  occ. eigenvalues --   -0.72645  -0.70514  -0.65632  -0.63431  -0.58748
 Alpha  occ. eigenvalues --   -0.57906  -0.54336  -0.53291  -0.50499  -0.46309
 Alpha  occ. eigenvalues --   -0.43309  -0.42726  -0.40087  -0.38214  -0.36143
 Alpha  occ. eigenvalues --   -0.35613  -0.34785  -0.33296  -0.31664  -0.31164
 Alpha  occ. eigenvalues --   -0.29914  -0.28797  -0.28589  -0.28308  -0.27644
 Alpha  occ. eigenvalues --   -0.27477  -0.26615  -0.24720  -0.24317  -0.23428
 Alpha  occ. eigenvalues --   -0.22882  -0.22224  -0.21773  -0.20703  -0.19878
 Alpha  occ. eigenvalues --   -0.19194  -0.15300   0.04703
 Alpha virt. eigenvalues --    0.06800   0.07258   0.07444   0.08740   0.09167
 Alpha virt. eigenvalues --    0.09392   0.09630   0.10421   0.11334   0.11678
 Alpha virt. eigenvalues --    0.11999   0.12426   0.12932   0.13054   0.13747

  Beta  occ. eigenvalues --  -19.02950 -19.02363 -10.16367 -10.10631 -10.07259
  Beta  occ. eigenvalues --  -10.07240 -10.07037 -10.06806 -10.06312 -10.05736
  Beta  occ. eigenvalues --  -10.05556 -10.05538 -10.04963  -0.97143  -0.90660
  Beta  occ. eigenvalues --   -0.72620  -0.70493  -0.65601  -0.63388  -0.58704
  Beta  occ. eigenvalues --   -0.57869  -0.54282  -0.53245  -0.50450  -0.46267
  Beta  occ. eigenvalues --   -0.43251  -0.42682  -0.40045  -0.38160  -0.36109
  Beta  occ. eigenvalues --   -0.35587  -0.34754  -0.33259  -0.31638  -0.31129
  Beta  occ. eigenvalues --   -0.29883  -0.28764  -0.28560  -0.28285  -0.27614
  Beta  occ. eigenvalues --   -0.27452  -0.26588  -0.24691  -0.24281  -0.23399
  Beta  occ. eigenvalues --   -0.22849  -0.22203  -0.21747  -0.20668  -0.19843
  Beta  occ. eigenvalues --   -0.19164  -0.15266
  Beta virt. eigenvalues --    0.06800   0.07628   0.07773   0.08160   0.09207
  Beta virt. eigenvalues --    0.09691   0.09770   0.10150   0.10751   0.11701
  Beta virt. eigenvalues --    0.12196   0.12326   0.12698   0.13200   0.13356

 Mulliken charges and spin densities:
               1          2
     1  C    0.268545  -0.940846
     2  C   -0.956881   1.120247
     3  C    0.666534  -1.321844
     4  C   -0.478449   1.105322
     5  C    1.166650  -1.908830
     6  C   -0.170929   0.606251
     7  C    0.585921  -1.102005
     8  O   -0.183953   0.063850
     9  C    0.754626  -1.506709
    10  O   -0.276903   0.027369
    11  C   -0.313980   0.614824
    12  C   -0.236089  -0.429651
    13  C   -0.305957  -0.399661
    14  H   -0.200976   0.346963
    15  H   -0.199905   0.319909
    16  H   -0.055462   0.194512
    17  H    0.156745   0.009854
    18  H   -0.218706   0.376267
    19  H    0.031540   0.131422
    20  H   -0.064548   0.198245
    21  H   -0.286550   0.504161
    22  H   -0.426375   0.630050
    23  H    0.228184  -0.124945
    24  H   -0.052337   0.275736
    25  H   -0.270007   0.450670
    26  H   -0.215459   0.384304
    27  H   -0.334629   0.502743
    28  H   -0.009118   0.282859
    29  H    0.157738   0.036087
    30  H    0.054112   0.070540
    31  H    0.014887   0.095504
    32  H    0.154129   0.029368
    33  H    0.101888  -0.015845
    34  H    0.064011   0.061160
    35  H   -0.148295   0.312120
 Sum of Mulliken charges =  -1.00000   1.00000

 Dipole moment (field-independent basis, Debye):
    X=              2.4203    Y=              2.7088    Z=              3.1943  Tot=              4.8372
 Quadrupole moment (field-independent basis, Debye-Ang):
   XX=           -143.5228   YY=           -130.6030   ZZ=           -123.7938
   XY=              0.0118   XZ=             -1.2794   YZ=             -2.3197

 Summary of Natural Population Analysis:

                                       Natural Population
                Natural  -----------------------------------------------
    Atom  No    Charge         Core      Valence    Rydberg      Total
 -----------------------------------------------------------------------
      C    1   -0.28364      0.99965     2.27808    0.00592     3.28364
      C    2   -0.11779      0.99958     2.10852    0.00969     3.11779
      C    3   -0.28514      0.99965     2.27963    0.00587     3.28514
      C    4   -0.12193      0.99956     2.10833    0.01404     3.12193
      C    5   -0.18980      0.99960     2.17868    0.01153     3.18980
      C    6   -0.12349      0.99955     2.11020    0.01375     3.12349
      C    7    0.22806      0.99953     1.75290    0.01951     2.77194
      O    8   -0.31070      0.99988     3.30209    0.00874     4.31070
      C    9   -0.01016      0.99954     1.99666    0.01396     3.01016
      O   10   -0.36810      0.99988     3.36178    0.00644     4.36810
      C   11   -0.11611      0.99960     2.10721    0.00931     3.11611
      C   12   -0.28376      0.99965     2.27930    0.00481     3.28376
      C   13   -0.28654      0.99965     2.28070    0.00619     3.28654
      H   14    0.09886      0.00000     0.39998    0.00116     0.40114
      H   15    0.09883      0.00000     0.40006    0.00111     0.40117
      H   16    0.09704      0.00000     0.40215    0.00081     0.40296
      H   17    0.09608      0.00000     0.40097    0.00295     0.40392
      H   18    0.09790      0.00000     0.40103    0.00107     0.40210
      H   19    0.10105      0.00000     0.39804    0.00091     0.39895
      H   20    0.09796      0.00000     0.40126    0.00078     0.40204
      H   21    0.10287      0.00000     0.39467    0.00246     0.39713
      H   22    0.10339      0.00000     0.39494    0.00167     0.39661
      H   23    0.10473      0.00000     0.39380    0.00147     0.39527
      H   24    0.10186      0.00000     0.39661    0.00153     0.39814
      H   25    0.06459      0.00000     0.43297    0.00244     0.43541
      H   26    0.09516      0.00000     0.40322    0.00162     0.40484
      H   27    0.08339      0.00000     0.41433    0.00229     0.41661
      H   28    0.23468      0.00000     0.26179    0.00352     0.26532
      H   29    0.09835      0.00000     0.39954    0.00211     0.40165
      H   30    0.09193      0.00000     0.40717    0.00090     0.40807
      H   31    0.09158      0.00000     0.40765    0.00077     0.40842
      H   32    0.11471      0.00000     0.38422    0.00107     0.38529
      H   33    0.10126      0.00000     0.39768    0.00107     0.39874
      H   34    0.09663      0.00000     0.40263    0.00075     0.40337
      H   35    0.09630      0.00000     0.40285    0.00085     0.40370
 =======================================================================
   * Total *    0.00000     12.99530    38.84165    0.16305    52.00000

 Normal termination of Gaussian 16 at Mon Dec 14 17:18:01 2020.
