 Gaussian 16, Revision A.03,

 -----------------------------------------------------------
 # opt freq B3LYP/6-31G(d) empiricaldispersion=gd3bj scf=xqc
 -----------------------------------------------------------

 ------------------------------
 CID_65846034_JID_9799_neutraal
 ------------------------------
 Symbolic Z-matrix:
 Charge =  0 Multiplicity = 1

 SCF Done:  E(RB3LYP) =  -838.620168087     A.U. after   15 cycles
 SCF Done:  E(RB3LYP) =  -838.625038918     A.U. after   13 cycles
 SCF Done:  E(RB3LYP) =  -838.625549761     A.U. after   12 cycles
 SCF Done:  E(RB3LYP) =  -838.625883361     A.U. after   12 cycles
 SCF Done:  E(RB3LYP) =  -838.626259691     A.U. after   12 cycles
 SCF Done:  E(RB3LYP) =  -838.626768667     A.U. after   15 cycles
 SCF Done:  E(RB3LYP) =  -838.627461841     A.U. after   12 cycles
 SCF Done:  E(RB3LYP) =  -838.628226759     A.U. after   12 cycles
 SCF Done:  E(RB3LYP) =  -838.628423769     A.U. after   13 cycles
 SCF Done:  E(RB3LYP) =  -838.628630913     A.U. after   11 cycles
 SCF Done:  E(RB3LYP) =  -838.629587270     A.U. after   10 cycles
 SCF Done:  E(RB3LYP) =  -838.629587822     A.U. after    8 cycles
 SCF Done:  E(RB3LYP) =  -838.629588269     A.U. after    9 cycles
 SCF Done:  E(RB3LYP) =  -838.629588590     A.U. after    7 cycles
 SCF Done:  E(RB3LYP) =  -838.629588670     A.U. after    8 cycles
 Optimization completed.
    -- Stationary point found.
 Normal termination of Gaussian 16 at Sat Dec 12 10:31:10 2020.

 --------------------------------------------------------------------
 #N Geom=AllCheck Guess=TCheck SCRF=Check GenChk RB3LYP/6-31G(d) Freq
 --------------------------------------------------------------------

 Structure from the checkpoint file:  "JID_9799.chk"
 ------------------------------
 CID_65846034_JID_9799_neutraal
 ------------------------------
 Charge =  0 Multiplicity = 1

 SCF Done:  E(RB3LYP) =  -838.629588670     A.U. after    1 cycles

  Exact polarizability: 235.953 -18.098 159.770 -25.296 -12.627 127.014
 Approx polarizability: 326.544 -44.270 251.579 -49.936 -24.233 216.707

                      1                      2                      3
                      A                      A                      A
 Frequencies --     10.2840                26.6087                40.2665
 Red. masses --      5.1714                 3.5103                 4.1087
 Frc consts  --      0.0003                 0.0015                 0.0039
 IR Inten    --      0.1280                 0.7075                 1.4340

                      4                      5                      6
                      A                      A                      A
 Frequencies --     53.0648                64.5245                88.4051
 Red. masses --      3.8120                 6.5022                 1.0618
 Frc consts  --      0.0063                 0.0159                 0.0049
 IR Inten    --      2.6677                 0.7539                 0.4595

                      7                      8                      9
                      A                      A                      A
 Frequencies --    104.6715               120.6962               139.1248
 Red. masses --      4.3691                 4.3480                 1.3074
 Frc consts  --      0.0282                 0.0373                 0.0149
 IR Inten    --      1.9507                 0.6796                 1.2537

                     10                     11                     12
                      A                      A                      A
 Frequencies --    149.5396               161.9473               180.1798
 Red. masses --      2.7477                 1.0604                 2.9668
 Frc consts  --      0.0362                 0.0164                 0.0567
 IR Inten    --      0.8516                 0.0979                 6.5396

                     13                     14                     15
                      A                      A                      A
 Frequencies --    200.4256               263.6890               278.2149
 Red. masses --      3.7596                 3.2884                 2.6012
 Frc consts  --      0.0890                 0.1347                 0.1186
 IR Inten    --      1.5430                 2.8769                 1.8434

                     16                     17                     18
                      A                      A                      A
 Frequencies --    302.5490               345.5966               365.0465
 Red. masses --      2.8325                 4.1095                 5.2896
 Frc consts  --      0.1528                 0.2892                 0.4153
 IR Inten    --      1.8351                 5.9784                 1.0765

                     19                     20                     21
                      A                      A                      A
 Frequencies --    376.6521               414.5452               429.8455
 Red. masses --      4.5889                 3.6006                 3.3547
 Frc consts  --      0.3836                 0.3646                 0.3652
 IR Inten    --      0.7619                 3.2055                 0.2996

                     22                     23                     24
                      A                      A                      A
 Frequencies --    471.0052               476.3526               508.5091
 Red. masses --      3.4673                 2.5697                 1.5533
 Frc consts  --      0.4532                 0.3435                 0.2366
 IR Inten    --      5.3356                 5.0890                52.3335

                     25                     26                     27
                      A                      A                      A
 Frequencies --    520.1758               551.8965               600.2985
 Red. masses --      2.9935                 3.1522                 3.6194
 Frc consts  --      0.4772                 0.5657                 0.7685
 IR Inten    --      9.9451                18.5070                 6.5349

                     28                     29                     30
                      A                      A                      A
 Frequencies --    612.3274               642.6585               654.1880
 Red. masses --      3.5966                 1.9527                 4.4613
 Frc consts  --      0.7945                 0.4752                 1.1249
 IR Inten    --     17.8539                62.2399                 3.9388

                     31                     32                     33
                      A                      A                      A
 Frequencies --    660.6479               676.7423               710.4491
 Red. masses --      6.1243                 5.4200                 3.0361
 Frc consts  --      1.5749                 1.4625                 0.9029
 IR Inten    --      1.0419                 2.1950                13.3293

                     34                     35                     36
                      A                      A                      A
 Frequencies --    727.1767               763.4415               795.6614
 Red. masses --      3.4340                 3.1792                 1.8761
 Frc consts  --      1.0699                 1.0918                 0.6998
 IR Inten    --     13.6185                40.7959                10.4568

                     37                     38                     39
                      A                      A                      A
 Frequencies --    797.5836               813.7364               831.1670
 Red. masses --      1.8563                 2.8185                 1.4165
 Frc consts  --      0.6957                 1.0996                 0.5766
 IR Inten    --     15.0812                16.1706                 0.9743

                     40                     41                     42
                      A                      A                      A
 Frequencies --    844.4497               857.6790               931.7355
 Red. masses --      2.4233                 1.9230                 3.8283
 Frc consts  --      1.0181                 0.8334                 1.9581
 IR Inten    --     19.2776               103.0137                 6.1918

                     43                     44                     45
                      A                      A                      A
 Frequencies --    945.1915               951.1871               988.2734
 Red. masses --      1.3263                 1.3211                 2.0749
 Frc consts  --      0.6981                 0.7042                 1.1940
 IR Inten    --      0.6006                 0.6940                 7.2171

                     46                     47                     48
                      A                      A                      A
 Frequencies --   1004.4111              1035.2703              1036.9758
 Red. masses --      1.6113                 2.6532                 1.5663
 Frc consts  --      0.9577                 1.6754                 0.9923
 IR Inten    --      2.1485                 0.7301                28.5070

                     49                     50                     51
                      A                      A                      A
 Frequencies --   1040.0662              1066.7468              1072.8768
 Red. masses --      2.9205                 1.7187                 3.4200
 Frc consts  --      1.8613                 1.1523                 2.3194
 IR Inten    --      6.9246                 6.9253                48.0722

                     52                     53                     54
                      A                      A                      A
 Frequencies --   1077.6729              1081.8075              1145.9567
 Red. masses --      1.4972                 2.4054                 1.3341
 Frc consts  --      1.0245                 1.6586                 1.0322
 IR Inten    --      2.7659                 0.4166                 9.0895

                     55                     56                     57
                      A                      A                      A
 Frequencies --   1155.4269              1176.4704              1199.0678
 Red. masses --      1.3131                 1.6159                 2.1281
 Frc consts  --      1.0328                 1.3177                 1.8027
 IR Inten    --      9.7448                 4.4244                 8.0018

                     58                     59                     60
                      A                      A                      A
 Frequencies --   1210.9307              1261.0244              1268.5600
 Red. masses --      1.1235                 2.2987                 1.6634
 Frc consts  --      0.9707                 2.1537                 1.5771
 IR Inten    --      5.4902                14.3413               113.9947

                     61                     62                     63
                      A                      A                      A
 Frequencies --   1295.2150              1322.6950              1344.7456
 Red. masses --      2.2891                 4.8452                 2.0799
 Frc consts  --      2.2626                 4.9944                 2.2160
 IR Inten    --     63.5318                18.0898                 4.2673

                     64                     65                     66
                      A                      A                      A
 Frequencies --   1351.1518              1354.2540              1382.3644
 Red. masses --      2.1799                 2.7126                 1.3326
 Frc consts  --      2.3448                 2.9312                 1.5004
 IR Inten    --     47.2635               219.1550                 8.6810

                     67                     68                     69
                      A                      A                      A
 Frequencies --   1422.9685              1426.3478              1436.9050
 Red. masses --      2.7394                 1.4346                 1.4920
 Frc consts  --      3.2682                 1.7196                 1.8150
 IR Inten    --     25.5273                79.1518                 0.5859

                     70                     71                     72
                      A                      A                      A
 Frequencies --   1443.7888              1471.3720              1481.8262
 Red. masses --      2.3152                 1.4335                 1.6456
 Frc consts  --      2.8434                 1.8286                 2.1290
 IR Inten    --      3.2368                11.6034                34.9347

                     73                     74                     75
                      A                      A                      A
 Frequencies --   1497.1225              1498.8381              1500.9568
 Red. masses --      1.7578                 3.7000                 1.0583
 Frc consts  --      2.3213                 4.8973                 1.4047
 IR Inten    --      4.0407                37.8773                13.6994

                     76                     77                     78
                      A                      A                      A
 Frequencies --   1508.8185              1514.4773              1515.3749
 Red. masses --      1.1474                 1.0454                 1.1134
 Frc consts  --      1.5390                 1.4127                 1.5064
 IR Inten    --      8.6361                 5.5994                 4.2829

                     79                     80                     81
                      A                      A                      A
 Frequencies --   1517.0862              1528.5346              1538.8035
 Red. masses --      1.2019                 1.2264                 1.5251
 Frc consts  --      1.6298                 1.6882                 2.1277
 IR Inten    --     21.8103                 4.4101                15.1639

                     82                     83                     84
                      A                      A                      A
 Frequencies --   1545.7421              1567.3805              1602.1572
 Red. masses --      1.4352                 2.7584                 5.3412
 Frc consts  --      2.0204                 3.9926                 8.0779
 IR Inten    --     24.2461               247.2897                27.3059

                     85                     86                     87
                      A                      A                      A
 Frequencies --   1641.7299              1676.5100              1795.0047
 Red. masses --      4.6987                 5.9718                 8.0533
 Frc consts  --      7.4616                 9.8894                15.2882
 IR Inten    --      4.1865                 8.7964               507.5712

                     88                     89                     90
                      A                      A                      A
 Frequencies --   3048.4391              3070.0896              3076.9499
 Red. masses --      1.0381                 1.0388                 1.0360
 Frc consts  --      5.6838                 5.7691                 5.7791
 IR Inten    --     40.0826                 2.6352                38.1586

                     91                     92                     93
                      A                      A                      A
 Frequencies --   3086.0619              3098.2697              3130.8225
 Red. masses --      1.0613                 1.1012                 1.1040
 Frc consts  --      5.9550                 6.2284                 6.3761
 IR Inten    --     28.1799                21.6454                17.6981

                     94                     95                     96
                      A                      A                      A
 Frequencies --   3136.6697              3144.3394              3149.2292
 Red. masses --      1.0976                 1.0999                 1.1005
 Frc consts  --      6.3626                 6.4070                 6.4307
 IR Inten    --      7.7791                10.3209                12.9480

                     97                     98                     99
                      A                      A                      A
 Frequencies --   3174.1824              3180.2760              3184.0339
 Red. masses --      1.1036                 1.1053                 1.0892
 Frc consts  --      6.5511                 6.5866                 6.5062
 IR Inten    --     12.7196                 8.2556                17.4197

                    100                    101                    102
                      A                      A                      A
 Frequencies --   3188.7819              3206.2074              3221.6047
 Red. masses --      1.0877                 1.0942                 1.0926
 Frc consts  --      6.5164                 6.6274                 6.6813
 IR Inten    --      9.5804                11.4117                 7.7219

                    103                    104                    105
                      A                      A                      A
 Frequencies --   3256.9216              3522.8178              3580.4058
 Red. masses --      1.0968                 1.0742                 1.0753
 Frc consts  --      6.8547                 7.8543                 8.1219
 IR Inten    --      3.8178                 2.6216                24.3416

 - Thermochemistry -
 -------------------
 Temperature   298.150 Kelvin.  Pressure   1.00000 Atm.
 Atom     1 has atomic number  6 and mass  12.00000

 Molecular mass:   258.14806 amu.
 Principal axes and moments of inertia in atomic units:
                           1         2         3
     Eigenvalues --  2568.915129515.22057**********
           X            0.99999   0.00278  -0.00390
           Y           -0.00288   0.99965  -0.02611
           Z            0.00383   0.02612   0.99965
 This molecule is an asymmetric top.
 Rotational symmetry number  1.
 Warning -- assumption of classical behavior for rotation
           may cause significant error
 Rotational temperatures (Kelvin)      0.03372     0.00910     0.00789
 Rotational constants (GHZ):           0.70253     0.18967     0.16432
 Zero-point vibrational energy     812981.8 (Joules/Mol)
                                  194.30732 (Kcal/Mol)
 Warning -- explicit consideration of  28 degrees of freedom as
           vibrations may cause significant error
 Vibrational temperatures:     14.80    38.28    57.93    76.35    92.84
          (Kelvin)            127.20   150.60   173.65   200.17   215.15
                              233.01   259.24   288.37   379.39   400.29
                              435.30   497.24   525.22   541.92   596.44
                              618.45   677.67   685.37   731.63   748.42
                              794.06   863.70   881.00   924.64   941.23
                              950.53   973.68  1022.18  1046.25  1098.42
                             1144.78  1147.54  1170.79  1195.86  1214.97
                             1234.01  1340.56  1359.92  1368.55  1421.90
                             1445.12  1489.52  1491.98  1496.42  1534.81
                             1543.63  1550.53  1556.48  1648.78  1662.40
                             1692.68  1725.19  1742.26  1814.33  1825.17
                             1863.53  1903.06  1934.79  1944.01  1948.47
                             1988.91  2047.33  2052.20  2067.39  2077.29
                             2116.98  2132.02  2154.03  2156.49  2159.54
                             2170.85  2179.00  2180.29  2182.75  2199.22
                             2214.00  2223.98  2255.11  2305.15  2362.08
                             2412.12  2582.61  4386.02  4417.17  4427.04
                             4440.15  4457.72  4504.56  4512.97  4524.00
                             4531.04  4566.94  4575.71  4581.11  4587.95
                             4613.02  4635.17  4685.98  5068.55  5151.41

 Zero-point correction=                           0.309648 (Hartree/Particle)
 Thermal correction to Energy=                    0.328352
 Thermal correction to Enthalpy=                  0.329296
 Thermal correction to Gibbs Free Energy=         0.259773
 Sum of electronic and zero-point Energies=           -838.319940
 Sum of electronic and thermal Energies=              -838.301237
 Sum of electronic and thermal Enthalpies=            -838.300292
 Sum of electronic and thermal Free Energies=         -838.369816

                     E (Thermal)             CV                S
                      KCal/Mol        Cal/Mol-Kelvin    Cal/Mol-Kelvin
 Total                  206.044             69.578            146.325
 Electronic               0.000              0.000              0.000
 Translational            0.889              2.981             42.545
 Rotational               0.889              2.981             33.951
 Vibrational            204.267             63.616             69.829
 Vibration     1          0.593              1.987              7.955
 Vibration     2          0.593              1.984              6.067
 Vibration     3          0.594              1.981              5.246
 Vibration     4          0.596              1.976              4.700
 Vibration     5          0.597              1.971              4.314
 Vibration     6          0.601              1.957              3.695
 Vibration     7          0.605              1.945              3.365
 Vibration     8          0.609              1.932              3.089
 Vibration     9          0.615              1.914              2.816
 Vibration    10          0.618              1.903              2.678
 Vibration    11          0.622              1.889              2.527
 Vibration    12          0.629              1.867              2.327
 Vibration    13          0.638              1.839              2.129
 Vibration    14          0.670              1.739              1.637
 Vibration    15          0.679              1.714              1.545
 Vibration    16          0.694              1.669              1.403
 Vibration    17          0.724              1.584              1.186
 Vibration    18          0.738              1.544              1.101
 Vibration    19          0.747              1.520              1.053
 Vibration    20          0.778              1.439              0.911
 Vibration    21          0.791              1.405              0.859
 Vibration    22          0.828              1.314              0.735
 Vibration    23          0.833              1.303              0.720
 Vibration    24          0.864              1.231              0.637
 Vibration    25          0.875              1.205              0.610
 Vibration    26          0.907              1.136              0.540
 Vibration    27          0.958              1.031              0.449
 Vibration    28          0.972              1.006              0.429

                           ! Non-Optimized Parameters !
 Normal termination of Gaussian 16 at Sat Dec 12 10:48:14 2020.

 ----------------------------------------------------------------------
 # B3LYP/6-311++G(d,p) empiricaldispersion=gd3bj scf=xqc pop=npa geom=c
 heck
 ----------------------------------------------------------------------

 --------------------------------------
 CID_65846034_JID_9799_Energie_neutraal
 --------------------------------------
 Structure from the checkpoint file:  "JID_9799.chk"
 Charge =  0 Multiplicity = 1

 SCF Done:  E(RB3LYP) =  -838.862036749     A.U. after   16 cycles
 Normal termination of Gaussian 16 at Sat Dec 12 10:56:24 2020.

 ----------------------------------------------------------------------
 # B3LYP/6-311++G(d,p) empiricaldispersion=gd3bj scf=xqc pop=npa geom=c
 heck
 ----------------------------------------------------------------------

 ------------------------------------
 CID_65846034_JID_9799_Energie_kation
 ------------------------------------
 Structure from the checkpoint file:  "JID_9799.chk"
 Charge =  1 Multiplicity = 2

 SCF Done:  E(UB3LYP) =  -838.584368381     A.U. after   25 cycles
 Normal termination of Gaussian 16 at Sat Dec 12 11:14:55 2020.
 Gaussian 16:  ES64L-G16RevA.03 25-Dec-2016

 ----------------------------------------------------------------------
 # B3LYP/6-311++G(d,p) empiricaldispersion=gd3bj scf=xqc pop=npa geom=c
 heck
 ----------------------------------------------------------------------

 -----------------------------------
 CID_65846034_JID_9799_Energie_anion
 -----------------------------------
 Structure from the checkpoint file:  "JID_9799.chk"
 Charge = -1 Multiplicity = 2

                         Standard orientation:
 ---------------------------------------------------------------------
 Center     Atomic      Atomic             Coordinates (Angstroms)
 Number     Number       Type             X           Y           Z
 ---------------------------------------------------------------------
      1          6           0       -4.995942   -2.232056    0.643844
      2          6           0       -3.974939   -1.247644    0.163600
      3          7           0       -2.911487   -1.660457   -0.530066
      4          7           0       -2.208858   -0.537725   -0.820617
      5          6           0       -2.802790    0.588135   -0.321484
      6          6           0       -3.952331    0.157387    0.322702
      7          6           0       -2.229127    1.973151   -0.392248
      8          7           0       -1.241478    2.266024    0.669053
      9          6           0        0.052310    1.730262    0.508945
     10          6           0        0.598330    0.843245    1.446976
     11          6           0        1.883821    0.332817    1.287844
     12          6           0        2.639446    0.652406    0.154350
     13          6           0        2.102360    1.549900   -0.779258
     14          6           0        0.840536    2.099726   -0.593526
     15          7           0        3.941014    0.133032   -0.046867
     16          6           0        4.386403   -1.175190   -0.017796
     17          8           0        5.561046   -1.425131   -0.246310
     18          6           0        3.373308   -2.261065    0.294020
     19          6           0       -0.958328   -0.679316   -1.542236
     20          1           0       -4.699270   -3.243573    0.354705
     21          1           0       -5.101070   -2.201259    1.734991
     22          1           0       -5.984248   -2.026728    0.215252
     23          1           0       -4.681764    0.781537    0.820997
     24          1           0       -1.755700    2.167228   -1.357960
     25          1           0       -3.048887    2.690638   -0.292718
     26          1           0       -1.631966    1.985613    1.564776
     27          1           0        0.008410    0.550286    2.311855
     28          1           0        2.301133   -0.322871    2.044000
     29          1           0        2.688368    1.819678   -1.653672
     30          1           0        0.453950    2.818105   -1.309991
     31          1           0        4.657460    0.775061   -0.366075
     32          1           0        3.291294   -2.405808    1.376938
     33          1           0        2.375600   -2.034835   -0.090832
     34          1           0        3.744283   -3.189794   -0.142282
     35          1           0       -0.116910   -0.819561   -0.856889
     36          1           0       -1.051339   -1.549929   -2.192517
     37          1           0       -0.770385    0.210614   -2.145020
 ---------------------------------------------------------------------

 SCF Done:  E(UB3LYP) =  -838.854137266     A.U. after   33 cycles
 SCF Done:  E(UB3LYP) =  -838.854137266     a.u. after    2 cycles

 The electronic state is 2-A.
 Alpha  occ. eigenvalues --  -19.00606 -14.29610 -14.25877 -14.23240 -14.23116
 Alpha  occ. eigenvalues --  -10.19481 -10.12696 -10.12668 -10.12162 -10.11951
 Alpha  occ. eigenvalues --  -10.11766 -10.10518 -10.09271 -10.09092 -10.08958
 Alpha  occ. eigenvalues --  -10.08696 -10.08334 -10.08282 -10.07067  -0.95833
 Alpha  occ. eigenvalues --   -0.95593  -0.85191  -0.84474  -0.75878  -0.75406
 Alpha  occ. eigenvalues --   -0.70615  -0.66942  -0.65992  -0.65170  -0.64853
 Alpha  occ. eigenvalues --   -0.59923  -0.58382  -0.53755  -0.53017  -0.50175
 Alpha  occ. eigenvalues --   -0.48841  -0.45896  -0.45354  -0.43331  -0.42161
 Alpha  occ. eigenvalues --   -0.39840  -0.39403  -0.38176  -0.36629  -0.36343
 Alpha  occ. eigenvalues --   -0.35748  -0.35434  -0.34548  -0.33782  -0.33668
 Alpha  occ. eigenvalues --   -0.33313  -0.32490  -0.32085  -0.31313  -0.30487
 Alpha  occ. eigenvalues --   -0.30201  -0.29615  -0.29057  -0.28054  -0.27703
 Alpha  occ. eigenvalues --   -0.26301  -0.22346  -0.20265  -0.18122  -0.17874
 Alpha  occ. eigenvalues --   -0.17400  -0.15814  -0.15269  -0.11931   0.03770
 Alpha virt. eigenvalues --    0.05698   0.06140   0.06347   0.06545   0.06925
 Alpha virt. eigenvalues --    0.07718   0.08069   0.08294   0.08907   0.09473
 Alpha virt. eigenvalues --    0.09810   0.10099   0.10502   0.10861   0.11317

  Beta  occ. eigenvalues --  -19.00601 -14.29608 -14.25873 -14.23234 -14.23107
  Beta  occ. eigenvalues --  -10.19477 -10.12677 -10.12638 -10.12144 -10.11951
  Beta  occ. eigenvalues --  -10.11751 -10.10518 -10.09259 -10.09082 -10.08900
  Beta  occ. eigenvalues --  -10.08689 -10.08320 -10.08219 -10.07051  -0.95822
  Beta  occ. eigenvalues --   -0.95588  -0.85156  -0.84438  -0.75852  -0.75363
  Beta  occ. eigenvalues --   -0.70594  -0.66878  -0.65932  -0.65150  -0.64798
  Beta  occ. eigenvalues --   -0.59873  -0.58351  -0.53679  -0.52969  -0.50150
  Beta  occ. eigenvalues --   -0.48783  -0.45865  -0.45303  -0.43285  -0.42124
  Beta  occ. eigenvalues --   -0.39811  -0.39378  -0.38146  -0.36598  -0.36288
  Beta  occ. eigenvalues --   -0.35712  -0.35392  -0.34514  -0.33745  -0.33637
  Beta  occ. eigenvalues --   -0.33282  -0.32465  -0.32066  -0.31280  -0.30435
  Beta  occ. eigenvalues --   -0.30157  -0.29579  -0.29032  -0.28031  -0.27627
  Beta  occ. eigenvalues --   -0.26253  -0.22257  -0.20245  -0.18087  -0.17862
  Beta  occ. eigenvalues --   -0.17211  -0.15793  -0.15256  -0.11830
  Beta virt. eigenvalues --    0.05827   0.06329   0.06387   0.06807   0.07151
  Beta virt. eigenvalues --    0.07305   0.08020   0.08497   0.08651   0.09135
  Beta virt. eigenvalues --    0.09595   0.09958   0.10375   0.10753   0.11080

 Mulliken charges and spin densities:
               1          2
     1  C    0.592614  -1.310891
     2  C    0.550983  -0.574164
     3  N   -0.226942   0.215374
     4  N    0.262619  -0.113496
     5  C   -0.021791   0.377811
     6  C    0.502499  -0.498121
     7  C   -1.185122   0.121409
     8  N    0.209007   0.025509
     9  C    0.711649  -1.380079
    10  C   -0.872695   1.155293
    11  C    0.231754  -0.257397
    12  C    1.116732  -1.785067
    13  C   -1.332482   1.507552
    14  C    1.071919  -1.198963
    15  N   -0.143407   0.009255
    16  C    0.193358  -0.135145
    17  O   -0.369842   0.021718
    18  C   -0.129807  -0.297564
    19  C   -0.287165  -0.053413
    20  H    0.093802   0.052141
    21  H   -0.026472   0.175958
    22  H    0.010427   0.131049
    23  H   -0.497896   0.674630
    24  H   -0.163646   0.320250
    25  H   -0.389179   0.593913
    26  H    0.128377   0.095880
    27  H   -0.499966   0.662768
    28  H   -0.146093   0.325706
    29  H   -0.639415   0.833366
    30  H   -0.561745   0.745643
    31  H    0.199872   0.100245
    32  H    0.046309   0.118933
    33  H    0.011956   0.154598
    34  H    0.149354   0.025268
    35  H    0.432809  -0.195564
    36  H    0.026722   0.172224
    37  H   -0.049094   0.183371
 Sum of Mulliken charges =  -1.00000   1.00000

 Dipole moment (field-independent basis, Debye):
    X=             -0.8613    Y=             -2.5680    Z=              0.5940  Tot=              2.7730
 Quadrupole moment (field-independent basis, Debye-Ang):
   XX=           -215.7880   YY=           -163.4939   ZZ=           -150.4914
   XY=              7.4846   XZ=              5.0943   YZ=              4.1937

 Summary of Natural Population Analysis:

                                       Natural Population
                Natural  -----------------------------------------------
    Atom  No    Charge         Core      Valence    Rydberg      Total
 -----------------------------------------------------------------------
      C    1   -0.29686      0.99963     2.29273    0.00450     3.29686
      C    2    0.07263      0.99960     1.91426    0.01351     2.92737
      N    3   -0.16180      0.99970     2.65093    0.01117     3.66180
      N    4   -0.10693      0.99962     2.59521    0.01209     3.60693
      C    5    0.07763      0.99951     1.91025    0.01260     2.92237
      C    6   -0.15925      0.99945     2.15074    0.00906     3.15925
      C    7   -0.10275      0.99956     2.09171    0.01148     3.10275
      N    8   -0.31573      0.99970     2.80410    0.01193     3.81573
      C    9    0.08164      0.99947     1.90650    0.01239     2.91836
      C   10   -0.11593      0.99951     2.10641    0.01000     3.11593
      C   11   -0.09452      0.99952     2.08547    0.00953     3.09452
      C   12    0.05633      0.99946     1.93218    0.01203     2.94367
      C   13   -0.10059      0.99952     2.09062    0.01044     3.10059
      C   14   -0.10427      0.99951     2.09410    0.01066     3.10427
      N   15   -0.31526      0.99965     2.80533    0.01028     3.81526
      C   16    0.34577      0.99970     1.63363    0.02091     2.65423
      O   17   -0.32319      0.99988     3.31710    0.00622     4.32319
      C   18   -0.33423      0.99962     2.33034    0.00426     3.33423
      C   19   -0.17341      0.99963     2.16665    0.00713     3.17341
      H   20    0.10756      0.00000     0.39133    0.00111     0.39244
      H   21    0.10317      0.00000     0.39555    0.00128     0.39683
      H   22    0.10165      0.00000     0.39713    0.00122     0.39835
      H   23    0.10887      0.00000     0.38995    0.00119     0.39113
      H   24    0.10443      0.00000     0.39367    0.00190     0.39557
      H   25    0.10673      0.00000     0.39175    0.00151     0.39327
      H   26    0.17917      0.00000     0.31733    0.00350     0.32083
      H   27    0.10342      0.00000     0.39527    0.00131     0.39658
      H   28    0.10361      0.00000     0.39482    0.00157     0.39639
      H   29    0.10454      0.00000     0.39376    0.00170     0.39546
      H   30    0.10657      0.00000     0.39131    0.00212     0.39343
      H   31    0.19748      0.00000     0.30004    0.00248     0.30252
      H   32    0.11135      0.00000     0.38757    0.00108     0.38865
      H   33    0.11095      0.00000     0.38782    0.00123     0.38905
      H   34    0.11156      0.00000     0.38754    0.00090     0.38844
      H   35    0.10232      0.00000     0.39588    0.00180     0.39768
      H   36    0.10538      0.00000     0.39337    0.00124     0.39462
      H   37    0.10195      0.00000     0.39673    0.00132     0.39805
 =======================================================================
   * Total *    0.00000     18.99225    49.77909    0.22866    69.00000

 Normal termination of Gaussian 16 at Sat Dec 12 12:14:25 2020.
