 Gaussian 16, Revision A.03,

 -----------------------------------------------------------
 # opt freq B3LYP/6-31G(d) empiricaldispersion=gd3bj scf=xqc
 -----------------------------------------------------------

 ------------------------------
 CID_82752884_JID_9667_neutraal
 ------------------------------
 Symbolic Z-matrix:
 Charge =  0 Multiplicity = 1

 SCF Done:  E(RB3LYP) =  -805.167045332     A.U. after   14 cycles
 SCF Done:  E(RB3LYP) =  -805.174205320     A.U. after   12 cycles
 SCF Done:  E(RB3LYP) =  -805.176066946     A.U. after   12 cycles
 SCF Done:  E(RB3LYP) =  -805.178146506     A.U. after   12 cycles
 SCF Done:  E(RB3LYP) =  -805.179412627     A.U. after   12 cycles
 SCF Done:  E(RB3LYP) =  -805.179768682     A.U. after   10 cycles
 SCF Done:  E(RB3LYP) =  -805.179933226     A.U. after   10 cycles
 SCF Done:  E(RB3LYP) =  -805.179977240     A.U. after   10 cycles
 SCF Done:  E(RB3LYP) =  -805.180009598     A.U. after   10 cycles
 SCF Done:  E(RB3LYP) =  -805.180019404     A.U. after    9 cycles
 SCF Done:  E(RB3LYP) =  -805.180055728     A.U. after   10 cycles
 SCF Done:  E(RB3LYP) =  -805.180056261     A.U. after    7 cycles
 SCF Done:  E(RB3LYP) =  -805.180056517     A.U. after    8 cycles
 SCF Done:  E(RB3LYP) =  -805.180056579     A.U. after    6 cycles
 SCF Done:  E(RB3LYP) =  -805.180056580     A.U. after    5 cycles
 Optimization completed.
    -- Stationary point found.
 Normal termination of Gaussian 16 at Mon Dec 14 17:22:04 2020.

 --------------------------------------------------------------------
 #N Geom=AllCheck Guess=TCheck SCRF=Check GenChk RB3LYP/6-31G(d) Freq
 --------------------------------------------------------------------

 Structure from the checkpoint file:  "JID_9667.chk"
 ------------------------------
 CID_82752884_JID_9667_neutraal
 ------------------------------
 Charge =  0 Multiplicity = 1

 SCF Done:  E(RB3LYP) =  -805.180056580     A.U. after    1 cycles

  Exact polarizability: 230.573   3.440 206.336  -1.213   2.357 121.900
 Approx polarizability: 305.464  14.073 287.164   2.878   9.243 191.777

                      1                      2                      3
                      A                      A                      A
 Frequencies --     32.7982                34.9022                39.1324
 Red. masses --      1.2801                 2.2117                 3.0620
 Frc consts  --      0.0008                 0.0016                 0.0028
 IR Inten    --      0.1007                 1.0976                 0.1430

                      4                      5                      6
                      A                      A                      A
 Frequencies --     61.1890                77.3112                84.2573
 Red. masses --      3.2198                 3.2616                 2.0348
 Frc consts  --      0.0071                 0.0115                 0.0085
 IR Inten    --      0.0726                 0.2536                 6.4461

                      7                      8                      9
                      A                      A                      A
 Frequencies --    121.8376               146.0496               179.4641
 Red. masses --      3.5202                 2.9891                 2.6663
 Frc consts  --      0.0308                 0.0376                 0.0506
 IR Inten    --      0.8464                 1.5981                 0.8312

                     10                     11                     12
                      A                      A                      A
 Frequencies --    202.4721               216.8365               224.2666
 Red. masses --      3.0199                 3.1902                 4.4933
 Frc consts  --      0.0729                 0.0884                 0.1332
 IR Inten    --      1.0614                 1.8302                 2.7085

                     13                     14                     15
                      A                      A                      A
 Frequencies --    235.1235               254.4546               270.7547
 Red. masses --      3.2486                 2.7130                 1.3146
 Frc consts  --      0.1058                 0.1035                 0.0568
 IR Inten    --      1.4593                 3.2569                 4.3768

                     16                     17                     18
                      A                      A                      A
 Frequencies --    301.6074               328.8673               344.1483
 Red. masses --      2.8816                 1.9672                 3.0552
 Frc consts  --      0.1544                 0.1254                 0.2132
 IR Inten    --      1.1265                 0.3730                 3.9127

                     19                     20                     21
                      A                      A                      A
 Frequencies --    369.1158               387.1418               409.9189
 Red. masses --      4.1671                 2.3102                 3.5521
 Frc consts  --      0.3345                 0.2040                 0.3517
 IR Inten    --      0.8322                 7.1447                 6.9391

                     22                     23                     24
                      A                      A                      A
 Frequencies --    447.3772               470.8973               485.6729
 Red. masses --      1.5074                 2.1679                 2.5005
 Frc consts  --      0.1778                 0.2832                 0.3475
 IR Inten    --     79.6441                26.7845                 1.9293

                     25                     26                     27
                      A                      A                      A
 Frequencies --    521.6238               557.2524               588.3026
 Red. masses --      2.7009                 2.9589                 3.4417
 Frc consts  --      0.4330                 0.5414                 0.7018
 IR Inten    --      2.4925                 0.8183                 8.4292

                     28                     29                     30
                      A                      A                      A
 Frequencies --    607.0305               624.0356               653.7674
 Red. masses --      2.7334                 3.0152                 4.8573
 Frc consts  --      0.5934                 0.6918                 1.2232
 IR Inten    --      0.9333                 0.7687                11.1694

                     31                     32                     33
                      A                      A                      A
 Frequencies --    705.2471               734.6127               759.6083
 Red. masses --     10.1343                 2.8653                 1.4451
 Frc consts  --      2.9698                 0.9110                 0.4913
 IR Inten    --      6.1546                 0.9767                 1.6497

                     34                     35                     36
                      A                      A                      A
 Frequencies --    804.0618               811.0542               836.3386
 Red. masses --      2.1612                 4.2578                 1.1516
 Frc consts  --      0.8232                 1.6502                 0.4746
 IR Inten    --      0.2342                42.4905                 0.4497

                     37                     38                     39
                      A                      A                      A
 Frequencies --    849.8763               851.6187               872.0901
 Red. masses --      2.4416                 1.7832                 1.9435
 Frc consts  --      1.0391                 0.7620                 0.8709
 IR Inten    --      2.1733                 2.8978                 1.1491

                     40                     41                     42
                      A                      A                      A
 Frequencies --    898.0530               924.4958               931.7785
 Red. masses --      1.6248                 2.0307                 1.8821
 Frc consts  --      0.7721                 1.0226                 0.9628
 IR Inten    --      5.3645                 0.6736                 1.1522

                     43                     44                     45
                      A                      A                      A
 Frequencies --    951.7644               961.6670               990.3218
 Red. masses --      2.3512                 1.9696                 3.0064
 Frc consts  --      1.2549                 1.0732                 1.7372
 IR Inten    --      0.2757                 0.4700                 3.9255

                     46                     47                     48
                      A                      A                      A
 Frequencies --    998.1489              1014.6267              1028.1389
 Red. masses --      4.6993                 1.4171                 2.0789
 Frc consts  --      2.7585                 0.8595                 1.2947
 IR Inten    --     15.5231                 5.1505                 7.2058

                     49                     50                     51
                      A                      A                      A
 Frequencies --   1044.0192              1071.0330              1075.7830
 Red. masses --      2.6914                 1.5393                 1.6260
 Frc consts  --      1.7284                 1.0403                 1.1087
 IR Inten    --      4.8280                 1.6750                 4.7429

                     52                     53                     54
                      A                      A                      A
 Frequencies --   1078.1239              1090.2949              1109.4192
 Red. masses --      1.8858                 2.1824                 2.2661
 Frc consts  --      1.2915                 1.5285                 1.6433
 IR Inten    --      0.1829                10.0631                 3.1416

                     55                     56                     57
                      A                      A                      A
 Frequencies --   1118.7627              1126.9776              1154.0880
 Red. masses --      1.8985                 2.0697                 1.8326
 Frc consts  --      1.4000                 1.5488                 1.4381
 IR Inten    --      3.6574                 0.1080                 1.2623

                     58                     59                     60
                      A                      A                      A
 Frequencies --   1171.6629              1180.9018              1204.5647
 Red. masses --      1.9848                 1.5078                 1.7695
 Frc consts  --      1.6053                 1.2389                 1.5127
 IR Inten    --      1.8270                 5.7442                 2.9293

                     61                     62                     63
                      A                      A                      A
 Frequencies --   1211.7322              1222.2616              1228.8455
 Red. masses --      2.7145                 1.8008                 1.9674
 Frc consts  --      2.3483                 1.5850                 1.7504
 IR Inten    --     17.4744                31.2255                57.8068

                     64                     65                     66
                      A                      A                      A
 Frequencies --   1258.8259              1283.3895              1285.8652
 Red. masses --      1.4936                 1.4660                 1.3278
 Frc consts  --      1.3945                 1.4226                 1.2935
 IR Inten    --     21.4635                 3.2983                13.1528

                     67                     68                     69
                      A                      A                      A
 Frequencies --   1296.5521              1310.3910              1314.8264
 Red. masses --      2.4767                 1.2014                 1.5249
 Frc consts  --      2.4531                 1.2155                 1.5532
 IR Inten    --     27.4634                 2.8506                81.6130

                     70                     71                     72
                      A                      A                      A
 Frequencies --   1322.4997              1343.5921              1357.8062
 Red. masses --      1.4398                 1.5051                 1.3052
 Frc consts  --      1.4837                 1.6008                 1.4178
 IR Inten    --      9.8330                26.8437                16.5123

                     73                     74                     75
                      A                      A                      A
 Frequencies --   1370.6661              1371.3860              1386.9610
 Red. masses --      1.4481                 1.3499                 1.6306
 Frc consts  --      1.6030                 1.4958                 1.8481
 IR Inten    --      4.6794                 6.9318                43.4930

                     76                     77                     78
                      A                      A                      A
 Frequencies --   1391.3957              1397.0294              1404.9502
 Red. masses --      1.4862                 1.3461                 1.6181
 Frc consts  --      1.6952                 1.5479                 1.8819
 IR Inten    --     36.9085                 4.3692                42.8456

                     79                     80                     81
                      A                      A                      A
 Frequencies --   1408.0508              1417.8393              1432.6559
 Red. masses --      1.5447                 1.3739                 1.5647
 Frc consts  --      1.8044                 1.6273                 1.8922
 IR Inten    --      5.1226                64.1818                31.8641

                     82                     83                     84
                      A                      A                      A
 Frequencies --   1435.5417              1445.4690              1464.3426
 Red. masses --      1.5028                 1.4334                 3.0336
 Frc consts  --      1.8246                 1.7646                 3.8326
 IR Inten    --     24.5960                48.1201                73.7227

                     85                     86                     87
                      A                      A                      A
 Frequencies --   1499.5537              1509.1909              1515.8848
 Red. masses --      1.2945                 1.0589                 1.0992
 Frc consts  --      1.7150                 1.4210                 1.4882
 IR Inten    --     37.2241                 9.2635                 3.0221

                     88                     89                     90
                      A                      A                      A
 Frequencies --   1516.6903              1523.4974              1523.7609
 Red. masses --      1.0858                 1.0435                 1.1098
 Frc consts  --      1.4717                 1.4271                 1.5182
 IR Inten    --      2.3893                 6.5646                 8.0468

                     91                     92                     93
                      A                      A                      A
 Frequencies --   1527.1876              1532.1437              1536.3484
 Red. masses --      1.0956                 1.1731                 1.8740
 Frc consts  --      1.5055                 1.6225                 2.6061
 IR Inten    --      7.2583                64.1840               203.1881

                     94                     95                     96
                      A                      A                      A
 Frequencies --   1537.9377              1554.7707              1558.9299
 Red. masses --      1.1373                 1.1694                 1.1335
 Frc consts  --      1.5849                 1.6655                 1.6231
 IR Inten    --     38.8246                 7.9717                77.7781

                     97                     98                     99
                      A                      A                      A
 Frequencies --   1573.1765              1605.4749              1645.8646
 Red. masses --      4.0650                 4.6111                 5.6925
 Frc consts  --      5.9274                 7.0027                 9.0853
 IR Inten    --     34.4441               373.3310               947.0308

                    100                    101                    102
                      A                      A                      A
 Frequencies --   2939.1102              2985.6950              2997.7312
 Red. masses --      1.0809                 1.0711                 1.0817
 Frc consts  --      5.5015                 5.6255                 5.7275
 IR Inten    --     28.9649                45.2961                10.7406

                    103                    104                    105
                      A                      A                      A
 Frequencies --   3025.5148              3030.1032              3033.7562
 Red. masses --      1.0701                 1.0666                 1.0606
 Frc consts  --      5.7713                 5.7701                 5.7515
 IR Inten    --     17.2053                21.0240                33.3277

                    106                    107                    108
                      A                      A                      A
 Frequencies --   3040.8628              3043.3290              3053.2043
 Red. masses --      1.0902                 1.0741                 1.0646
 Frc consts  --      5.9396                 5.8615                 5.8472
 IR Inten    --     23.4371                41.2856                17.9998

                    109                    110                    111
                      A                      A                      A
 Frequencies --   3054.0709              3054.8410              3059.9110
 Red. masses --      1.0378                 1.0665                 1.0384
 Frc consts  --      5.7031                 5.8640                 5.7283
 IR Inten    --     29.5020                48.4397                16.9434

                    112                    113                    114
                      A                      A                      A
 Frequencies --   3076.2922              3080.2301              3085.4366
 Red. masses --      1.0970                 1.0954                 1.1016
 Frc consts  --      6.1168                 6.1236                 6.1786
 IR Inten    --     54.0615                49.2585                69.1937

                    115                    116                    117
                      A                      A                      A
 Frequencies --   3111.5575              3112.2102              3117.1356
 Red. masses --      1.0973                 1.0998                 1.0989
 Frc consts  --      6.2596                 6.2761                 6.2912
 IR Inten    --     14.7514                71.0742                14.9101

                    118                    119                    120
                      A                      A                      A
 Frequencies --   3120.3640              3136.6209              3139.3160
 Red. masses --      1.1017                 1.1026                 1.0941
 Frc consts  --      6.3200                 6.3912                 6.3530
 IR Inten    --     33.7332                24.3401                13.7899

                    121                    122                    123
                      A                      A                      A
 Frequencies --   3164.5879              3268.1845              3606.7074
 Red. masses --      1.1023                 1.0895                 1.0761
 Frc consts  --      6.5042                 6.8563                 8.2477
 IR Inten    --     14.4790                 9.6091                35.7332

 - Thermochemistry -
 -------------------
 Temperature   298.150 Kelvin.  Pressure   1.00000 Atm.
 Atom     1 has atomic number  6 and mass  12.00000

 Molecular mass:   260.20010 amu.
 Principal axes and moments of inertia in atomic units:
                           1         2         3
     Eigenvalues --  3613.682187500.24913**********
           X            0.99994   0.01058   0.00136
           Y           -0.01058   0.99994   0.00013
           Z           -0.00136  -0.00014   1.00000
 This molecule is an asymmetric top.
 Rotational symmetry number  1.
 Warning -- assumption of classical behavior for rotation
           may cause significant error
 Rotational temperatures (Kelvin)      0.02397     0.01155     0.00816
 Rotational constants (GHZ):           0.49942     0.24062     0.17002
 Zero-point vibrational energy    1007774.9 (Joules/Mol)
                                  240.86398 (Kcal/Mol)
 Warning -- explicit consideration of  28 degrees of freedom as
           vibrations may cause significant error
 Vibrational temperatures:     47.19    50.22    56.30    88.04   111.23
          (Kelvin)            121.23   175.30   210.13   258.21   291.31
                              311.98   322.67   338.29   366.10   389.56
                              433.95   473.17   495.15   531.08   557.01
                              589.78   643.68   677.52   698.78   750.50
                              801.76   846.44   873.38   897.85   940.63
                             1014.69  1056.94  1092.91  1156.87  1166.93
                             1203.30  1222.78  1225.29  1254.74  1292.10
                             1330.14  1340.62  1369.38  1383.62  1424.85
                             1436.11  1459.82  1479.26  1502.11  1540.98
                             1547.81  1551.18  1568.69  1596.21  1609.65
                             1621.47  1660.48  1685.76  1699.05  1733.10
                             1743.41  1758.56  1768.03  1811.17  1846.51
                             1850.07  1865.45  1885.36  1891.74  1902.78
                             1933.13  1953.58  1972.08  1973.12  1995.53
                             2001.91  2010.01  2021.41  2025.87  2039.95
                             2061.27  2065.42  2079.71  2106.86  2157.52
                             2171.39  2181.02  2182.18  2191.97  2192.35
                             2197.28  2204.41  2210.46  2212.75  2236.97
                             2242.95  2263.45  2309.92  2368.03  4228.72
                             4295.75  4313.07  4353.04  4359.64  4364.90
                             4375.12  4378.67  4392.88  4394.13  4395.23
                             4402.53  4426.10  4431.76  4439.26  4476.84
                             4477.78  4484.86  4489.51  4512.90  4516.78
                             4553.14  4702.19  5189.25

 Zero-point correction=                           0.383841 (Hartree/Particle)
 Thermal correction to Energy=                    0.402171
 Thermal correction to Enthalpy=                  0.403115
 Thermal correction to Gibbs Free Energy=         0.336246
 Sum of electronic and zero-point Energies=           -804.796215
 Sum of electronic and thermal Energies=              -804.777886
 Sum of electronic and thermal Enthalpies=            -804.776942
 Sum of electronic and thermal Free Energies=         -804.843810

                     E (Thermal)             CV                S
                      KCal/Mol        Cal/Mol-Kelvin    Cal/Mol-Kelvin
 Total                  252.366             70.752            140.737
 Electronic               0.000              0.000              0.000
 Translational            0.889              2.981             42.568
 Rotational               0.889              2.981             34.019
 Vibrational            250.588             64.790             64.149
 Vibration     1          0.594              1.983              5.653
 Vibration     2          0.594              1.983              5.529
 Vibration     3          0.594              1.981              5.303
 Vibration     4          0.597              1.973              4.418
 Vibration     5          0.599              1.964              3.958
 Vibration     6          0.601              1.960              3.789
 Vibration     7          0.609              1.931              3.071
 Vibration     8          0.617              1.907              2.723
 Vibration     9          0.629              1.868              2.334
 Vibration    10          0.639              1.836              2.111
 Vibration    11          0.646              1.815              1.985
 Vibration    12          0.649              1.804              1.924
 Vibration    13          0.655              1.787              1.839
 Vibration    14          0.665              1.755              1.700
 Vibration    15          0.674              1.727              1.591
 Vibration    16          0.694              1.671              1.408
 Vibration    17          0.712              1.618              1.266
 Vibration    18          0.723              1.587              1.193
 Vibration    19          0.741              1.536              1.083
 Vibration    20          0.756              1.498              1.011
 Vibration    21          0.774              1.449              0.927
 Vibration    22          0.807              1.367              0.804
 Vibration    23          0.828              1.315              0.735
 Vibration    24          0.842              1.282              0.695
 Vibration    25          0.877              1.202              0.606
 Vibration    26          0.913              1.124              0.529
 Vibration    27          0.946              1.057              0.470
 Vibration    28          0.966              1.017              0.438

 Optimization completed.
    -- Stationary point found.
 Normal termination of Gaussian 16 at Mon Dec 14 17:42:33 2020.

 ----------------------------------------------------------------------
 # B3LYP/6-311++G(d,p) empiricaldispersion=gd3bj scf=xqc pop=npa geom=c
 heck
 ----------------------------------------------------------------------

 --------------------------------------
 CID_82752884_JID_9667_Energie_neutraal
 --------------------------------------
 Structure from the checkpoint file:  "JID_9667.chk"
 Charge =  0 Multiplicity = 1

 SCF Done:  E(RB3LYP) =  -805.392942566     A.U. after   15 cycles
 Normal termination of Gaussian 16 at Mon Dec 14 17:51:21 2020.

 ----------------------------------------------------------------------
 # B3LYP/6-311++G(d,p) empiricaldispersion=gd3bj scf=xqc pop=npa geom=c
 heck
 ----------------------------------------------------------------------

 ------------------------------------
 CID_82752884_JID_9667_Energie_kation
 ------------------------------------
 Structure from the checkpoint file:  "JID_9667.chk"
 Charge =  1 Multiplicity = 2

 SCF Done:  E(UB3LYP) =  -805.124299021     A.U. after   23 cycles
 Normal termination of Gaussian 16 at Mon Dec 14 18:10:07 2020.
 Gaussian 16:  ES64L-G16RevA.03 25-Dec-2016

 ----------------------------------------------------------------------
 # B3LYP/6-311++G(d,p) empiricaldispersion=gd3bj scf=xqc pop=npa geom=c
 heck
 ----------------------------------------------------------------------

 -----------------------------------
 CID_82752884_JID_9667_Energie_anion
 -----------------------------------
 Structure from the checkpoint file:  "JID_9667.chk"
 Charge = -1 Multiplicity = 2

                         Standard orientation:
 ---------------------------------------------------------------------
 Center     Atomic      Atomic             Coordinates (Angstroms)
 Number     Number       Type             X           Y           Z
 ---------------------------------------------------------------------
      1          6           0        4.005771    3.600389    0.422996
      2          6           0        2.849600    2.606135    0.401932
      3          7           0        3.327256    1.281016    0.063221
      4          6           0        2.525191    0.176869   -0.018216
      5          6           0        1.129518    0.256743   -0.004491
      6          6           0        0.431729   -0.957970   -0.130790
      7          7           0        1.081878   -2.139217   -0.217734
      8          6           0        2.419269   -2.091845   -0.201512
      9          7           0        3.183905   -1.002282   -0.118059
     10          6           0        3.129880   -3.416683   -0.302404
     11          7           0       -0.935704   -1.022197   -0.156169
     12          6           0       -1.627813   -2.273183    0.220384
     13          6           0       -2.903923   -1.785205    0.926425
     14          6           0       -3.196668   -0.492804    0.166948
     15          6           0       -1.803997    0.139818    0.033114
     16          6           0       -1.848485    1.209857   -1.061595
     17          6           0       -2.864959    2.285501   -0.628651
     18          6           0       -4.256788    1.709784   -0.305593
     19          6           0       -4.199877    0.530458    0.685909
     20          1           0        4.749458    3.321742    1.179151
     21          1           0        3.643836    4.604595    0.663459
     22          1           0        4.504031    3.636927   -0.551549
     23          1           0        2.333908    2.605521    1.376758
     24          1           0        2.108141    2.919396   -0.345512
     25          1           0        4.301390    1.064141    0.227932
     26          1           0        0.621411    1.200291    0.122140
     27          1           0        2.949552   -3.866082   -1.286013
     28          1           0        4.204205   -3.284510   -0.161924
     29          1           0        2.739203   -4.114765    0.445187
     30          1           0       -0.976153   -2.884464    0.846559
     31          1           0       -1.869630   -2.862694   -0.673213
     32          1           0       -2.700697   -1.572959    1.984117
     33          1           0       -3.717001   -2.515985    0.875325
     34          1           0       -3.511356   -0.781613   -0.848599
     35          1           0       -1.547329    0.639102    0.986038
     36          1           0       -2.155474    0.741599   -2.005614
     37          1           0       -0.870983    1.666992   -1.239520
     38          1           0       -2.953704    3.050994   -1.408493
     39          1           0       -2.473337    2.796187    0.263090
     40          1           0       -4.905292    2.504291    0.082802
     41          1           0       -4.719711    1.356647   -1.237855
     42          1           0       -3.891415    0.882873    1.680493
     43          1           0       -5.195101    0.083346    0.799706
 ---------------------------------------------------------------------

 SCF Done:  E(UB3LYP) =  -805.381225400     A.U. after   33 cycles
 SCF Done:  E(UB3LYP) =  -805.381225400     a.u. after    1 cycles

 The electronic state is 2-A.
 Alpha  occ. eigenvalues --  -14.24270 -14.23756 -14.20172 -14.19811 -10.15584
 Alpha  occ. eigenvalues --  -10.15519 -10.14768 -10.11721 -10.11575 -10.11328
 Alpha  occ. eigenvalues --  -10.08840 -10.08646 -10.07920 -10.07889 -10.07766
 Alpha  occ. eigenvalues --  -10.07742 -10.07644 -10.07592 -10.07179  -0.90243
 Alpha  occ. eigenvalues --   -0.87352  -0.83976  -0.77623  -0.74157  -0.71039
 Alpha  occ. eigenvalues --   -0.68568  -0.65941  -0.65236  -0.63801  -0.62617
 Alpha  occ. eigenvalues --   -0.55974  -0.55550  -0.54057  -0.51393  -0.49683
 Alpha  occ. eigenvalues --   -0.49151  -0.47748  -0.45133  -0.43420  -0.40208
 Alpha  occ. eigenvalues --   -0.39645  -0.38213  -0.37940  -0.37151  -0.35909
 Alpha  occ. eigenvalues --   -0.35372  -0.35099  -0.34560  -0.33801  -0.32490
 Alpha  occ. eigenvalues --   -0.31796  -0.31255  -0.30840  -0.30223  -0.29862
 Alpha  occ. eigenvalues --   -0.29198  -0.28373  -0.27902  -0.27568  -0.26828
 Alpha  occ. eigenvalues --   -0.26327  -0.24661  -0.23987  -0.23674  -0.22945
 Alpha  occ. eigenvalues --   -0.21442  -0.20283  -0.20043  -0.16098  -0.13695
 Alpha  occ. eigenvalues --   -0.12521   0.03958
 Alpha virt. eigenvalues --    0.05425   0.06386   0.06918   0.06989   0.07519
 Alpha virt. eigenvalues --    0.07801   0.08463   0.08567   0.08893   0.09099
 Alpha virt. eigenvalues --    0.09389   0.09605   0.10284   0.10478   0.11181

  Beta  occ. eigenvalues --  -14.24268 -14.23751 -14.20171 -14.19810 -10.15584
  Beta  occ. eigenvalues --  -10.15518 -10.14767 -10.11714 -10.11548 -10.11325
  Beta  occ. eigenvalues --  -10.08835 -10.08634 -10.07918 -10.07869 -10.07757
  Beta  occ. eigenvalues --  -10.07697 -10.07624 -10.07570 -10.07172  -0.90239
  Beta  occ. eigenvalues --   -0.87344  -0.83965  -0.77615  -0.74138  -0.71023
  Beta  occ. eigenvalues --   -0.68549  -0.65902  -0.65209  -0.63779  -0.62603
  Beta  occ. eigenvalues --   -0.55956  -0.55481  -0.54018  -0.51354  -0.49647
  Beta  occ. eigenvalues --   -0.49114  -0.47710  -0.45112  -0.43402  -0.40186
  Beta  occ. eigenvalues --   -0.39618  -0.38187  -0.37919  -0.37123  -0.35880
  Beta  occ. eigenvalues --   -0.35360  -0.35076  -0.34535  -0.33779  -0.32469
  Beta  occ. eigenvalues --   -0.31782  -0.31232  -0.30824  -0.30204  -0.29843
  Beta  occ. eigenvalues --   -0.29156  -0.28303  -0.27865  -0.27537  -0.26804
  Beta  occ. eigenvalues --   -0.26304  -0.24632  -0.23965  -0.23648  -0.22912
  Beta  occ. eigenvalues --   -0.21410  -0.20279  -0.20032  -0.16095  -0.13688
  Beta  occ. eigenvalues --   -0.12512
  Beta virt. eigenvalues --    0.05936   0.06385   0.06725   0.07176   0.07333
  Beta virt. eigenvalues --    0.07780   0.08032   0.08662   0.09016   0.09270
  Beta virt. eigenvalues --    0.09365   0.09630   0.09812   0.10482   0.10658

 Mulliken charges and spin densities:
               1          2
     1  C    1.589445  -2.300307
     2  C   -0.673900   0.580878
     3  N   -0.245082   0.123502
     4  C   -0.026718  -0.284555
     5  C   -0.068426   0.137058
     6  C   -0.105559   0.074625
     7  N   -0.156373   0.020783
     8  C   -0.257076  -0.001184
     9  N   -0.072511  -0.018955
    10  C   -0.213415  -0.091361
    11  N    0.429896   0.004670
    12  C   -0.230175   0.078689
    13  C    0.371556  -0.982751
    14  C   -0.896585   1.363919
    15  C    0.312032  -1.326329
    16  C   -0.220208   0.357903
    17  C    0.394421  -0.803215
    18  C    0.177405  -0.694794
    19  C    0.010119  -0.411081
    20  H   -0.286230   0.422120
    21  H   -0.469227   0.636461
    22  H   -0.132268   0.282821
    23  H   -0.284321   0.457133
    24  H   -0.028592   0.181931
    25  H    0.269442   0.025384
    26  H    0.144503  -0.018504
    27  H    0.148157   0.009088
    28  H    0.135329   0.013620
    29  H    0.115791   0.028471
    30  H    0.251743  -0.051693
    31  H    0.054783   0.098935
    32  H   -0.011076   0.155660
    33  H   -0.030874   0.198860
    34  H    0.040111   0.155091
    35  H    0.051592   0.179333
    36  H    0.061298   0.091952
    37  H   -0.069408   0.264869
    38  H   -0.376772   0.565263
    39  H   -0.021369   0.154974
    40  H   -0.394123   0.587273
    41  H    0.101873   0.018854
    42  H    0.038080   0.094219
    43  H   -0.427289   0.620389
 Sum of Mulliken charges =  -1.00000   1.00000

 Dipole moment (field-independent basis, Debye):
    X=              0.9836    Y=             -7.9778    Z=             -0.9828  Tot=              8.0980
 Quadrupole moment (field-independent basis, Debye-Ang):
   XX=           -214.5228   YY=           -191.9877   ZZ=           -148.0621
   XY=             -7.3037   XZ=             -0.5691   YZ=             -4.2019

 Summary of Natural Population Analysis:

                                       Natural Population
                Natural  -----------------------------------------------
    Atom  No    Charge         Core      Valence    Rydberg      Total
 -----------------------------------------------------------------------
      C    1   -0.28762      0.99967     2.28259    0.00535     3.28762
      C    2   -0.08788      0.99964     2.07754    0.01071     3.08788
      N    3   -0.30535      0.99966     2.79552    0.01017     3.80535
      C    4    0.22178      0.99954     1.76416    0.01452     2.77822
      C    5   -0.20421      0.99948     2.19806    0.00667     3.20421
      C    6    0.23280      0.99953     1.75466    0.01301     2.76720
      N    7   -0.30035      0.99964     2.79128    0.00942     3.80035
      C    8    0.22925      0.99964     1.75453    0.01657     2.77075
      N    9   -0.29520      0.99965     2.78593    0.00962     3.79520
      C   10   -0.30045      0.99963     2.29535    0.00547     3.30045
      N   11   -0.24650      0.99962     2.73746    0.00941     3.74650
      C   12   -0.07679      0.99963     2.06862    0.00854     3.07679
      C   13   -0.19204      0.99961     2.18427    0.00817     3.19204
      C   14   -0.10945      0.99957     2.09920    0.01068     3.10945
      C   15    0.00006      0.99955     1.98879    0.01159     2.99994
      C   16   -0.19235      0.99960     2.18344    0.00931     3.19235
      C   17   -0.19002      0.99963     2.18157    0.00882     3.19002
      C   18   -0.18711      0.99963     2.17941    0.00807     3.18711
      C   19   -0.18728      0.99960     2.17858    0.00910     3.18728
      H   20    0.09638      0.00000     0.40227    0.00135     0.40362
      H   21    0.10807      0.00000     0.39010    0.00183     0.39193
      H   22    0.09908      0.00000     0.39972    0.00119     0.40092
      H   23    0.09047      0.00000     0.40777    0.00176     0.40953
      H   24    0.09531      0.00000     0.40274    0.00195     0.40469
      H   25    0.19164      0.00000     0.30540    0.00296     0.30836
      H   26    0.11121      0.00000     0.38645    0.00234     0.38879
      H   27    0.10485      0.00000     0.39409    0.00106     0.39515
      H   28    0.10470      0.00000     0.39444    0.00087     0.39530
      H   29    0.10441      0.00000     0.39451    0.00108     0.39559
      H   30    0.10660      0.00000     0.39217    0.00124     0.39340
      H   31    0.09171      0.00000     0.40701    0.00128     0.40829
      H   32    0.09672      0.00000     0.40210    0.00118     0.40328
      H   33    0.10273      0.00000     0.39637    0.00090     0.39727
      H   34    0.09405      0.00000     0.40403    0.00192     0.40595
      H   35    0.09077      0.00000     0.40716    0.00207     0.40923
      H   36    0.09569      0.00000     0.40287    0.00144     0.40431
      H   37    0.10362      0.00000     0.39495    0.00143     0.39638
      H   38    0.10290      0.00000     0.39591    0.00119     0.39710
      H   39    0.09607      0.00000     0.40236    0.00157     0.40393
      H   40    0.10169      0.00000     0.39707    0.00125     0.39831
      H   41    0.09225      0.00000     0.40646    0.00130     0.40775
      H   42    0.09594      0.00000     0.40274    0.00132     0.40406
      H   43    0.10185      0.00000     0.39688    0.00127     0.39815
 =======================================================================
   * Total *    0.00000     18.99252    51.78654    0.22095    71.00000

 Normal termination of Gaussian 16 at Mon Dec 14 18:36:47 2020.
