 Gaussian 16, Revision A.03,

 -----------------------------------------------------------
 # opt freq B3LYP/6-31G(d) empiricaldispersion=gd3bj scf=xqc
 -----------------------------------------------------------

 -------------------------------
 CID_152533135_JID_2786_neutraal
 -------------------------------
 Symbolic Z-matrix:
 Charge =  0 Multiplicity = 1

 SCF Done:  E(RB3LYP) =  -569.316529276     A.U. after   15 cycles
 SCF Done:  E(RB3LYP) =  -569.319888017     A.U. after   13 cycles
 SCF Done:  E(RB3LYP) =  -569.321088078     A.U. after   14 cycles
 SCF Done:  E(RB3LYP) =  -569.321252418     A.U. after   13 cycles
 SCF Done:  E(RB3LYP) =  -569.322888312     A.U. after   13 cycles
 SCF Done:  E(RB3LYP) =  -569.323807422     A.U. after   12 cycles
 SCF Done:  E(RB3LYP) =  -569.324415762     A.U. after   12 cycles
 SCF Done:  E(RB3LYP) =  -569.324646842     A.U. after   12 cycles
 SCF Done:  E(RB3LYP) =  -569.324767480     A.U. after   12 cycles
 SCF Done:  E(RB3LYP) =  -569.324851307     A.U. after   12 cycles
 SCF Done:  E(RB3LYP) =  -569.325129755     A.U. after   13 cycles
 SCF Done:  E(RB3LYP) =  -569.325163368     A.U. after   11 cycles
 SCF Done:  E(RB3LYP) =  -569.325187108     A.U. after   12 cycles
 SCF Done:  E(RB3LYP) =  -569.325188456     A.U. after    9 cycles
 SCF Done:  E(RB3LYP) =  -569.325189029     A.U. after    9 cycles
 SCF Done:  E(RB3LYP) =  -569.325189068     A.U. after    7 cycles
 Optimization completed.
    -- Stationary point found.
 Normal termination of Gaussian 16 at Wed Dec  9 18:04:17 2020.

 --------------------------------------------------------------------
 #N Geom=AllCheck Guess=TCheck SCRF=Check GenChk RB3LYP/6-31G(d) Freq
 --------------------------------------------------------------------

 Structure from the checkpoint file:  "JID_2786.chk"
 -------------------------------
 CID_152533135_JID_2786_neutraal
 -------------------------------
 Charge =  0 Multiplicity = 1

 SCF Done:  E(RB3LYP) =  -569.325189068     A.U. after    1 cycles

  Exact polarizability: 136.536   1.233  87.203   2.853   2.757  84.101
 Approx polarizability: 214.910  -6.484 126.088  11.506   3.687 125.479

                      1                      2                      3
                      A                      A                      A
 Frequencies --     40.5030                60.8755                76.4915
 Red. masses --      6.4508                 5.5536                 4.6034
 Frc consts  --      0.0062                 0.0121                 0.0159
 IR Inten    --      0.7963                 0.8125                 0.2078

                      4                      5                      6
                      A                      A                      A
 Frequencies --    141.0326               144.4686               178.2670
 Red. masses --      4.0353                 4.2437                 3.7165
 Frc consts  --      0.0473                 0.0522                 0.0696
 IR Inten    --      6.1690                 5.0513                 5.7223

                      7                      8                      9
                      A                      A                      A
 Frequencies --    205.5026               231.1420               241.8157
 Red. masses --      2.9649                 1.5328                 1.1829
 Frc consts  --      0.0738                 0.0482                 0.0408
 IR Inten    --      3.5421                 1.0543                 0.0062

                     10                     11                     12
                      A                      A                      A
 Frequencies --    275.2491               319.0914               338.9037
 Red. masses --      1.7717                 2.1452                 2.3399
 Frc consts  --      0.0791                 0.1287                 0.1583
 IR Inten    --      2.6090                 5.7119                 4.5212

                     13                     14                     15
                      A                      A                      A
 Frequencies --    364.0812               388.3433               460.0312
 Red. masses --      2.7171                 2.0541                 2.1460
 Frc consts  --      0.2122                 0.1825                 0.2676
 IR Inten    --      1.5124                 1.0093                 0.7742

                     16                     17                     18
                      A                      A                      A
 Frequencies --    527.5195               554.0956               582.1275
 Red. masses --      4.0081                 2.8228                12.9680
 Frc consts  --      0.6572                 0.5106                 2.5892
 IR Inten    --      5.6274                 0.2373                12.5537

                     19                     20                     21
                      A                      A                      A
 Frequencies --    663.4617               673.4167               828.2988
 Red. masses --      4.1717                 4.7560                 7.4195
 Frc consts  --      1.0819                 1.2707                 2.9992
 IR Inten    --     38.3547                27.7060               121.1203

                     22                     23                     24
                      A                      A                      A
 Frequencies --    854.9772               864.7460               897.3902
 Red. masses --      3.7770                 3.6427                 2.1536
 Frc consts  --      1.6267                 1.6049                 1.0218
 IR Inten    --     14.0924                13.5595                 2.7382

                     25                     26                     27
                      A                      A                      A
 Frequencies --    936.4922               942.4428               983.7639
 Red. masses --      2.0494                 1.3825                 2.8442
 Frc consts  --      1.0590                 0.7235                 1.6218
 IR Inten    --      4.5390                 3.1005                11.0822

                     28                     29                     30
                      A                      A                      A
 Frequencies --   1008.3674              1028.5846              1044.0943
 Red. masses --      1.7663                 9.3574                 1.8478
 Frc consts  --      1.0582                 5.8329                 1.1868
 IR Inten    --      2.0807                73.4811                 7.7014

                     31                     32                     33
                      A                      A                      A
 Frequencies --   1054.5974              1085.9960              1150.2973
 Red. masses --      1.6216                 1.8321                 1.5470
 Frc consts  --      1.0626                 1.2731                 1.2060
 IR Inten    --     12.7564                62.6781                18.3238

                     34                     35                     36
                      A                      A                      A
 Frequencies --   1173.8937              1178.5458              1181.2788
 Red. masses --      1.0731                 1.3125                 2.0297
 Frc consts  --      0.8712                 1.0741                 1.6687
 IR Inten    --      0.1037                 2.3096                18.5987

                     37                     38                     39
                      A                      A                      A
 Frequencies --   1205.7734              1230.1040              1292.5048
 Red. masses --      2.3286                 2.1718                 2.6859
 Frc consts  --      1.9947                 1.9363                 2.6437
 IR Inten    --     14.0506                20.3558                80.0751

                     40                     41                     42
                      A                      A                      A
 Frequencies --   1299.4318              1312.3687              1320.3705
 Red. masses --      2.2836                 3.5146                 1.2934
 Frc consts  --      2.2719                 3.5664                 1.3286
 IR Inten    --      9.5587               141.7211                 4.3408

                     43                     44                     45
                      A                      A                      A
 Frequencies --   1352.4440              1375.9911              1393.2413
 Red. masses --      1.4900                 1.3514                 1.6119
 Frc consts  --      1.6057                 1.5076                 1.8435
 IR Inten    --      2.8818                24.5081                 5.8553

                     46                     47                     48
                      A                      A                      A
 Frequencies --   1438.1963              1439.6265              1456.2234
 Red. masses --      1.2890                 1.2503                 1.3150
 Frc consts  --      1.5709                 1.5267                 1.6430
 IR Inten    --      7.1707                 2.2072                 6.9161

                     49                     50                     51
                      A                      A                      A
 Frequencies --   1487.4850              1515.6003              1519.5259
 Red. masses --      1.1833                 1.0488                 1.0749
 Frc consts  --      1.5425                 1.4194                 1.4622
 IR Inten    --      0.9658                14.4637                 0.7330

                     52                     53                     54
                      A                      A                      A
 Frequencies --   1526.1014              1528.7865              1536.5545
 Red. masses --      1.0522                 1.0623                 1.0808
 Frc consts  --      1.4439                 1.4628                 1.5035
 IR Inten    --      4.8153                 3.7889                 4.0311

                     55                     56                     57
                      A                      A                      A
 Frequencies --   1547.7562              1549.8323              1571.9845
 Red. masses --      1.0591                 1.0954                 1.0973
 Frc consts  --      1.4948                 1.5502                 1.5976
 IR Inten    --      8.5435                12.3074                 6.9036

                     58                     59                     60
                      A                      A                      A
 Frequencies --   2248.3793              2967.5789              2987.6043
 Red. masses --     13.6483                 1.0710                 1.0557
 Frc consts  --     40.6506                 5.5571                 5.5520
 IR Inten    --    630.1036                33.2034                59.4248

                     61                     62                     63
                      A                      A                      A
 Frequencies --   3032.3136              3038.5105              3045.2356
 Red. masses --      1.0604                 1.0503                 1.0518
 Frc consts  --      5.7447                 5.7134                 5.7466
 IR Inten    --     78.9172                23.0933                58.3921

                     64                     65                     66
                      A                      A                      A
 Frequencies --   3068.1532              3077.8661              3087.5397
 Red. masses --      1.0884                 1.0712                 1.0773
 Frc consts  --      6.0365                 5.9788                 6.0509
 IR Inten    --     28.7896                16.6136                40.7157

                     67                     68                     69
                      A                      A                      A
 Frequencies --   3100.2580              3105.5860              3113.4155
 Red. masses --      1.1044                 1.1018                 1.1031
 Frc consts  --      6.2544                 6.2611                 6.2999
 IR Inten    --     26.9693                28.8184                19.2529

                     70                     71                     72
                      A                      A                      A
 Frequencies --   3120.0731              3129.5121              3189.7127
 Red. masses --      1.1024                 1.1040                 1.0997
 Frc consts  --      6.3232                 6.3703                 6.5919
 IR Inten    --     40.5070                28.3344                 4.4608

 - Thermochemistry -
 -------------------
 Temperature   298.150 Kelvin.  Pressure   1.00000 Atm.
 Atom     1 has atomic number  6 and mass  12.00000

 Molecular mass:   170.11676 amu.
 Principal axes and moments of inertia in atomic units:
                           1         2         3
     Eigenvalues --  1071.518413238.341123586.04789
           X            0.99974  -0.00529  -0.02209
           Y            0.00532   0.99998   0.00153
           Z            0.02208  -0.00164   0.99975
 This molecule is an asymmetric top.
 Rotational symmetry number  1.
 Warning -- assumption of classical behavior for rotation
           may cause significant error
 Rotational temperatures (Kelvin)      0.08083     0.02675     0.02415
 Rotational constants (GHZ):           1.68428     0.55730     0.50327
 Zero-point vibrational energy     585523.2 (Joules/Mol)
                                  139.94339 (Kcal/Mol)
 Warning -- explicit consideration of  18 degrees of freedom as
           vibrations may cause significant error
 Vibrational temperatures:     58.27    87.59   110.05   202.91   207.86
          (Kelvin)            256.49   295.67   332.56   347.92   396.02
                              459.10   487.61   523.83   558.74   661.88
                              758.98   797.22   837.55   954.57   968.90
                             1191.74  1230.12  1244.18  1291.14  1347.40
                             1355.96  1415.42  1450.82  1479.90  1502.22
                             1517.33  1562.51  1655.02  1688.97  1695.66
                             1699.60  1734.84  1769.85  1859.63  1869.59
                             1888.21  1899.72  1945.87  1979.74  2004.56
                             2069.24  2071.30  2095.18  2140.16  2180.61
                             2186.26  2195.72  2199.58  2210.76  2226.88
                             2229.86  2261.74  3234.92  4269.68  4298.50
                             4362.82  4371.74  4381.41  4414.39  4428.36
                             4442.28  4460.58  4468.25  4479.51  4489.09
                             4502.67  4589.29

 Zero-point correction=                           0.223014 (Hartree/Particle)
 Thermal correction to Energy=                    0.235496
 Thermal correction to Enthalpy=                  0.236440
 Thermal correction to Gibbs Free Energy=         0.183846
 Sum of electronic and zero-point Energies=           -569.102175
 Sum of electronic and thermal Energies=              -569.089693
 Sum of electronic and thermal Enthalpies=            -569.088749
 Sum of electronic and thermal Free Energies=         -569.141343

                     E (Thermal)             CV                S
                      KCal/Mol        Cal/Mol-Kelvin    Cal/Mol-Kelvin
 Total                  147.776             45.751            110.693
 Electronic               0.000              0.000              0.000
 Translational            0.889              2.981             41.302
 Rotational               0.889              2.981             30.899
 Vibrational            145.999             39.789             38.493
 Vibration     1          0.594              1.981              5.234
 Vibration     2          0.597              1.973              4.429
 Vibration     3          0.599              1.965              3.979
 Vibration     4          0.615              1.912              2.790
 Vibration     5          0.616              1.909              2.744
 Vibration     6          0.629              1.869              2.346
 Vibration     7          0.640              1.832              2.083
 Vibration     8          0.653              1.793              1.870
 Vibration     9          0.658              1.776              1.789
 Vibration    10          0.677              1.719              1.563
 Vibration    11          0.705              1.637              1.315
 Vibration    12          0.719              1.598              1.217
 Vibration    13          0.738              1.546              1.105
 Vibration    14          0.757              1.495              1.006
 Vibration    15          0.818              1.339              0.766
 Vibration    16          0.882              1.189              0.593
 Vibration    17          0.910              1.131              0.536
 Vibration    18          0.939              1.070              0.481

 Optimization completed.
    -- Stationary point found.
 Normal termination of Gaussian 16 at Wed Dec  9 18:10:38 2020.

 ----------------------------------------------------------------------
 # B3LYP/6-311++G(d,p) empiricaldispersion=gd3bj scf=xqc pop=npa geom=c
 heck
 ----------------------------------------------------------------------

 ---------------------------------------
 CID_152533135_JID_2786_Energie_neutraal
 ---------------------------------------
 Structure from the checkpoint file:  "JID_2786.chk"
 Charge =  0 Multiplicity = 1

 SCF Done:  E(RB3LYP) =  -569.485003212     A.U. after   15 cycles
 Normal termination of Gaussian 16 at Wed Dec  9 18:13:34 2020.

 ----------------------------------------------------------------------
 # B3LYP/6-311++G(d,p) empiricaldispersion=gd3bj scf=xqc pop=npa geom=c
 heck
 ----------------------------------------------------------------------

 -------------------------------------
 CID_152533135_JID_2786_Energie_kation
 -------------------------------------
 Structure from the checkpoint file:  "JID_2786.chk"
 Charge =  1 Multiplicity = 2

 SCF Done:  E(UB3LYP) =  -569.174734525     A.U. after   26 cycles
 Normal termination of Gaussian 16 at Wed Dec  9 18:19:27 2020.
 Gaussian 16:  ES64L-G16RevA.03 25-Dec-2016

 ----------------------------------------------------------------------
 # B3LYP/6-311++G(d,p) empiricaldispersion=gd3bj scf=xqc pop=npa geom=c
 heck
 ----------------------------------------------------------------------

 ------------------------------------
 CID_152533135_JID_2786_Energie_anion
 ------------------------------------
 Structure from the checkpoint file:  "JID_2786.chk"
 Charge = -1 Multiplicity = 2

                         Standard orientation:
 ---------------------------------------------------------------------
 Center     Atomic      Atomic             Coordinates (Angstroms)
 Number     Number       Type             X           Y           Z
 ---------------------------------------------------------------------
      1          6           0        2.874141    0.902461   -1.183188
      2          6           0        1.799447    0.222702   -0.337055
      3          6           0        2.237653   -0.214163    1.081325
      4          8           0        1.894562   -1.598119    0.812671
      5          6           0        1.654298   -1.299608   -0.585326
      6          6           0        0.505488    1.053774   -0.417171
      7          7           0       -0.474679    0.884650    0.661027
      8          6           0       -1.471866    1.950791    0.628422
      9          6           0       -1.055888   -0.420518    0.795770
     10          7           0       -1.784324   -0.919144   -0.435227
     11          7           0       -2.990952   -0.671309   -0.475065
     12          7           0       -4.116083   -0.505101   -0.601258
     13          1           0        3.126574    1.890510   -0.780073
     14          1           0        3.790248    0.303086   -1.208931
     15          1           0        2.533041    1.040062   -2.216835
     16          1           0        3.311866   -0.097087    1.277187
     17          1           0        1.658250    0.196156    1.913549
     18          1           0        0.679307   -1.661546   -0.928845
     19          1           0        2.440890   -1.722640   -1.224555
     20          1           0        0.788917    2.112399   -0.391601
     21          1           0        0.043836    0.877630   -1.405538
     22          1           0       -2.040847    1.987891   -0.316306
     23          1           0       -2.180677    1.813660    1.451199
     24          1           0       -0.976947    2.918113    0.761641
     25          1           0       -0.279279   -1.159107    0.981335
     26          1           0       -1.749036   -0.410481    1.643408
 ---------------------------------------------------------------------

 SCF Done:  E(UB3LYP) =  -569.473870792     A.U. after   32 cycles

 The electronic state is 2-A.
 Alpha  occ. eigenvalues --  -19.01819 -14.35447 -14.25349 -14.23927 -14.21390
 Alpha  occ. eigenvalues --  -10.12880 -10.11133 -10.11086 -10.09298 -10.08959
 Alpha  occ. eigenvalues --  -10.08791 -10.05963  -1.01867  -0.94117  -0.86706
 Alpha  occ. eigenvalues --   -0.82364  -0.69791  -0.63037  -0.59940  -0.59087
 Alpha  occ. eigenvalues --   -0.56036  -0.51932  -0.45099  -0.42550  -0.41454
 Alpha  occ. eigenvalues --   -0.40499  -0.38613  -0.37409  -0.37070  -0.35454
 Alpha  occ. eigenvalues --   -0.34408  -0.33573  -0.31785  -0.31016  -0.30184
 Alpha  occ. eigenvalues --   -0.29886  -0.28617  -0.28059  -0.26932  -0.23934
 Alpha  occ. eigenvalues --   -0.21160  -0.20378  -0.19884  -0.15586  -0.15029
 Alpha  occ. eigenvalues --   -0.12465   0.04615
 Alpha virt. eigenvalues --    0.06612   0.07379   0.08473   0.08726   0.09706
 Alpha virt. eigenvalues --    0.10318   0.10424   0.11068   0.11594   0.11857
 Alpha virt. eigenvalues --    0.12572   0.13043   0.13800   0.14450   0.15236

  Beta  occ. eigenvalues --  -19.01813 -14.35271 -14.25095 -14.23973 -14.21381
  Beta  occ. eigenvalues --  -10.12824 -10.11114 -10.11069 -10.09272 -10.08931
  Beta  occ. eigenvalues --  -10.08791 -10.05915  -1.01515  -0.94104  -0.86560
  Beta  occ. eigenvalues --   -0.82295  -0.69764  -0.62933  -0.59881  -0.59049
  Beta  occ. eigenvalues --   -0.55970  -0.51819  -0.45035  -0.42476  -0.41160
  Beta  occ. eigenvalues --   -0.40415  -0.38179  -0.37296  -0.36967  -0.35353
  Beta  occ. eigenvalues --   -0.34320  -0.33103  -0.31723  -0.30933  -0.30141
  Beta  occ. eigenvalues --   -0.29835  -0.28501  -0.27978  -0.26887  -0.23883
  Beta  occ. eigenvalues --   -0.21132  -0.20286  -0.19633  -0.15552  -0.14941
  Beta  occ. eigenvalues --   -0.12345
  Beta virt. eigenvalues --    0.07172   0.08056   0.08368   0.09057   0.09446
  Beta virt. eigenvalues --    0.10181   0.10782   0.10836   0.11322   0.11848
  Beta virt. eigenvalues --    0.12239   0.12946   0.13428   0.14113   0.14660

 Mulliken charges and spin densities:
               1          2
     1  C    1.392667  -1.892856
     2  C   -2.771666   3.242134
     3  C    0.660462  -0.991469
     4  O   -0.199002   0.007173
     5  C    0.490774  -0.835665
     6  C    1.245379  -2.044881
     7  N   -0.060740   0.220792
     8  C    0.564300  -0.830355
     9  C   -0.381510  -0.318896
    10  N   -1.033457   1.044709
    11  N    0.877768  -0.389181
    12  N    0.070007  -0.432591
    13  H   -0.564866   0.730952
    14  H   -0.359384   0.503499
    15  H   -0.291881   0.438830
    16  H   -0.240857   0.385570
    17  H   -0.048201   0.249886
    18  H   -0.015421   0.252224
    19  H   -0.136215   0.289204
    20  H    0.099474   0.083031
    21  H    0.073158   0.109124
    22  H    0.014490   0.131816
    23  H    0.092178   0.046463
    24  H   -0.596901   0.733644
    25  H    0.354070  -0.130012
    26  H   -0.234625   0.396855
 Sum of Mulliken charges =  -1.00000   1.00000

 Dipole moment (field-independent basis, Debye):
    X=             -2.4535    Y=             -2.8566    Z=              1.3730  Tot=              4.0081
 Quadrupole moment (field-independent basis, Debye-Ang):
   XX=           -142.5962   YY=           -115.9867   ZZ=           -103.2592
   XY=             -7.5051   XZ=              0.6058   YZ=              0.1070

 Summary of Natural Population Analysis:

                                       Natural Population
                Natural  -----------------------------------------------
    Atom  No    Charge         Core      Valence    Rydberg      Total
 -----------------------------------------------------------------------
      C    1   -0.28261      0.99963     2.27599    0.00699     3.28261
      C    2   -0.07212      0.99957     2.05888    0.01367     3.07212
      C    3   -0.00102      0.99957     1.98881    0.01264     3.00102
      O    4   -0.31074      0.99991     3.30314    0.00768     4.31074
      C    5   -0.00462      0.99957     1.99308    0.01198     3.00462
      C    6   -0.08192      0.99955     2.06944    0.01293     3.08192
      N    7   -0.27468      0.99971     2.76149    0.01348     3.77468
      C    8   -0.17831      0.99964     2.17017    0.00849     3.17831
      C    9    0.00103      0.99956     1.98583    0.01358     2.99897
      N   10   -0.21271      0.99971     2.69942    0.01358     3.71271
      N   11    0.12836      0.99971     2.35664    0.01530     3.37164
      N   12   -0.03910      0.99982     2.52555    0.01373     3.53910
      H   13    0.10450      0.00000     0.39324    0.00226     0.39550
      H   14    0.10146      0.00000     0.39666    0.00188     0.39854
      H   15    0.10197      0.00000     0.39651    0.00151     0.39803
      H   16    0.08285      0.00000     0.41553    0.00163     0.41715
      H   17    0.09194      0.00000     0.40609    0.00197     0.40806
      H   18    0.09273      0.00000     0.40524    0.00204     0.40727
      H   19    0.08269      0.00000     0.41587    0.00144     0.41731
      H   20    0.10167      0.00000     0.39584    0.00248     0.39833
      H   21    0.09161      0.00000     0.40678    0.00161     0.40839
      H   22    0.08460      0.00000     0.41399    0.00141     0.41540
      H   23    0.09518      0.00000     0.40379    0.00104     0.40482
      H   24    0.09973      0.00000     0.39879    0.00148     0.40027
      H   25    0.10773      0.00000     0.38960    0.00267     0.39227
      H   26    0.08978      0.00000     0.40894    0.00127     0.41022
 =======================================================================
   * Total *    0.00000     11.99596    33.83531    0.16873    46.00000

 Normal termination of Gaussian 16 at Wed Dec  9 18:26:34 2020.
