 Gaussian 16, Revision A.03,

 -----------------------------------------------------------
 # opt freq B3LYP/6-31G(d) empiricaldispersion=gd3bj scf=xqc
 -----------------------------------------------------------

 -----------------------------
 CID_53921635_JID_589_neutraal
 -----------------------------
 Symbolic Z-matrix:
 Charge =  0 Multiplicity = 1

 SCF Done:  E(RB3LYP) =  -853.476576517     A.U. after   15 cycles
 SCF Done:  E(RB3LYP) =  -853.480243159     A.U. after   13 cycles
 SCF Done:  E(RB3LYP) =  -853.480476597     A.U. after   12 cycles
 SCF Done:  E(RB3LYP) =  -853.480635885     A.U. after   12 cycles
 SCF Done:  E(RB3LYP) =  -853.480656542     A.U. after   11 cycles
 SCF Done:  E(RB3LYP) =  -853.480660446     A.U. after    9 cycles
 SCF Done:  E(RB3LYP) =  -853.480661332     A.U. after    9 cycles
 Optimization completed.
    -- Stationary point found.
 Normal termination of Gaussian 16 at Tue Dec  8 12:10:29 2020.

 --------------------------------------------------------------------
 #N Geom=AllCheck Guess=TCheck SCRF=Check GenChk RB3LYP/6-31G(d) Freq
 --------------------------------------------------------------------

 Structure from the checkpoint file:  "JID_589.chk"
 -----------------------------
 CID_53921635_JID_589_neutraal
 -----------------------------
 Charge =  0 Multiplicity = 1

 SCF Done:  E(RB3LYP) =  -853.480661332     A.U. after    1 cycles

  Exact polarizability: 139.992   1.789  81.242   0.034  -0.799  53.451
 Approx polarizability: 207.131  11.339 125.581  -2.216  -2.619  81.731

                      1                      2                      3
                      A                      A                      A
 Frequencies --     59.5215                86.5962               150.1605
 Red. masses --      5.5892                 2.8559                 7.3943
 Frc consts  --      0.0117                 0.0126                 0.0982
 IR Inten    --      0.8156                 3.6657                 3.0699

                      4                      5                      6
                      A                      A                      A
 Frequencies --    159.0061               190.9278               235.0299
 Red. masses --      2.9456                 1.1847                 2.4927
 Frc consts  --      0.0439                 0.0254                 0.0811
 IR Inten    --      0.3419                 0.4715                11.5642

                      7                      8                      9
                      A                      A                      A
 Frequencies --    277.7120               338.6778               353.3988
 Red. masses --      5.4081                 7.8578                 7.7320
 Frc consts  --      0.2457                 0.5310                 0.5689
 IR Inten    --      6.9278                21.5950                 0.3938

                     10                     11                     12
                      A                      A                      A
 Frequencies --    462.3277               480.9039               513.5345
 Red. masses --      2.8899                 3.9531                 4.9055
 Frc consts  --      0.3639                 0.5386                 0.7622
 IR Inten    --      2.7376                 4.7523                 0.4935

                     13                     14                     15
                      A                      A                      A
 Frequencies --    558.9335               672.1551               720.3030
 Red. masses --      4.5025                 5.3200                 1.4800
 Frc consts  --      0.8288                 1.4161                 0.4524
 IR Inten    --      8.9407                14.4215                27.8414

                     16                     17                     18
                      A                      A                      A
 Frequencies --    736.5848               763.8786               796.6267
 Red. masses --      5.0606                 3.7566                 2.0969
 Frc consts  --      1.6177                 1.2915                 0.7840
 IR Inten    --     39.7116                72.4737                10.8401

                     19                     20                     21
                      A                      A                      A
 Frequencies --    952.7104               998.0541              1042.0092
 Red. masses --      2.5043                 3.2447                 2.6382
 Frc consts  --      1.3393                 1.9043                 1.6877
 IR Inten    --      1.4477                14.0278                26.8154

                     22                     23                     24
                      A                      A                      A
 Frequencies --   1076.6920              1117.0032              1161.1327
 Red. masses --      2.0620                 5.7516                 2.7058
 Frc consts  --      1.4084                 4.2281                 2.1494
 IR Inten    --     16.2494                22.7606               106.2753

                     25                     26                     27
                      A                      A                      A
 Frequencies --   1184.1963              1203.7670              1230.1728
 Red. masses --      1.3546                 2.6128                 1.5318
 Frc consts  --      1.1192                 2.2307                 1.3658
 IR Inten    --     46.7503                29.1423                 1.4540

                     28                     29                     30
                      A                      A                      A
 Frequencies --   1242.4142              1256.1550              1326.2462
 Red. masses --      1.9735                 1.6908                 1.6467
 Frc consts  --      1.7948                 1.5719                 1.7065
 IR Inten    --    282.8338                12.2803               171.2541

                     31                     32                     33
                      A                      A                      A
 Frequencies --   1347.8720              1385.3100              1432.4124
 Red. masses --      1.7492                 2.6450                 1.8830
 Frc consts  --      1.8724                 2.9907                 2.2763
 IR Inten    --     66.7117                33.5903               142.8042

                     34                     35                     36
                      A                      A                      A
 Frequencies --   1479.0634              1483.7227              1502.0675
 Red. masses --      1.1489                 1.1315                 1.0544
 Frc consts  --      1.4809                 1.4676                 1.4017
 IR Inten    --      5.0458                44.1788                 8.9838

                     37                     38                     39
                      A                      A                      A
 Frequencies --   1513.3095              1537.3677              1548.8081
 Red. masses --      2.0576                 1.0503                 1.0952
 Frc consts  --      2.7763                 1.4626                 1.5479
 IR Inten    --    232.9721                 8.3186                12.0468

                     40                     41                     42
                      A                      A                      A
 Frequencies --   1833.7574              3036.2954              3049.9813
 Red. masses --      9.6258                 1.0712                 1.0330
 Frc consts  --     19.0709                 5.8186                 5.6618
 IR Inten    --    410.2292                30.7752                47.3416

                     43                     44                     45
                      A                      A                      A
 Frequencies --   3058.2969              3131.4064              3134.4160
 Red. masses --      1.0694                 1.1029                 1.0959
 Frc consts  --      5.8933                 6.3718                 6.3434
 IR Inten    --     10.4876                21.4311                15.3474

                     46                     47                     48
                      A                      A                      A
 Frequencies --   3157.3310              3163.7580              3580.0543
 Red. masses --      1.0937                 1.1063                 1.0773
 Frc consts  --      6.4235                 6.5242                 8.1353
 IR Inten    --      1.8786                17.5202                51.4112

 - Thermochemistry -
 -------------------
 Temperature   298.150 Kelvin.  Pressure   1.00000 Atm.
 Atom     1 has atomic number  6 and mass  12.00000

 Molecular mass:   160.03065 amu.
 Principal axes and moments of inertia in atomic units:
                           1         2         3
     Eigenvalues --   646.088942697.197603208.57984
           X            0.99994  -0.00400   0.00977
           Y            0.00400   0.99999   0.00054
           Z           -0.00977  -0.00050   0.99995
 This molecule is an asymmetric top.
 Rotational symmetry number  1.
 Warning -- assumption of classical behavior for rotation
           may cause significant error
 Rotational temperatures (Kelvin)      0.13406     0.03211     0.02699
 Rotational constants (GHZ):           2.79333     0.66912     0.56247
 Zero-point vibrational energy     369179.9 (Joules/Mol)
                                   88.23612 (Kcal/Mol)
 Warning -- explicit consideration of  13 degrees of freedom as
           vibrations may cause significant error
 Vibrational temperatures:     85.64   124.59   216.05   228.77   274.70
          (Kelvin)            338.16   399.57   487.28   508.46   665.19
                              691.91   738.86   804.18   967.08  1036.36
                             1059.78  1099.05  1146.17  1370.74  1435.98
                             1499.22  1549.12  1607.12  1670.61  1703.79
                             1731.95  1769.94  1787.56  1807.33  1908.17
                             1939.29  1993.15  2060.92  2128.04  2134.75
                             2161.14  2177.31  2211.93  2228.39  2638.37
                             4368.55  4388.24  4400.21  4505.40  4509.73
                             4542.70  4551.94  5150.90

 Zero-point correction=                           0.140613 (Hartree/Particle)
 Thermal correction to Energy=                    0.150266
 Thermal correction to Enthalpy=                  0.151210
 Thermal correction to Gibbs Free Energy=         0.104932
 Sum of electronic and zero-point Energies=           -853.340048
 Sum of electronic and thermal Energies=              -853.330396
 Sum of electronic and thermal Enthalpies=            -853.329452
 Sum of electronic and thermal Free Energies=         -853.375729

                     E (Thermal)             CV                S
                      KCal/Mol        Cal/Mol-Kelvin    Cal/Mol-Kelvin
 Total                   94.293             34.801             97.399
 Electronic               0.000              0.000              0.000
 Translational            0.889              2.981             41.120
 Rotational               0.889              2.981             30.104
 Vibrational             92.516             28.840             26.175
 Vibration     1          0.597              1.974              4.473
 Vibration     2          0.601              1.959              3.736
 Vibration     3          0.618              1.902              2.670
 Vibration     4          0.621              1.893              2.562
 Vibration     5          0.634              1.852              2.219
 Vibration     6          0.655              1.787              1.840
 Vibration     7          0.679              1.715              1.548
 Vibration     8          0.719              1.598              1.218
 Vibration     9          0.730              1.568              1.151
 Vibration    10          0.820              1.334              0.759
 Vibration    11          0.837              1.292              0.708
 Vibration    12          0.869              1.220              0.625
 Vibration    13          0.915              1.120              0.526

                           ! Non-Optimized Parameters !
 Normal termination of Gaussian 16 at Tue Dec  8 12:15:12 2020.

 ----------------------------------------------------------------------
 # B3LYP/6-311++G(d,p) empiricaldispersion=gd3bj scf=xqc pop=npa geom=c
 heck
 ----------------------------------------------------------------------

 -------------------------------------
 CID_53921635_JID_589_Energie_neutraal
 -------------------------------------
 Structure from the checkpoint file:  "JID_589.chk"
 Charge =  0 Multiplicity = 1

 SCF Done:  E(RB3LYP) =  -853.641503328     A.U. after   14 cycles
 Normal termination of Gaussian 16 at Tue Dec  8 12:17:01 2020.

 ----------------------------------------------------------------------
 # B3LYP/6-311++G(d,p) empiricaldispersion=gd3bj scf=xqc pop=npa geom=c
 heck
 ----------------------------------------------------------------------

 -----------------------------------
 CID_53921635_JID_589_Energie_kation
 -----------------------------------
 Structure from the checkpoint file:  "JID_589.chk"
 Charge =  1 Multiplicity = 2

 SCF Done:  E(UB3LYP) =  -853.323138866     A.U. after   24 cycles
 Normal termination of Gaussian 16 at Tue Dec  8 12:22:52 2020.
 Gaussian 16:  ES64L-G16RevA.03 25-Dec-2016

 ----------------------------------------------------------------------
 # B3LYP/6-311++G(d,p) empiricaldispersion=gd3bj scf=xqc pop=npa geom=c
 heck
 ----------------------------------------------------------------------

 ----------------------------------
 CID_53921635_JID_589_Energie_anion
 ----------------------------------
 Structure from the checkpoint file:  "JID_589.chk"
 Charge = -1 Multiplicity = 2

                         Standard orientation:
 ---------------------------------------------------------------------
 Center     Atomic      Atomic             Coordinates (Angstroms)
 Number     Number       Type             X           Y           Z
 ---------------------------------------------------------------------
      1          6           0        3.426310   -0.212667    0.583503
      2          8           0        2.495367   -0.386260   -0.489239
      3          7           0        1.180251   -0.322722    0.006021
      4          6           0        0.391826   -1.462076   -0.455937
      5          6           0       -0.968456   -1.417410    0.235236
      6          6           0       -1.648072   -0.076450    0.074184
      7         16           0       -3.283930    0.138084    0.085026
      8          7           0       -0.778051    0.970955   -0.036382
      9          6           0        0.634270    0.950061   -0.087021
     10          8           0        1.267144    1.983302   -0.147168
     11          1           0        4.408311   -0.344603    0.123489
     12          1           0        3.271344   -0.967760    1.363160
     13          1           0        3.343789    0.792801    1.005295
     14          1           0        0.285668   -1.441832   -1.549822
     15          1           0        0.935006   -2.368973   -0.182981
     16          1           0       -0.835938   -1.587648    1.312134
     17          1           0       -1.626862   -2.200512   -0.142632
     18          1           0       -1.169205    1.906463   -0.085068
 ---------------------------------------------------------------------

 SCF Done:  E(UB3LYP) =  -853.654776106     A.U. after   25 cycles

 The electronic state is 2-A.
 Alpha  occ. eigenvalues --  -88.61853 -19.05415 -18.95142 -14.25573 -14.20294
 Alpha  occ. eigenvalues --  -10.15403 -10.11444 -10.08987 -10.04925 -10.04397
 Alpha  occ. eigenvalues --   -7.70612  -5.66935  -5.66545  -5.66214  -0.98692
 Alpha  occ. eigenvalues --   -0.90911  -0.81073  -0.75269  -0.64993  -0.59346
 Alpha  occ. eigenvalues --   -0.56796  -0.52470  -0.45854  -0.43821  -0.40329
 Alpha  occ. eigenvalues --   -0.38605  -0.36868  -0.33883  -0.33199  -0.30241
 Alpha  occ. eigenvalues --   -0.29464  -0.28253  -0.27585  -0.25614  -0.24815
 Alpha  occ. eigenvalues --   -0.19517  -0.19054  -0.17670  -0.14636  -0.13071
 Alpha  occ. eigenvalues --   -0.08100  -0.04747   0.05050
 Alpha virt. eigenvalues --    0.07659   0.09484   0.10550   0.11662   0.12508
 Alpha virt. eigenvalues --    0.12656   0.13699   0.13947   0.15566   0.16197
 Alpha virt. eigenvalues --    0.16756   0.17226   0.18243   0.18356   0.19541

  Beta  occ. eigenvalues --  -88.61770 -19.05406 -18.94917 -14.25533 -14.20342
  Beta  occ. eigenvalues --  -10.15225 -10.11443 -10.08961 -10.04464 -10.03981
  Beta  occ. eigenvalues --   -7.70538  -5.66921  -5.66251  -5.66169  -0.98622
  Beta  occ. eigenvalues --   -0.90548  -0.80683  -0.75120  -0.64578  -0.58994
  Beta  occ. eigenvalues --   -0.56393  -0.52257  -0.45342  -0.43582  -0.40192
  Beta  occ. eigenvalues --   -0.38387  -0.36765  -0.33843  -0.32978  -0.29784
  Beta  occ. eigenvalues --   -0.28972  -0.27575  -0.27147  -0.25319  -0.24324
  Beta  occ. eigenvalues --   -0.18837  -0.18309  -0.16759  -0.14348  -0.12675
  Beta  occ. eigenvalues --   -0.06290  -0.04546
  Beta virt. eigenvalues --    0.07598   0.09456   0.10395   0.11617   0.12127
  Beta virt. eigenvalues --    0.12582   0.13409   0.13693   0.13974   0.15737
  Beta virt. eigenvalues --    0.16193   0.17084   0.17893   0.18248   0.18437

 Mulliken charges and spin densities:
               1          2
     1  C   -0.220186  -0.010478
     2  O    0.065398  -0.001190
     3  N   -0.281254   0.019362
     4  C   -0.261115  -0.034627
     5  C   -0.183580  -0.197893
     6  C    0.359204   0.509879
     7  S   -1.097297   0.261578
     8  N   -0.232688  -0.022133
     9  C    0.262139   0.116057
    10  O   -0.425714   0.072476
    11  H    0.122964  -0.000437
    12  H    0.106479   0.012170
    13  H    0.169222  -0.000533
    14  H    0.123134  -0.001047
    15  H    0.131667   0.032022
    16  H   -0.076874   0.252289
    17  H    0.137333  -0.010993
    18  H    0.301168   0.003497
 Sum of Mulliken charges =  -1.00000   1.00000

 Dipole moment (field-independent basis, Debye):
    X=              8.1534    Y=             -2.9589    Z=              0.0239  Tot=              8.6737
 Quadrupole moment (field-independent basis, Debye-Ang):
   XX=           -113.8843   YY=            -80.7048   ZZ=            -76.5190
   XY=             -4.4182   XZ=              5.3476   YZ=              2.1182

 Summary of Natural Population Analysis:

                                       Natural Population
                Natural  -----------------------------------------------
    Atom  No    Charge         Core      Valence    Rydberg      Total
 -----------------------------------------------------------------------
      C    1   -0.09630      0.99963     2.08860    0.00807     3.09630
      O    2   -0.21564      0.99990     3.20423    0.01151     4.21564
      N    3   -0.11831      0.99961     2.60467    0.01403     3.61831
      C    4   -0.07921      0.99962     2.06872    0.01086     3.07921
      C    5   -0.22978      0.99957     2.22034    0.00987     3.22978
      C    6    0.20312      0.99966     1.77787    0.01936     2.79688
      S    7   -0.11420      4.99954     3.09847    0.01619     8.11420
      N    8   -0.32471      0.99961     2.81407    0.01102     3.82471
      C    9    0.42641      0.99969     1.55018    0.02372     2.57359
      O   10   -0.31110      0.99987     3.30527    0.00596     4.31110
      H   11    0.08270      0.00000     0.41648    0.00082     0.41730
      H   12    0.07771      0.00000     0.42008    0.00221     0.42229
      H   13    0.09254      0.00000     0.40620    0.00126     0.40746
      H   14    0.08683      0.00000     0.41209    0.00108     0.41317
      H   15    0.09329      0.00000     0.40469    0.00201     0.40671
      H   16    0.11196      0.00000     0.38488    0.00317     0.38804
      H   17    0.11248      0.00000     0.38672    0.00080     0.38752
      H   18    0.20219      0.00000     0.29599    0.00182     0.29781
 =======================================================================
   * Total *   -0.00000     13.99670    27.85954    0.14376    42.00000

 Normal termination of Gaussian 16 at Tue Dec  8 12:26:40 2020.
