 Gaussian 16, Revision A.03,

 -----------------------------------------------------------
 # opt freq B3LYP/6-31G(d) empiricaldispersion=gd3bj scf=xqc
 -----------------------------------------------------------

 ------------------------------
 CID_58239496_JID_2039_neutraal
 ------------------------------
 Symbolic Z-matrix:
 Charge =  0 Multiplicity = 1

 SCF Done:  E(RB3LYP) =  -578.321911215     A.U. after   15 cycles
 SCF Done:  E(RB3LYP) =  -578.325627042     A.U. after   12 cycles
 SCF Done:  E(RB3LYP) =  -578.325455504     A.U. after   12 cycles
 SCF Done:  E(RB3LYP) =  -578.326368002     A.U. after   11 cycles
 SCF Done:  E(RB3LYP) =  -578.326583728     A.U. after   11 cycles
 SCF Done:  E(RB3LYP) =  -578.326645380     A.U. after   10 cycles
 SCF Done:  E(RB3LYP) =  -578.326675817     A.U. after   11 cycles
 SCF Done:  E(RB3LYP) =  -578.326738758     A.U. after   10 cycles
 SCF Done:  E(RB3LYP) =  -578.326799565     A.U. after   11 cycles
 SCF Done:  E(RB3LYP) =  -578.326823006     A.U. after   10 cycles
 SCF Done:  E(RB3LYP) =  -578.326862191     A.U. after    9 cycles
 SCF Done:  E(RB3LYP) =  -578.326863887     A.U. after    9 cycles
 SCF Done:  E(RB3LYP) =  -578.326864189     A.U. after   10 cycles
 SCF Done:  E(RB3LYP) =  -578.326864590     A.U. after    8 cycles
 SCF Done:  E(RB3LYP) =  -578.326864594     A.U. after    7 cycles
 SCF Done:  E(RB3LYP) =  -578.326864619     A.U. after    7 cycles
 Optimization completed.
    -- Stationary point found.

 1\1\GINC-NODE355\FOpt\RB3LYP\6-31G(d)\C9H16O3\VSC10255\09-Dec-2020\0\\
 # opt freq B3LYP/6-31G(d) empiricaldispersion=gd3bj scf=xqc\\CID_58239
 496_JID_2039_neutraal\\0,1\C,0.9469574166,-0.086154986,-0.0158715357\C
 ,1.0858975956,-0.5009768219,-1.4953473073\C,1.6107815745,-1.9395561839
 ,-1.6571862398\C,0.3579432619,-2.8129966605,-1.9476488856\O,-0.7312249
 773,-1.8718015163,-2.1788743979\C,-0.3276033523,-0.5791764443,-2.07393
 50567\O,-1.0493273343,0.3417618835,-2.3660013804\C,-0.0380608639,-3.67
 66532715,-0.7532140202\C,0.4937192739,-3.6723416117,-3.2200569015\C,0.

 Normal termination of Gaussian 16 at Wed Dec  9 16:49:36 2020.

 --------------------------------------------------------------------
 #N Geom=AllCheck Guess=TCheck SCRF=Check GenChk RB3LYP/6-31G(d) Freq
 --------------------------------------------------------------------

 Structure from the checkpoint file:  "JID_2039.chk"
 ------------------------------
 CID_58239496_JID_2039_neutraal
 ------------------------------
 Charge =  0 Multiplicity = 1

 SCF Done:  E(RB3LYP) =  -578.326864619     A.U. after    1 cycles

  Exact polarizability: 108.679   5.796  98.569   0.130  -4.023  88.477
 Approx polarizability: 141.300  11.146 135.862  -4.135  -9.448 138.904

                      1                      2                      3
                      A                      A                      A
 Frequencies --     26.1726                80.6218                94.7840
 Red. masses --      4.9951                 3.6097                 3.5957
 Frc consts  --      0.0020                 0.0138                 0.0190
 IR Inten    --      3.1827                 0.6927                 1.5895

                      4                      5                      6
                      A                      A                      A
 Frequencies --    161.5691               211.0896               233.3962
 Red. masses --      3.6071                 2.5983                 1.1447
 Frc consts  --      0.0555                 0.0682                 0.0367
 IR Inten    --      7.3509                 6.2705                 8.9995

                      7                      8                      9
                      A                      A                      A
 Frequencies --    247.4639               249.4635               265.6754
 Red. masses --      1.6734                 1.5081                 1.2328
 Frc consts  --      0.0604                 0.0553                 0.0513
 IR Inten    --     15.4642                 4.6733                11.7553

                     10                     11                     12
                      A                      A                      A
 Frequencies --    274.7528               280.6521               298.8563
 Red. masses --      1.4514                 1.8074                 2.2999
 Frc consts  --      0.0646                 0.0839                 0.1210
 IR Inten    --     51.5018                37.8351                 2.6774

                     13                     14                     15
                      A                      A                      A
 Frequencies --    306.0130               332.8746               380.9360
 Red. masses --      2.8322                 2.3039                 2.3873
 Frc consts  --      0.1563                 0.1504                 0.2041
 IR Inten    --      4.9887                 0.3941                 1.3054

                     16                     17                     18
                      A                      A                      A
 Frequencies --    412.3394               431.4979               542.7996
 Red. masses --      2.3842                 2.5181                 2.9766
 Frc consts  --      0.2388                 0.2762                 0.5167
 IR Inten    --      2.1934                 7.5441                 2.7939

                     19                     20                     21
                      A                      A                      A
 Frequencies --    579.3925               595.0162               611.8674
 Red. masses --      3.1250                 2.7475                 6.6266
 Frc consts  --      0.6181                 0.5731                 1.4617
 IR Inten    --      2.3408                 0.0521                 6.9006

                     22                     23                     24
                      A                      A                      A
 Frequencies --    726.8125               756.8297               822.6482
 Red. masses --      5.4856                 6.7071                 3.3193
 Frc consts  --      1.7073                 2.2635                 1.3235
 IR Inten    --      1.2997                 5.1977                 0.6833

                     25                     26                     27
                      A                      A                      A
 Frequencies --    864.7044               897.2746               914.5361
 Red. masses --      1.9914                 2.4277                 2.0610
 Frc consts  --      0.8773                 1.1516                 1.0156
 IR Inten    --     11.0573                 6.4770                 1.3895

                     28                     29                     30
                      A                      A                      A
 Frequencies --    931.8038               970.6342               974.3154
 Red. masses --      1.8571                 2.0460                 1.9791
 Frc consts  --      0.9500                 1.1357                 1.1069
 IR Inten    --      2.6020                20.8683                29.4169

                     31                     32                     33
                      A                      A                      A
 Frequencies --   1000.0490              1008.5585              1044.5303
 Red. masses --      1.7737                 1.6651                 1.3990
 Frc consts  --      1.0451                 0.9979                 0.8993
 IR Inten    --      2.3725                 1.3221                 4.6241

                     34                     35                     36
                      A                      A                      A
 Frequencies --   1058.9828              1079.6262              1107.7710
 Red. masses --      1.5408                 2.5714                 2.1373
 Frc consts  --      1.0181                 1.7659                 1.5453
 IR Inten    --      1.4869                29.1705                18.0449

                     37                     38                     39
                      A                      A                      A
 Frequencies --   1131.2608              1182.1847              1202.5432
 Red. masses --      2.6738                 1.5019                 2.7933
 Frc consts  --      2.0161                 1.2367                 2.3800
 IR Inten    --    154.2715                18.7971                40.0783

                     40                     41                     42
                      A                      A                      A
 Frequencies --   1242.9749              1253.1454              1270.7849
 Red. masses --      2.3466                 2.1357                 2.6912
 Frc consts  --      2.1360                 1.9760                 2.5606
 IR Inten    --     13.9520                21.8536                31.3865

                     43                     44                     45
                      A                      A                      A
 Frequencies --   1283.9672              1295.3552              1316.1044
 Red. masses --      1.2988                 1.8252                 1.6857
 Frc consts  --      1.2615                 1.8044                 1.7203
 IR Inten    --      7.2484               157.6199                47.1203

                     46                     47                     48
                      A                      A                      A
 Frequencies --   1348.9809              1376.3661              1411.3568
 Red. masses --      1.3426                 1.6069                 1.5705
 Frc consts  --      1.4395                 1.7936                 1.8431
 IR Inten    --      1.0872                 0.5827                 2.9684

                     49                     50                     51
                      A                      A                      A
 Frequencies --   1420.6708              1438.7430              1443.0494
 Red. masses --      1.2356                 1.2662                 1.2202
 Frc consts  --      1.4693                 1.5442                 1.4971
 IR Inten    --      2.6793                13.8694                 8.4769

                     52                     53                     54
                      A                      A                      A
 Frequencies --   1474.2594              1505.4022              1512.6210
 Red. masses --      1.4299                 1.0893                 1.0519
 Frc consts  --      1.8310                 1.4544                 1.4181
 IR Inten    --      6.1030                 2.7120                 2.3595

                     55                     56                     57
                      A                      A                      A
 Frequencies --   1517.4119              1520.0486              1526.1199
 Red. masses --      1.0571                 1.0498                 1.0517
 Frc consts  --      1.4341                 1.4292                 1.4431
 IR Inten    --      4.8711                 0.0567                 4.4287

                     58                     59                     60
                      A                      A                      A
 Frequencies --   1529.5287              1532.4737              1545.2197
 Red. masses --      1.0790                 1.0565                 1.0597
 Frc consts  --      1.4872                 1.4618                 1.4908
 IR Inten    --      4.5147                 3.1874                 5.8906

                     61                     62                     63
                      A                      A                      A
 Frequencies --   1549.3281              1866.5264              3008.3918
 Red. masses --      1.0817                12.5916                 1.0673
 Frc consts  --      1.5298                25.8464                 5.6912
 IR Inten    --      3.4455               318.8732                78.5468

                     64                     65                     66
                      A                      A                      A
 Frequencies --   3050.0601              3051.1051              3057.2656
 Red. masses --      1.0536                 1.0380                 1.0389
 Frc consts  --      5.7748                 5.6932                 5.7213
 IR Inten    --     13.1986                22.7982                29.7575

                     67                     68                     69
                      A                      A                      A
 Frequencies --   3058.9550              3072.8479              3081.3109
 Red. masses --      1.0370                 1.0978                 1.0686
 Frc consts  --      5.7169                 6.1074                 5.9779
 IR Inten    --     19.1718                16.9794                24.3306

                     70                     71                     72
                      A                      A                      A
 Frequencies --   3094.2201              3119.0094              3126.9978
 Red. masses --      1.1023                 1.1028                 1.1014
 Frc consts  --      6.2182                 6.3207                 6.3453
 IR Inten    --     31.4646                26.6587                 7.6933

                     73                     74                     75
                      A                      A                      A
 Frequencies --   3127.8502              3133.6203              3137.3426
 Red. masses --      1.1013                 1.1026                 1.1027
 Frc consts  --      6.3481                 6.3789                 6.3951
 IR Inten    --     37.0904                26.1015                20.3335

                     76                     77                     78
                      A                      A                      A
 Frequencies --   3149.8066              3157.7722              3764.3722
 Red. masses --      1.1027                 1.0973                 1.0665
 Frc consts  --      6.4456                 6.4468                 8.9046
 IR Inten    --     12.2403                10.4978                23.5645

 - Thermochemistry -
 -------------------
 Temperature   298.150 Kelvin.  Pressure   1.00000 Atm.
 Atom     1 has atomic number  6 and mass  12.00000

 Molecular mass:   172.10994 amu.
 Principal axes and moments of inertia in atomic units:
                           1         2         3
     Eigenvalues --  1474.975952113.251042533.28724
           X            0.99942   0.00397   0.03373
           Y           -0.00424   0.99996   0.00791
           Z           -0.03370  -0.00805   0.99940
 This molecule is an asymmetric top.
 Rotational symmetry number  1.
 Warning -- assumption of classical behavior for rotation
           may cause significant error
 Rotational temperatures (Kelvin)      0.05872     0.04099     0.03419
 Rotational constants (GHZ):           1.22357     0.85401     0.71241
 Zero-point vibrational energy     643971.7 (Joules/Mol)
                                  153.91294 (Kcal/Mol)
 Warning -- explicit consideration of  21 degrees of freedom as
           vibrations may cause significant error
 Vibrational temperatures:     37.66   116.00   136.37   232.46   303.71
          (Kelvin)            335.81   356.05   358.92   382.25   395.31
                              403.80   429.99   440.28   478.93   548.08
                              593.26   620.83   780.97   833.62   856.10
                              880.34  1045.72  1088.91  1183.61  1244.12
                             1290.98  1315.81  1340.66  1396.53  1401.82
                             1438.85  1451.09  1502.85  1523.64  1553.34
                             1593.84  1627.63  1700.90  1730.19  1788.36
                             1803.00  1828.38  1847.34  1863.73  1893.58
                             1940.88  1980.28  2030.63  2044.03  2070.03
                             2076.23  2121.13  2165.94  2176.32  2183.22
                             2187.01  2195.75  2200.65  2204.89  2223.23
                             2229.14  2685.52  4328.40  4388.36  4389.86
                             4398.72  4401.15  4421.14  4433.32  4451.89
                             4487.56  4499.05  4500.28  4508.58  4513.94
                             4531.87  4543.33  5416.09

 Zero-point correction=                           0.245276 (Hartree/Particle)
 Thermal correction to Energy=                    0.258299
 Thermal correction to Enthalpy=                  0.259244
 Thermal correction to Gibbs Free Energy=         0.206403
 Sum of electronic and zero-point Energies=           -578.081589
 Sum of electronic and thermal Energies=              -578.068565
 Sum of electronic and thermal Enthalpies=            -578.067621
 Sum of electronic and thermal Free Energies=         -578.120461

                     E (Thermal)             CV                S
                      KCal/Mol        Cal/Mol-Kelvin    Cal/Mol-Kelvin
 Total                  162.085             49.514            111.212
 Electronic               0.000              0.000              0.000
 Translational            0.889              2.981             41.336
 Rotational               0.889              2.981             30.447
 Vibrational            160.308             43.553             39.429
 Vibration     1          0.593              1.985              6.100
 Vibration     2          0.600              1.962              3.876
 Vibration     3          0.603              1.953              3.559
 Vibration     4          0.622              1.890              2.531
 Vibration     5          0.643              1.824              2.034
 Vibration     6          0.654              1.790              1.853
 Vibration     7          0.661              1.767              1.749
 Vibration     8          0.662              1.764              1.734
 Vibration     9          0.672              1.736              1.624
 Vibration    10          0.677              1.720              1.566
 Vibration    11          0.680              1.709              1.530
 Vibration    12          0.692              1.676              1.423
 Vibration    13          0.696              1.662              1.384
 Vibration    14          0.715              1.610              1.246
 Vibration    15          0.751              1.511              1.035
 Vibration    16          0.776              1.443              0.918
 Vibration    17          0.793              1.402              0.854
 Vibration    18          0.898              1.155              0.559
 Vibration    19          0.936              1.076              0.486
 Vibration    20          0.953              1.042              0.458
 Vibration    21          0.971              1.007              0.430

                           ! Non-Optimized Parameters !

 1\1\GINC-NODE355\Freq\RB3LYP\6-31G(d)\C9H16O3\VSC10255\09-Dec-2020\0\\
 #N Geom=AllCheck Guess=TCheck SCRF=Check GenChk RB3LYP/6-31G(d) Freq\\
 CID_58239496_JID_2039_neutraal\\0,1\C,0.9469574166,-0.086154986,-0.015
 8715357\C,1.0858975956,-0.5009768219,-1.4953473073\C,1.6107815745,-1.9
 395561839,-1.6571862398\C,0.3579432619,-2.8129966605,-1.9476488856\O,-
 0.7312249773,-1.8718015163,-2.1788743979\C,-0.3276033523,-0.5791764443
 ,-2.0739350567\O,-1.0493273343,0.3417618835,-2.3660013804\C,-0.0380608
 639,-3.6766532715,-0.7532140202\C,0.4937192739,-3.6723416117,-3.220056

 Normal termination of Gaussian 16 at Wed Dec  9 16:56:47 2020.

 ----------------------------------------------------------------------
 # B3LYP/6-311++G(d,p) empiricaldispersion=gd3bj scf=xqc pop=npa geom=c
 heck
 ----------------------------------------------------------------------

 --------------------------------------
 CID_58239496_JID_2039_Energie_neutraal
 --------------------------------------
 Structure from the checkpoint file:  "JID_2039.chk"
 Charge =  0 Multiplicity = 1

 SCF Done:  E(RB3LYP) =  -578.503901238     A.U. after   14 cycles
 Normal termination of Gaussian 16 at Wed Dec  9 16:59:24 2020.

 ----------------------------------------------------------------------
 # B3LYP/6-311++G(d,p) empiricaldispersion=gd3bj scf=xqc pop=npa geom=c
 heck
 ----------------------------------------------------------------------

 ------------------------------------
 CID_58239496_JID_2039_Energie_kation
 ------------------------------------
 Structure from the checkpoint file:  "JID_2039.chk"
 Charge =  1 Multiplicity = 2

 SCF Done:  E(UB3LYP) =  -578.158311030     A.U. after   25 cycles
 Normal termination of Gaussian 16 at Wed Dec  9 17:05:38 2020.
 Gaussian 16:  ES64L-G16RevA.03 25-Dec-2016

 -----------------------------------
 CID_58239496_JID_2039_Energie_anion
 -----------------------------------
 Structure from the checkpoint file:  "JID_2039.chk"
 Charge = -1 Multiplicity = 2

                         Standard orientation:
 ---------------------------------------------------------------------
 Center     Atomic      Atomic             Coordinates (Angstroms)
 Number     Number       Type             X           Y           Z
 ---------------------------------------------------------------------
      1          6           0       -2.576897    0.900787   -0.345553
      2          6           0       -1.396389   -0.089543   -0.422201
      3          6           0       -0.191243    0.488235   -1.187055
      4          6           0        0.806517    0.969149   -0.096152
      5          8           0        0.287051    0.453938    1.164924
      6          6           0       -0.858357   -0.257039    0.999534
      7          8           0       -1.362249   -0.876930    1.902942
      8          6           0        0.850129    2.490205    0.021669
      9          6           0        2.226432    0.395388   -0.270996
     10          6           0        2.390417   -1.048187    0.187488
     11          8           0        1.508771   -1.891154   -0.556003
     12          6           0       -1.877054   -1.438912   -0.965431
     13          1           0       -2.267397    1.871838    0.055837
     14          1           0       -3.366345    0.503331    0.299823
     15          1           0       -2.992017    1.062910   -1.346602
     16          1           0        0.269474   -0.282708   -1.804014
     17          1           0       -0.479309    1.319539   -1.838333
     18          1           0        1.432463    2.791337    0.898145
     19          1           0        1.314709    2.923810   -0.871143
     20          1           0       -0.158510    2.903827    0.117781
     21          1           0        2.511304    0.490834   -1.325953
     22          1           0        2.937760    0.998123    0.307874
     23          1           0        3.437173   -1.353856    0.036587
     24          1           0        2.167228   -1.107014    1.259296
     25          1           0        1.474303   -2.750527   -0.110806
     26          1           0       -2.633504   -1.865423   -0.299791
     27          1           0       -2.316383   -1.314405   -1.961642
     28          1           0       -1.040874   -2.138952   -1.039783
 ---------------------------------------------------------------------

 SCF Done:  E(UB3LYP) =  -578.490366722     A.U. after   30 cycles

 The electronic state is 2-A.
 Alpha  occ. eigenvalues --  -19.05737 -19.02062 -19.00543 -10.19212 -10.14125
 Alpha  occ. eigenvalues --  -10.11095 -10.09790 -10.07173 -10.06953 -10.06800
 Alpha  occ. eigenvalues --  -10.06480 -10.06116  -0.99952  -0.92405  -0.91877
 Alpha  occ. eigenvalues --   -0.73109  -0.70382  -0.63547  -0.60051  -0.59332
 Alpha  occ. eigenvalues --   -0.54614  -0.51348  -0.49507  -0.43399  -0.41563
 Alpha  occ. eigenvalues --   -0.39355  -0.37642  -0.36355  -0.34861  -0.34195
 Alpha  occ. eigenvalues --   -0.33444  -0.32305  -0.31181  -0.31055  -0.29776
 Alpha  occ. eigenvalues --   -0.29135  -0.28757  -0.26870  -0.26658  -0.25945
 Alpha  occ. eigenvalues --   -0.24473  -0.24081  -0.22361  -0.21883  -0.19280
 Alpha  occ. eigenvalues --   -0.17546  -0.17011   0.04493
 Alpha virt. eigenvalues --    0.06586   0.07246   0.08610   0.08865   0.09263
 Alpha virt. eigenvalues --    0.10160   0.10611   0.11062   0.11466   0.11974
 Alpha virt. eigenvalues --    0.12414   0.13071   0.13605   0.14303   0.14944

  Beta  occ. eigenvalues --  -19.05727 -19.02024 -19.00539 -10.19211 -10.14122
  Beta  occ. eigenvalues --  -10.11063 -10.09788 -10.07147 -10.06930 -10.06781
  Beta  occ. eigenvalues --  -10.06445 -10.06098  -0.99941  -0.92377  -0.91815
  Beta  occ. eigenvalues --   -0.73093  -0.70352  -0.63481  -0.60005  -0.59293
  Beta  occ. eigenvalues --   -0.54555  -0.51281  -0.49465  -0.43347  -0.41471
  Beta  occ. eigenvalues --   -0.39322  -0.37607  -0.36327  -0.34825  -0.34162
  Beta  occ. eigenvalues --   -0.33419  -0.32280  -0.31148  -0.31020  -0.29735
  Beta  occ. eigenvalues --   -0.29095  -0.28725  -0.26842  -0.26630  -0.25916
  Beta  occ. eigenvalues --   -0.24441  -0.24053  -0.22331  -0.21850  -0.19259
  Beta  occ. eigenvalues --   -0.17501  -0.16996
  Beta virt. eigenvalues --    0.06880   0.07806   0.08069   0.09179   0.09487
  Beta virt. eigenvalues --    0.09900   0.10569   0.10862   0.11508   0.11899
  Beta virt. eigenvalues --    0.12368   0.12841   0.13443   0.13842   0.14412

 Mulliken charges and spin densities:
               1          2
     1  C    0.199096  -0.731205
     2  C   -0.482549   1.308039
     3  C    0.168774  -1.075781
     4  C   -0.623983   1.205524
     5  O    0.009487   0.022119
     6  C    0.334018  -0.613028
     7  O   -0.304144   0.018418
     8  C    1.782280  -2.195251
     9  C   -1.242260   0.828875
    10  C    1.377037  -1.860344
    11  O   -0.358276   0.062264
    12  C    0.338882  -0.935806
    13  H   -0.041496   0.190331
    14  H    0.105321   0.046558
    15  H   -0.130526   0.285227
    16  H    0.121082   0.090158
    17  H   -0.432605   0.643790
    18  H   -0.085485   0.239789
    19  H   -0.347238   0.512985
    20  H   -0.188556   0.309394
    21  H   -0.052118   0.247939
    22  H   -0.256172   0.419404
    23  H   -0.871394   1.052279
    24  H    0.041693   0.143724
    25  H   -0.123279   0.383383
    26  H    0.103528   0.051206
    27  H   -0.103798   0.240972
    28  H    0.062682   0.109035
 Sum of Mulliken charges =  -1.00000   1.00000

 Dipole moment (field-independent basis, Debye):
    X=             -3.4478    Y=              0.3029    Z=              0.7578  Tot=              3.5431
 Quadrupole moment (field-independent basis, Debye-Ang):
   XX=           -127.4067   YY=           -121.8836   ZZ=           -112.9909
   XY=              3.9529   XZ=              1.9118   YZ=              5.3506

 Summary of Natural Population Analysis:

                                       Natural Population
                Natural  -----------------------------------------------
    Atom  No    Charge         Core      Valence    Rydberg      Total
 -----------------------------------------------------------------------
      C    1   -0.27763      0.99963     2.27086    0.00714     3.27763
      C    2   -0.08825      0.99953     2.07554    0.01318     3.08825
      C    3   -0.20022      0.99955     2.18804    0.01263     3.20022
      C    4    0.13597      0.99953     1.84734    0.01716     2.86403
      O    5   -0.28624      0.99985     3.27778    0.00861     4.28624
      C    6    0.42139      0.99959     1.55141    0.02761     2.57861
      O    7   -0.30263      0.99986     3.29652    0.00625     4.30263
      C    8   -0.28887      0.99960     2.28234    0.00693     3.28887
      C    9   -0.20564      0.99956     2.19512    0.01097     3.20564
      C   10   -0.00893      0.99958     1.99669    0.01265     3.00893
      O   11   -0.37711      0.99989     3.37006    0.00716     4.37711
      C   12   -0.28009      0.99963     2.27439    0.00607     3.28009
      H   13    0.10063      0.00000     0.39809    0.00128     0.39937
      H   14    0.10336      0.00000     0.39569    0.00095     0.39664
      H   15    0.10145      0.00000     0.39752    0.00103     0.39855
      H   16    0.11664      0.00000     0.38100    0.00236     0.38336
      H   17    0.10401      0.00000     0.39423    0.00176     0.39599
      H   18    0.10384      0.00000     0.39505    0.00112     0.39616
      H   19    0.10555      0.00000     0.39282    0.00164     0.39445
      H   20    0.10068      0.00000     0.39799    0.00133     0.39932
      H   21    0.10476      0.00000     0.39372    0.00152     0.39524
      H   22    0.10515      0.00000     0.39327    0.00157     0.39485
      H   23    0.08081      0.00000     0.41665    0.00254     0.41919
      H   24    0.08395      0.00000     0.41398    0.00208     0.41605
      H   25    0.23567      0.00000     0.25860    0.00573     0.26433
      H   26    0.10416      0.00000     0.39474    0.00110     0.39584
      H   27    0.09742      0.00000     0.40155    0.00103     0.40258
      H   28    0.11016      0.00000     0.38859    0.00125     0.38984
 =======================================================================
   * Total *    0.00000     11.99581    34.83956    0.16464    47.00000

 Normal termination of Gaussian 16 at Wed Dec  9 17:13:16 2020.
