 Gaussian 16, Revision A.03,

 -----------------------------------------------------------
 # opt freq B3LYP/6-31G(d) empiricaldispersion=gd3bj scf=xqc
 -----------------------------------------------------------

 -------------------------------
 CID_149351704_JID_3288_neutraal
 -------------------------------
 Symbolic Z-matrix:
 Charge =  0 Multiplicity = 1

 SCF Done:  E(RB3LYP) =  -588.821313154     A.U. after   13 cycles
 SCF Done:  E(RB3LYP) =  -588.835778879     A.U. after   12 cycles
 SCF Done:  E(RB3LYP) =  -588.839524065     A.U. after   11 cycles
 SCF Done:  E(RB3LYP) =  -588.842064730     A.U. after   11 cycles
 SCF Done:  E(RB3LYP) =  -588.845212003     A.U. after   12 cycles
 SCF Done:  E(RB3LYP) =  -588.847964157     A.U. after   12 cycles
 SCF Done:  E(RB3LYP) =  -588.851457121     A.U. after   12 cycles
 SCF Done:  E(RB3LYP) =  -588.853746984     A.U. after   11 cycles
 SCF Done:  E(RB3LYP) =  -588.855774109     A.U. after   13 cycles
 SCF Done:  E(RB3LYP) =  -588.858899268     A.U. after   11 cycles
 SCF Done:  E(RB3LYP) =  -588.862538361     A.U. after   10 cycles
 SCF Done:  E(RB3LYP) =  -588.862565395     A.U. after    9 cycles
 SCF Done:  E(RB3LYP) =  -588.862571976     A.U. after    8 cycles
 SCF Done:  E(RB3LYP) =  -588.862574647     A.U. after    8 cycles
 SCF Done:  E(RB3LYP) =  -588.862574980     A.U. after    7 cycles
 SCF Done:  E(RB3LYP) =  -588.862575046     A.U. after    7 cycles
 Optimization completed.
    -- Stationary point found.

 1\1\GINC-NODE203\FOpt\RB3LYP\6-31G(d)\C8H17N5\VSC10255\09-Dec-2020\0\\
 # opt freq B3LYP/6-31G(d) empiricaldispersion=gd3bj scf=xqc\\CID_14935
 1704_JID_3288_neutraal\\0,1\C,0.5964805916,-0.0562424648,0.290286675\C
 ,0.2419760788,-1.5079638757,-0.0133305118\C,1.4645282801,-2.4387037127
 ,0.0797096635\N,1.1342065951,-3.8361902721,-0.195191643\C,0.1712829338
 ,-3.9993055171,-1.2150356622\C,-0.4395717406,-2.9636200028,-1.82312051
 28\N,-0.2756400687,-1.6230804032,-1.3777428804\C,-1.2728204342,-3.1799
 734564,-3.0586322799\N,-1.1640106596,-4.5352574341,-3.609643874\C,-1.1

 Normal termination of Gaussian 16 at Wed Dec  9 22:56:15 2020.

 --------------------------------------------------------------------
 #N Geom=AllCheck Guess=TCheck SCRF=Check GenChk RB3LYP/6-31G(d) Freq
 --------------------------------------------------------------------

 Structure from the checkpoint file:  "JID_3288.chk"
 -------------------------------
 CID_149351704_JID_3288_neutraal
 -------------------------------
 Charge =  0 Multiplicity = 1

 SCF Done:  E(RB3LYP) =  -588.862575046     A.U. after    1 cycles

  Exact polarizability: 138.392   6.000 115.267   2.009  -0.608  90.598
 Approx polarizability: 166.886  14.308 189.632   2.517  -3.516 137.337

                      1                      2                      3
                      A                      A                      A
 Frequencies --     58.2599               125.3314               138.4269
 Red. masses --      3.5221                 2.7076                 3.2970
 Frc consts  --      0.0070                 0.0251                 0.0372
 IR Inten    --      0.8167                 2.1883                 2.2573

                      4                      5                      6
                      A                      A                      A
 Frequencies --    203.1804               222.8550               230.8016
 Red. masses --      1.4690                 1.6630                 1.4700
 Frc consts  --      0.0357                 0.0487                 0.0461
 IR Inten    --      2.4731                 1.5532                 1.0329

                      7                      8                      9
                      A                      A                      A
 Frequencies --    242.6397               270.2771               291.6407
 Red. masses --      1.8925                 1.0897                 1.6693
 Frc consts  --      0.0656                 0.0469                 0.0837
 IR Inten    --      9.8344                23.6628                11.3842

                     10                     11                     12
                      A                      A                      A
 Frequencies --    313.3384               330.9900               346.8444
 Red. masses --      3.1897                 3.0069                 2.9339
 Frc consts  --      0.1845                 0.1941                 0.2080
 IR Inten    --      5.7544                 7.2797                12.7177

                     13                     14                     15
                      A                      A                      A
 Frequencies --    381.6084               416.1594               472.4964
 Red. masses --      2.7612                 2.7771                 2.6114
 Frc consts  --      0.2369                 0.2834                 0.3435
 IR Inten    --     15.9502                 4.3442                13.1445

                     16                     17                     18
                      A                      A                      A
 Frequencies --    484.3467               496.1725               515.7717
 Red. masses --      3.1948                 3.0643                 3.2587
 Frc consts  --      0.4416                 0.4445                 0.5108
 IR Inten    --      3.1242                14.3869                19.3944

                     19                     20                     21
                      A                      A                      A
 Frequencies --    529.7881               548.6320               601.9087
 Red. masses --      2.3777                 3.8405                 3.4374
 Frc consts  --      0.3932                 0.6811                 0.7337
 IR Inten    --     17.9424                11.8604                 9.6560

                     22                     23                     24
                      A                      A                      A
 Frequencies --    693.9149               708.6846               744.5966
 Red. masses --      3.0595                 2.4347                 1.6497
 Frc consts  --      0.8680                 0.7205                 0.5389
 IR Inten    --    182.3246                25.7720               203.7680

                     25                     26                     27
                      A                      A                      A
 Frequencies --    770.4358               804.1769               832.9159
 Red. masses --      1.9623                 2.4410                 1.9177
 Frc consts  --      0.6862                 0.9301                 0.7838
 IR Inten    --     24.1932                 9.3673                10.7280

                     28                     29                     30
                      A                      A                      A
 Frequencies --    844.9225               871.6998               883.8993
 Red. masses --      1.9115                 2.0561                 1.5695
 Frc consts  --      0.8040                 0.9205                 0.7225
 IR Inten    --     14.7082                 9.1128               239.3090

                     31                     32                     33
                      A                      A                      A
 Frequencies --    935.7560               960.4668               975.4379
 Red. masses --      1.9888                 1.7600                 1.8492
 Frc consts  --      1.0260                 0.9566                 1.0367
 IR Inten    --     37.7665                 0.2985                16.8635

                     34                     35                     36
                      A                      A                      A
 Frequencies --    988.0539              1046.7436              1064.8668
 Red. masses --      1.6251                 1.7491                 2.1652
 Frc consts  --      0.9348                 1.1291                 1.4466
 IR Inten    --      5.2962                 6.6299                11.3616

                     37                     38                     39
                      A                      A                      A
 Frequencies --   1088.4048              1107.1819              1126.7432
 Red. masses --      1.5437                 3.0312                 4.0432
 Frc consts  --      1.0775                 2.1893                 3.0243
 IR Inten    --      4.5906                 4.3574                25.4390

                     40                     41                     42
                      A                      A                      A
 Frequencies --   1151.8830              1164.7053              1185.1947
 Red. masses --      2.2577                 2.4883                 2.2536
 Frc consts  --      1.7649                 1.9888                 1.8651
 IR Inten    --      7.4113               209.7040                 5.4135

                     43                     44                     45
                      A                      A                      A
 Frequencies --   1207.8510              1234.0462              1254.6902
 Red. masses --      2.1480                 1.8906                 2.0200
 Frc consts  --      1.8463                 1.6963                 1.8736
 IR Inten    --      5.0496                 5.8754                42.9324

                     46                     47                     48
                      A                      A                      A
 Frequencies --   1282.7566              1297.6395              1314.4096
 Red. masses --      1.5145                 1.8263                 2.2877
 Frc consts  --      1.4683                 1.8119                 2.3286
 IR Inten    --     38.0836                24.5061                22.1894

                     49                     50                     51
                      A                      A                      A
 Frequencies --   1355.5327              1360.4417              1384.3522
 Red. masses --      1.4821                 1.6730                 1.4499
 Frc consts  --      1.6045                 1.8244                 1.6371
 IR Inten    --     18.6089                36.3105                21.1375

                     52                     53                     54
                      A                      A                      A
 Frequencies --   1395.7127              1413.2202              1426.1215
 Red. masses --      1.3530                 1.3399                 1.3814
 Frc consts  --      1.5529                 1.5767                 1.6553
 IR Inten    --     37.4723                15.8620                16.9442

                     55                     56                     57
                      A                      A                      A
 Frequencies --   1437.5288              1443.5571              1476.8426
 Red. masses --      1.3033                 1.3767                 1.4208
 Frc consts  --      1.5869                 1.6902                 1.8257
 IR Inten    --      7.8440                14.3844                71.7881

                     58                     59                     60
                      A                      A                      A
 Frequencies --   1489.3620              1512.7045              1512.9655
 Red. masses --      1.5010                 1.0653                 1.1134
 Frc consts  --      1.9617                 1.4362                 1.5016
 IR Inten    --     12.8895                 3.0446                 2.4648

                     61                     62                     63
                      A                      A                      A
 Frequencies --   1518.3304              1526.1928              1529.0741
 Red. masses --      1.0807                 1.0951                 1.0534
 Frc consts  --      1.4679                 1.5029                 1.4512
 IR Inten    --      4.1717                 4.7686                 3.0801

                     64                     65                     66
                      A                      A                      A
 Frequencies --   1533.1586              1537.9922              1693.2224
 Red. masses --      1.3795                 1.0722                 1.1015
 Frc consts  --      1.9105                 1.4943                 1.8606
 IR Inten    --     19.9362                 2.1791                27.8182

                     67                     68                     69
                      A                      A                      A
 Frequencies --   1781.9375              2935.9404              2989.1412
 Red. masses --      7.1404                 1.0819                 1.0719
 Frc consts  --     13.3584                 5.4946                 5.6428
 IR Inten    --     26.6704                60.9375                70.7970

                     70                     71                     72
                      A                      A                      A
 Frequencies --   3046.4471              3053.0273              3054.3275
 Red. masses --      1.0376                 1.0846                 1.0675
 Frc consts  --      5.6736                 5.9564                 5.8676
 IR Inten    --     21.5647                25.4894                64.9002

                     73                     74                     75
                      A                      A                      A
 Frequencies --   3076.7751              3109.7745              3113.8758
 Red. masses --      1.0350                 1.1019                 1.1017
 Frc consts  --      5.7728                 6.2782                 6.2936
 IR Inten    --     14.0410                18.6333                31.6598

                     76                     77                     78
                      A                      A                      A
 Frequencies --   3126.6538              3146.0459              3166.8634
 Red. masses --      1.1029                 1.1017                 1.1046
 Frc consts  --      6.3523                 6.4243                 6.5268
 IR Inten    --     38.4236                21.6070                15.2406

                     79                     80                     81
                      A                      A                      A
 Frequencies --   3439.9252              3452.3644              3457.1190
 Red. masses --      1.0741                 1.0719                 1.0512
 Frc consts  --      7.4885                 7.5273                 7.4023
 IR Inten    --      8.9597                 1.9888                 3.0341

                     82                     83                     84
                      A                      A                      A
 Frequencies --   3478.3151              3493.3995              3551.7134
 Red. masses --      1.0744                 1.0749                 1.0915
 Frc consts  --      7.6584                 7.7286                 8.1124
 IR Inten    --      3.7518                 2.8289                 0.7575

 - Thermochemistry -
 -------------------
 Temperature   298.150 Kelvin.  Pressure   1.00000 Atm.
 Atom     1 has atomic number  6 and mass  12.00000

 Molecular mass:   183.14840 amu.
 Principal axes and moments of inertia in atomic units:
                           1         2         3
     Eigenvalues --   970.636033656.017544124.86994
           X            0.99999   0.00512  -0.00103
           Y           -0.00510   0.99988   0.01435
           Z            0.00110  -0.01435   0.99990
 This molecule is an asymmetric top.
 Rotational symmetry number  1.
 Warning -- assumption of classical behavior for rotation
           may cause significant error
 Rotational temperatures (Kelvin)      0.08923     0.02369     0.02100
 Rotational constants (GHZ):           1.85934     0.49364     0.43753
 Zero-point vibrational energy     704501.8 (Joules/Mol)
                                  168.37997 (Kcal/Mol)
 Warning -- explicit consideration of  21 degrees of freedom as
           vibrations may cause significant error
 Vibrational temperatures:     83.82   180.32   199.17   292.33   320.64
          (Kelvin)            332.07   349.10   388.87   419.61   450.82
                              476.22   499.03   549.05   598.76   679.82
                              696.87   713.88   742.08   762.25   789.36
                              866.01   998.39  1019.64  1071.31  1108.49
                             1157.03  1198.38  1215.66  1254.18  1271.73
                             1346.34  1381.90  1403.44  1421.59  1506.03
                             1532.11  1565.97  1592.99  1621.13  1657.30
                             1675.75  1705.23  1737.83  1775.52  1805.22
                             1845.60  1867.01  1891.14  1950.31  1957.37
                             1991.77  2008.12  2033.31  2051.87  2068.28
                             2076.96  2124.85  2142.86  2176.44  2176.82
                             2184.54  2195.85  2200.00  2205.87  2212.83
                             2436.17  2563.81  4224.16  4300.71  4383.16
                             4392.63  4394.50  4426.79  4474.27  4480.17
                             4498.56  4526.46  4556.41  4949.29  4967.18
                             4974.02  5004.52  5026.22  5110.12

 Zero-point correction=                           0.268331 (Hartree/Particle)
 Thermal correction to Energy=                    0.280840
 Thermal correction to Enthalpy=                  0.281784
 Thermal correction to Gibbs Free Energy=         0.230934
 Sum of electronic and zero-point Energies=           -588.594244
 Sum of electronic and thermal Energies=              -588.581735
 Sum of electronic and thermal Enthalpies=            -588.580791
 Sum of electronic and thermal Free Energies=         -588.631642

                     E (Thermal)             CV                S
                      KCal/Mol        Cal/Mol-Kelvin    Cal/Mol-Kelvin
 Total                  176.230             50.972            107.023
 Electronic               0.000              0.000              0.000
 Translational            0.889              2.981             41.522
 Rotational               0.889              2.981             31.060
 Vibrational            174.452             45.011             34.442
 Vibration     1          0.596              1.974              4.515
 Vibration     2          0.610              1.928              3.016
 Vibration     3          0.614              1.915              2.826
 Vibration     4          0.639              1.835              2.104
 Vibration     5          0.649              1.806              1.936
 Vibration     6          0.653              1.794              1.873
 Vibration     7          0.659              1.775              1.783
 Vibration     8          0.674              1.728              1.594
 Vibration     9          0.687              1.689              1.464
 Vibration    10          0.701              1.648              1.345
 Vibration    11          0.713              1.614              1.255
 Vibration    12          0.725              1.582              1.180
 Vibration    13          0.751              1.509              1.033
 Vibration    14          0.779              1.435              0.905
 Vibration    15          0.829              1.311              0.731
 Vibration    16          0.840              1.285              0.698
 Vibration    17          0.852              1.259              0.668
 Vibration    18          0.871              1.215              0.620
 Vibration    19          0.885              1.184              0.588
 Vibration    20          0.904              1.143              0.547
 Vibration    21          0.960              1.028              0.446

 Optimization completed.
    -- Stationary point found.

 1\1\GINC-NODE203\Freq\RB3LYP\6-31G(d)\C8H17N5\VSC10255\09-Dec-2020\0\\
 #N Geom=AllCheck Guess=TCheck SCRF=Check GenChk RB3LYP/6-31G(d) Freq\\
 CID_149351704_JID_3288_neutraal\\0,1\C,0.5964805916,-0.0562424648,0.29
 0286675\C,0.2419760788,-1.5079638757,-0.0133305118\C,1.4645282801,-2.4
 387037127,0.0797096635\N,1.1342065951,-3.8361902721,-0.195191643\C,0.1
 712829338,-3.9993055171,-1.2150356622\C,-0.4395717406,-2.9636200028,-1
 .8231205128\N,-0.2756400687,-1.6230804032,-1.3777428804\C,-1.272820434
 2,-3.1799734564,-3.0586322799\N,-1.1640106596,-4.5352574341,-3.6096438

 Normal termination of Gaussian 16 at Wed Dec  9 23:04:30 2020.

 ----------------------------------------------------------------------
 # B3LYP/6-311++G(d,p) empiricaldispersion=gd3bj scf=xqc pop=npa geom=c
 heck
 ----------------------------------------------------------------------

 ---------------------------------------
 CID_149351704_JID_3288_Energie_neutraal
 ---------------------------------------
 Structure from the checkpoint file:  "JID_3288.chk"
 Charge =  0 Multiplicity = 1

 SCF Done:  E(RB3LYP) =  -589.046851371     A.U. after   14 cycles
 Normal termination of Gaussian 16 at Wed Dec  9 23:08:10 2020.

 ----------------------------------------------------------------------
 # B3LYP/6-311++G(d,p) empiricaldispersion=gd3bj scf=xqc pop=npa geom=c
 heck
 ----------------------------------------------------------------------

 -------------------------------------
 CID_149351704_JID_3288_Energie_kation
 -------------------------------------
 Structure from the checkpoint file:  "JID_3288.chk"
 Charge =  1 Multiplicity = 2

 SCF Done:  E(UB3LYP) =  -588.806173877     A.U. after   21 cycles
 Normal termination of Gaussian 16 at Wed Dec  9 23:15:47 2020.
 Gaussian 16:  ES64L-G16RevA.03 25-Dec-2016

 ------------------------------------
 CID_149351704_JID_3288_Energie_anion
 ------------------------------------
 Structure from the checkpoint file:  "JID_3288.chk"
 Charge = -1 Multiplicity = 2

                         Standard orientation:
 ---------------------------------------------------------------------
 Center     Atomic      Atomic             Coordinates (Angstroms)
 Number     Number       Type             X           Y           Z
 ---------------------------------------------------------------------
      1          6           0        4.091362    0.537914    0.199967
      2          6           0        2.653102    0.071834    0.398793
      3          6           0        2.366648   -1.259159   -0.319515
      4          7           0        0.994249   -1.723887   -0.124062
      5          6           0        0.040827   -0.682350   -0.114142
      6          6           0        0.373098    0.620602   -0.200553
      7          7           0        1.724791    1.059888   -0.153282
      8          6           0       -0.682825    1.670181   -0.426410
      9          7           0       -2.003883    1.115072   -0.740908
     10          6           0       -2.319496   -0.060520    0.082229
     11          7           0       -1.297162   -1.135676   -0.046060
     12          6           0       -2.409188    0.344593    1.555913
     13          7           0       -3.621333   -0.551629   -0.338600
     14          1           0        4.798174   -0.180492    0.630436
     15          1           0        4.263003    1.506287    0.685056
     16          1           0        4.310762    0.652370   -0.866932
     17          1           0        2.465687   -0.095529    1.476302
     18          1           0        2.540362   -1.111609   -1.392864
     19          1           0        3.054871   -2.035717    0.027230
     20          1           0        0.886233   -2.325401    0.689459
     21          1           0        1.804477    1.946157    0.342665
     22          1           0       -0.775379    2.325944    0.454588
     23          1           0       -0.388967    2.325284   -1.257059
     24          1           0       -1.979325    0.802812   -1.712645
     25          1           0       -1.510064   -1.746118   -0.836324
     26          1           0       -3.074199    1.204960    1.655977
     27          1           0       -2.807267   -0.492349    2.136691
     28          1           0       -1.421604    0.588277    1.954887
     29          1           0       -3.626660   -0.725453   -1.343928
     30          1           0       -3.797901   -1.444370    0.119163
 ---------------------------------------------------------------------

 SCF Done:  E(UB3LYP) =  -589.033811184     A.U. after   32 cycles

 The electronic state is 2-A.
 Alpha  occ. eigenvalues --  -14.20744 -14.20642 -14.20257 -14.19855 -14.19625
 Alpha  occ. eigenvalues --  -10.15790 -10.10561 -10.09942 -10.09671 -10.09389
 Alpha  occ. eigenvalues --  -10.07378 -10.06266 -10.05344  -0.87510  -0.83948
 Alpha  occ. eigenvalues --   -0.79990  -0.76640  -0.75203  -0.67581  -0.62681
 Alpha  occ. eigenvalues --   -0.60504  -0.57911  -0.55609  -0.50707  -0.47170
 Alpha  occ. eigenvalues --   -0.43600  -0.42851  -0.41431  -0.39565  -0.38341
 Alpha  occ. eigenvalues --   -0.37731  -0.36623  -0.34329  -0.32981  -0.31303
 Alpha  occ. eigenvalues --   -0.30731  -0.29442  -0.28961  -0.27702  -0.27421
 Alpha  occ. eigenvalues --   -0.27403  -0.26289  -0.26113  -0.25267  -0.22059
 Alpha  occ. eigenvalues --   -0.17652  -0.15929  -0.15336  -0.12451  -0.06729
 Alpha  occ. eigenvalues --    0.04344
 Alpha virt. eigenvalues --    0.05986   0.07308   0.07818   0.08545   0.09353
 Alpha virt. eigenvalues --    0.09698   0.10213   0.10512   0.11277   0.11704
 Alpha virt. eigenvalues --    0.12078   0.12629   0.13630   0.14172   0.14364

  Beta  occ. eigenvalues --  -14.20728 -14.20623 -14.20236 -14.19836 -14.19586
  Beta  occ. eigenvalues --  -10.15790 -10.10559 -10.09925 -10.09660 -10.09372
  Beta  occ. eigenvalues --  -10.07376 -10.06236 -10.05322  -0.87484  -0.83920
  Beta  occ. eigenvalues --   -0.79961  -0.76586  -0.75163  -0.67542  -0.62636
  Beta  occ. eigenvalues --   -0.60459  -0.57860  -0.55563  -0.50657  -0.47110
  Beta  occ. eigenvalues --   -0.43547  -0.42805  -0.41399  -0.39513  -0.38301
  Beta  occ. eigenvalues --   -0.37681  -0.36581  -0.34292  -0.32944  -0.31263
  Beta  occ. eigenvalues --   -0.30692  -0.29411  -0.28929  -0.27673  -0.27391
  Beta  occ. eigenvalues --   -0.27362  -0.26246  -0.26070  -0.25235  -0.22028
  Beta  occ. eigenvalues --   -0.17613  -0.15890  -0.15307  -0.12429  -0.06706
  Beta virt. eigenvalues --    0.06637   0.07154   0.08030   0.08313   0.08983
  Beta virt. eigenvalues --    0.09737   0.10231   0.10617   0.10722   0.11606
  Beta virt. eigenvalues --    0.12255   0.12356   0.12833   0.13762   0.14375

 Mulliken charges and spin densities:
               1          2
     1  C    0.975306  -1.516260
     2  C   -1.070317   1.058210
     3  C    0.450576  -0.958204
     4  N   -0.292643   0.221216
     5  C   -0.445821   0.270404
     6  C    0.231126  -0.115713
     7  N   -0.134598   0.191503
     8  C    1.143342  -1.795555
     9  N    0.050554  -0.010740
    10  C   -0.278403  -0.669956
    11  N   -0.241236   0.148032
    12  C    0.438959  -0.608440
    13  N   -0.407301   0.080503
    14  H   -0.227889   0.363134
    15  H   -0.421711   0.552190
    16  H    0.072660   0.067813
    17  H   -0.233264   0.401799
    18  H    0.129767   0.046398
    19  H   -0.340791   0.521081
    20  H   -0.007809   0.270830
    21  H    0.114695   0.104835
    22  H   -0.021994   0.215634
    23  H    0.051608   0.120813
    24  H   -0.006572   0.254417
    25  H   -0.129901   0.423861
    26  H    0.122318   0.058481
    27  H   -0.086768   0.227450
    28  H   -0.164836   0.315687
    29  H   -0.231502   0.466728
    30  H   -0.037555   0.293848
 Sum of Mulliken charges =  -1.00000   1.00000

 Dipole moment (field-independent basis, Debye):
    X=              0.0275    Y=              1.3945    Z=             -0.7879  Tot=              1.6019
 Quadrupole moment (field-independent basis, Debye-Ang):
   XX=           -158.0023   YY=           -117.9846   ZZ=           -112.9723
   XY=             -1.5088   XZ=            -10.6811   YZ=             -1.2339

 Summary of Natural Population Analysis:

                                       Natural Population
                Natural  -----------------------------------------------
    Atom  No    Charge         Core      Valence    Rydberg      Total
 -----------------------------------------------------------------------
      C    1   -0.28652      0.99965     2.27969    0.00718     3.28652
      C    2   -0.01762      0.99961     2.00583    0.01218     3.01762
      C    3   -0.08625      0.99960     2.07503    0.01161     3.08625
      N    4   -0.32773      0.99970     2.81524    0.01280     3.82773
      C    5    0.14678      0.99938     1.83984    0.01400     2.85322
      C    6    0.01729      0.99941     1.97283    0.01047     2.98271
      N    7   -0.32852      0.99969     2.81682    0.01202     3.82852
      C    8   -0.09468      0.99959     2.08423    0.01085     3.09468
      N    9   -0.33793      0.99972     2.82638    0.01183     3.83793
      C   10    0.23938      0.99964     1.74251    0.01848     2.76062
      N   11   -0.34962      0.99967     2.83549    0.01446     3.84962
      C   12   -0.29185      0.99959     2.28567    0.00659     3.29185
      N   13   -0.41854      0.99973     2.90722    0.01159     3.91854
      H   14    0.10103      0.00000     0.39764    0.00132     0.39897
      H   15    0.10017      0.00000     0.39861    0.00122     0.39983
      H   16    0.09894      0.00000     0.39989    0.00117     0.40106
      H   17    0.08181      0.00000     0.41498    0.00320     0.41819
      H   18    0.09198      0.00000     0.40634    0.00167     0.40802
      H   19    0.09884      0.00000     0.39998    0.00117     0.40116
      H   20    0.18182      0.00000     0.31465    0.00354     0.31818
      H   21    0.17714      0.00000     0.31944    0.00342     0.32286
      H   22    0.08931      0.00000     0.40889    0.00180     0.41069
      H   23    0.09885      0.00000     0.39951    0.00164     0.40115
      H   24    0.17019      0.00000     0.32666    0.00315     0.32981
      H   25    0.18069      0.00000     0.31440    0.00491     0.31931
      H   26    0.10482      0.00000     0.39419    0.00099     0.39518
      H   27    0.10241      0.00000     0.39664    0.00096     0.39759
      H   28    0.10455      0.00000     0.39386    0.00158     0.39545
      H   29    0.17536      0.00000     0.32156    0.00308     0.32464
      H   30    0.17790      0.00000     0.32014    0.00196     0.32210
 =======================================================================
   * Total *    0.00000     12.99497    36.81418    0.19085    50.00000

 Normal termination of Gaussian 16 at Wed Dec  9 23:27:22 2020.
