 Gaussian 16, Revision A.03,

 -----------------------------------------------------------
 # opt freq B3LYP/6-31G(d) empiricaldispersion=gd3bj scf=xqc
 -----------------------------------------------------------

 ------------------------------
 CID_118210255_JID_965_neutraal
 ------------------------------
 Symbolic Z-matrix:
 Charge =  0 Multiplicity = 1

 SCF Done:  E(RB3LYP) =  -427.818508123     A.U. after   13 cycles
 SCF Done:  E(RB3LYP) =  -427.821692229     A.U. after   10 cycles
 SCF Done:  E(RB3LYP) =  -427.821922741     A.U. after   10 cycles
 SCF Done:  E(RB3LYP) =  -427.821945991     A.U. after    9 cycles
 SCF Done:  E(RB3LYP) =  -427.821950718     A.U. after    8 cycles
 SCF Done:  E(RB3LYP) =  -427.821951851     A.U. after    7 cycles
 SCF Done:  E(RB3LYP) =  -427.821952129     A.U. after    7 cycles
 SCF Done:  E(RB3LYP) =  -427.821952214     A.U. after    7 cycles
 SCF Done:  E(RB3LYP) =  -427.821952318     A.U. after    7 cycles
 SCF Done:  E(RB3LYP) =  -427.821952350     A.U. after    7 cycles
 Optimization completed.
    -- Stationary point found.

 1\1\GINC-NODE118\FOpt\RB3LYP\6-31G(d)\C9H16O1\VSC10255\08-Dec-2020\0\\
 # opt freq B3LYP/6-31G(d) empiricaldispersion=gd3bj scf=xqc\\CID_11821
 0255_JID_965_neutraal\\0,1\C,-1.5303320933,0.7162837304,0.1744591004\C
 ,-1.6224502652,-0.8145088311,0.1366153511\C,-0.3955681757,-1.578226097
 9,0.6600367871\C,0.8362068754,-1.4388283514,-0.2503758293\C,1.74670139
 32,-0.2328358819,0.0227507713\C,1.0096775977,1.0835821349,0.304704555\
 C,-0.2871352767,1.3375682453,-0.483339489\C,2.8812512878,-0.5405851743
 ,1.0329191069\O,3.8599472204,-0.6702233744,-0.0202070887\C,2.915764538

 Normal termination of Gaussian 16 at Tue Dec  8 13:32:32 2020.

 --------------------------------------------------------------------
 #N Geom=AllCheck Guess=TCheck SCRF=Check GenChk RB3LYP/6-31G(d) Freq
 --------------------------------------------------------------------

 Structure from the checkpoint file:  "JID_965.chk"
 ------------------------------
 CID_118210255_JID_965_neutraal
 ------------------------------
 Charge =  0 Multiplicity = 1

 SCF Done:  E(RB3LYP) =  -427.821952350     A.U. after    1 cycles

  Exact polarizability:  98.724   0.626  90.472  -0.132  -1.190  85.244
 Approx polarizability: 124.556  -0.186 124.870  -0.402  -1.993 131.565

                      1                      2                      3
                      A                      A                      A
 Frequencies --     50.7753                88.1795               156.8054
 Red. masses --      3.7745                 3.1949                 2.0985
 Frc consts  --      0.0057                 0.0146                 0.0304
 IR Inten    --      3.1423                 2.7354                 0.0177

                      4                      5                      6
                      A                      A                      A
 Frequencies --    245.6657               277.0647               282.4367
 Red. masses --      1.9471                 3.7116                 2.7503
 Frc consts  --      0.0692                 0.1679                 0.1293
 IR Inten    --      0.1385                 0.0312                 0.1601

                      7                      8                      9
                      A                      A                      A
 Frequencies --    301.6871               371.7158               396.0975
 Red. masses --      1.9869                 1.9263                 2.3128
 Frc consts  --      0.1065                 0.1568                 0.2138
 IR Inten    --      0.0749                 0.1089                 0.1709

                     10                     11                     12
                      A                      A                      A
 Frequencies --    461.1019               479.5037               512.9494
 Red. masses --      2.2714                 2.0242                 1.5099
 Frc consts  --      0.2845                 0.2742                 0.2341
 IR Inten    --      0.8016                 0.3886                 0.6022

                     13                     14                     15
                      A                      A                      A
 Frequencies --    648.0147               776.9492               813.6784
 Red. masses --      2.8163                 2.9517                 1.5321
 Frc consts  --      0.6968                 1.0498                 0.5976
 IR Inten    --      0.0570                 0.6247                 0.4086

                     16                     17                     18
                      A                      A                      A
 Frequencies --    823.6151               852.7653               869.9724
 Red. masses --      2.1443                 2.7205                 1.5016
 Frc consts  --      0.8570                 1.1656                 0.6696
 IR Inten    --      3.0408                 9.1270                 5.1649

                     19                     20                     21
                      A                      A                      A
 Frequencies --    920.0544               932.1689               960.1778
 Red. masses --      2.1073                 2.2181                 2.0238
 Frc consts  --      1.0510                 1.1356                 1.0993
 IR Inten    --      6.7755                 6.0459                 0.9701

                     22                     23                     24
                      A                      A                      A
 Frequencies --    985.4852               991.6862              1002.3000
 Red. masses --      2.0638                 1.5537                 2.3359
 Frc consts  --      1.1809                 0.9003                 1.3826
 IR Inten    --      3.0368                 0.0962                 3.7245

                     25                     26                     27
                      A                      A                      A
 Frequencies --   1016.9573              1042.3332              1064.8022
 Red. masses --      2.2444                 9.8420                 1.5415
 Frc consts  --      1.3676                 6.3001                 1.0297
 IR Inten    --      5.7185                77.8169                 0.1144

                     28                     29                     30
                      A                      A                      A
 Frequencies --   1085.5482              1104.4784              1124.4692
 Red. masses --      2.0581                 2.1000                 2.0641
 Frc consts  --      1.4290                 1.5094                 1.5377
 IR Inten    --      0.6320                 2.8549                 0.0705

                     31                     32                     33
                      A                      A                      A
 Frequencies --   1163.3995              1168.1541              1173.6927
 Red. masses --      1.7121                 1.0774                 1.3258
 Frc consts  --      1.3654                 0.8662                 1.0761
 IR Inten    --      2.7139                 0.0822                 0.9662

                     34                     35                     36
                      A                      A                      A
 Frequencies --   1218.7250              1244.0240              1251.0719
 Red. masses --      1.6211                 1.2787                 1.7789
 Frc consts  --      1.4186                 1.1659                 1.6404
 IR Inten    --      1.0055                 0.0662                 0.2914

                     37                     38                     39
                      A                      A                      A
 Frequencies --   1270.0367              1318.0851              1327.3024
 Red. masses --      1.3839                 1.2630                 1.2642
 Frc consts  --      1.3152                 1.2928                 1.3122
 IR Inten    --      8.1314                 3.2425                 0.6126

                     40                     41                     42
                      A                      A                      A
 Frequencies --   1333.1192              1336.8130              1381.0545
 Red. masses --      1.2778                 1.3690                 1.4022
 Frc consts  --      1.3380                 1.4415                 1.5757
 IR Inten    --      1.7165                 0.6387                 0.2180

                     43                     44                     45
                      A                      A                      A
 Frequencies --   1397.5131              1400.3200              1405.0285
 Red. masses --      1.3870                 1.4655                 1.4339
 Frc consts  --      1.5960                 1.6932                 1.6678
 IR Inten    --      1.3037                 3.7969                 1.1611

                     46                     47                     48
                      A                      A                      A
 Frequencies --   1412.7306              1415.8926              1420.0390
 Red. masses --      1.4601                 1.4185                 1.6349
 Frc consts  --      1.7169                 1.6755                 1.9424
 IR Inten    --      1.7895                 4.3595                 0.1725

                     49                     50                     51
                      A                      A                      A
 Frequencies --   1511.3151              1516.2811              1517.5920
 Red. masses --      1.0810                 1.0913                 1.0906
 Frc consts  --      1.4547                 1.4782                 1.4799
 IR Inten    --      1.1574                 0.1277                 5.0457

                     52                     53                     54
                      A                      A                      A
 Frequencies --   1519.0221              1529.9453              1535.2524
 Red. masses --      1.0942                 1.0801                 1.0869
 Frc consts  --      1.4875                 1.4896                 1.5093
 IR Inten    --      3.0042                 7.7505                 0.4708

                     55                     56                     57
                      A                      A                      A
 Frequencies --   1544.8874              1566.4434              3010.4175
 Red. masses --      1.0813                 1.1110                 1.0556
 Frc consts  --      1.5205                 1.6061                 5.6365
 IR Inten    --      8.4137                 2.2256                97.1815

                     58                     59                     60
                      A                      A                      A
 Frequencies --   3017.6425              3019.8343              3020.5602
 Red. masses --      1.0661                 1.0661                 1.0619
 Frc consts  --      5.7196                 5.7280                 5.7084
 IR Inten    --      7.3555                16.7603                15.3667

                     61                     62                     63
                      A                      A                      A
 Frequencies --   3022.2728              3028.1758              3031.0463
 Red. masses --      1.0650                 1.0626                 1.0636
 Frc consts  --      5.7317                 5.7412                 5.7573
 IR Inten    --     25.9379                 2.9756                37.7115

                     64                     65                     66
                      A                      A                      A
 Frequencies --   3033.0555              3059.5518              3061.0164
 Red. masses --      1.0657                 1.0960                 1.1033
 Frc consts  --      5.7762                 6.0447                 6.0909
 IR Inten    --     14.2529                83.8776                19.7082

                     67                     68                     69
                      A                      A                      A
 Frequencies --   3062.5452              3067.0378              3067.6017
 Red. masses --      1.1006                 1.1023                 1.1062
 Frc consts  --      6.0822                 6.1095                 6.1332
 IR Inten    --      7.9712                16.2076                21.8528

                     70                     71                     72
                      A                      A                      A
 Frequencies --   3071.8288              3074.7996              3075.4300
 Red. masses --      1.1001                 1.0975                 1.1011
 Frc consts  --      6.1163                 6.1136                 6.1359
 IR Inten    --    160.0521                67.2331                78.8627

 - Thermochemistry -
 -------------------
 Temperature   298.150 Kelvin.  Pressure   1.00000 Atm.
 Atom     1 has atomic number  6 and mass  12.00000

 Molecular mass:   140.12012 amu.
 Principal axes and moments of inertia in atomic units:
                           1         2         3
     Eigenvalues --   710.208521957.802892283.84022
           X            0.99999   0.00373   0.00043
           Y           -0.00373   0.99999  -0.00049
           Z           -0.00043   0.00049   1.00000
 This molecule is an asymmetric top.
 Rotational symmetry number  1.
 Warning -- assumption of classical behavior for rotation
           may cause significant error
 Rotational temperatures (Kelvin)      0.12196     0.04424     0.03792
 Rotational constants (GHZ):           2.54114     0.92182     0.79022
 Zero-point vibrational energy     629475.0 (Joules/Mol)
                                  150.44813 (Kcal/Mol)
 Warning -- explicit consideration of  12 degrees of freedom as
           vibrations may cause significant error
 Vibrational temperatures:     73.05   126.87   225.61   353.46   398.63
          (Kelvin)            406.36   434.06   534.82   569.90   663.42
                              689.90   738.02   932.35  1117.86  1170.70
                             1185.00  1226.94  1251.70  1323.75  1341.18
                             1381.48  1417.89  1426.82  1442.09  1463.17
                             1499.69  1532.01  1561.86  1589.10  1617.86
                             1673.87  1680.71  1688.68  1753.47  1789.87
                             1800.01  1827.30  1896.43  1909.69  1918.06
                             1923.38  1987.03  2010.71  2014.75  2021.52
                             2032.60  2037.15  2043.12  2174.45  2181.59
                             2183.48  2185.53  2201.25  2208.89  2222.75
                             2253.76  4331.32  4341.71  4344.87  4345.91
                             4348.38  4356.87  4361.00  4363.89  4402.01
                             4404.12  4406.32  4412.78  4413.59  4419.68
                             4423.95  4424.86

 Zero-point correction=                           0.239754 (Hartree/Particle)
 Thermal correction to Energy=                    0.249125
 Thermal correction to Enthalpy=                  0.250069
 Thermal correction to Gibbs Free Energy=         0.205076
 Sum of electronic and zero-point Energies=           -427.582198
 Sum of electronic and thermal Energies=              -427.572827
 Sum of electronic and thermal Enthalpies=            -427.571883
 Sum of electronic and thermal Free Energies=         -427.616876

                     E (Thermal)             CV                S
                      KCal/Mol        Cal/Mol-Kelvin    Cal/Mol-Kelvin
 Total                  156.328             37.027             94.697
 Electronic               0.000              0.000              0.000
 Translational            0.889              2.981             40.724
 Rotational               0.889              2.981             29.542
 Vibrational            154.551             31.065             24.431
 Vibration     1          0.595              1.977              4.787
 Vibration     2          0.601              1.957              3.700
 Vibration     3          0.620              1.895              2.588
 Vibration     4          0.660              1.770              1.761
 Vibration     5          0.678              1.716              1.552
 Vibration     6          0.681              1.706              1.519
 Vibration     7          0.694              1.671              1.408
 Vibration     8          0.743              1.530              1.073
 Vibration     9          0.763              1.479              0.977
 Vibration    10          0.819              1.336              0.763
 Vibration    11          0.836              1.296              0.711
 Vibration    12          0.868              1.221              0.627

 Optimization completed.
    -- Stationary point found.

 1\1\GINC-NODE118\Freq\RB3LYP\6-31G(d)\C9H16O1\VSC10255\08-Dec-2020\0\\
 #N Geom=AllCheck Guess=TCheck SCRF=Check GenChk RB3LYP/6-31G(d) Freq\\
 CID_118210255_JID_965_neutraal\\0,1\C,-1.5303320933,0.7162837304,0.174
 4591004\C,-1.6224502652,-0.8145088311,0.1366153511\C,-0.3955681757,-1.
 5782260979,0.6600367871\C,0.8362068754,-1.4388283514,-0.2503758293\C,1
 .7467013932,-0.2328358819,0.0227507713\C,1.0096775977,1.0835821349,0.3
 04704555\C,-0.2871352767,1.3375682453,-0.483339489\C,2.8812512878,-0.5
 405851743,1.0329191069\O,3.8599472204,-0.6702233744,-0.0202070887\C,2.

 Normal termination of Gaussian 16 at Tue Dec  8 13:39:34 2020.

 ----------------------------------------------------------------------
 # B3LYP/6-311++G(d,p) empiricaldispersion=gd3bj scf=xqc pop=npa geom=c
 heck
 ----------------------------------------------------------------------

 --------------------------------------
 CID_118210255_JID_965_Energie_neutraal
 --------------------------------------
 Structure from the checkpoint file:  "JID_965.chk"
 Charge =  0 Multiplicity = 1

 SCF Done:  E(RB3LYP) =  -427.940574901     A.U. after   13 cycles
 Normal termination of Gaussian 16 at Tue Dec  8 13:42:16 2020.

 ----------------------------------------------------------------------
 # B3LYP/6-311++G(d,p) empiricaldispersion=gd3bj scf=xqc pop=npa geom=c
 heck
 ----------------------------------------------------------------------

 ------------------------------------
 CID_118210255_JID_965_Energie_kation
 ------------------------------------
 Structure from the checkpoint file:  "JID_965.chk"
 Charge =  1 Multiplicity = 2

 SCF Done:  E(UB3LYP) =  -427.602269712     A.U. after   25 cycles
 Normal termination of Gaussian 16 at Tue Dec  8 13:51:08 2020.
 Gaussian 16:  ES64L-G16RevA.03 25-Dec-2016

 -----------------------------------
 CID_118210255_JID_965_Energie_anion
 -----------------------------------
 Structure from the checkpoint file:  "JID_965.chk"
 Charge = -1 Multiplicity = 2

                         Standard orientation:
 ---------------------------------------------------------------------
 Center     Atomic      Atomic             Coordinates (Angstroms)
 Number     Number       Type             X           Y           Z
 ---------------------------------------------------------------------
      1          6           0       -2.522253    0.671194    0.185005
      2          6           0       -2.460021   -0.818892   -0.174181
      3          6           0       -1.179310   -1.560775    0.240380
      4          6           0        0.059141   -1.120313   -0.558234
      5          6           0        0.836186    0.078642    0.004549
      6          6           0       -0.036607    1.232864    0.516080
      7          6           0       -1.328087    1.528253   -0.266270
      8          6           0        1.964992   -0.330817    0.984596
      9          8           0        2.982857   -0.145095   -0.021975
     10          6           0        2.024023    0.453371   -0.920955
     11          1           0       -2.617524    0.773755    1.275977
     12          1           0       -3.444639    1.088092   -0.240393
     13          1           0       -3.327875   -1.317804    0.276910
     14          1           0       -2.576913   -0.930336   -1.262081
     15          1           0       -1.341129   -2.633065    0.075529
     16          1           0       -1.001524   -1.444720    1.319064
     17          1           0       -0.257523   -0.883751   -1.583825
     18          1           0        0.764899   -1.954974   -0.654655
     19          1           0        0.588086    2.134083    0.558429
     20          1           0       -0.313786    1.021809    1.558919
     21          1           0       -1.160440    1.413759   -1.346348
     22          1           0       -1.592467    2.581759   -0.112589
     23          1           0        2.099342    0.360318    1.829400
     24          1           0        1.938703   -1.360634    1.364151
     25          1           0        2.190836    1.533918   -1.038519
     26          1           0        2.040705   -0.022604   -1.909984
 ---------------------------------------------------------------------

 SCF Done:  E(UB3LYP) =  -427.923211347     A.U. after   30 cycles

 The electronic state is 2-A.
 Alpha  occ. eigenvalues --  -19.01638 -10.11120 -10.11098 -10.08001 -10.05968
 Alpha  occ. eigenvalues --  -10.05879 -10.05627 -10.05505 -10.05270 -10.05211
 Alpha  occ. eigenvalues --   -0.94099  -0.72317  -0.66648  -0.65373  -0.59043
 Alpha  occ. eigenvalues --   -0.57027  -0.54726  -0.48691  -0.45495  -0.42993
 Alpha  occ. eigenvalues --   -0.39011  -0.38462  -0.35559  -0.34635  -0.33159
 Alpha  occ. eigenvalues --   -0.31729  -0.30509  -0.29822  -0.29567  -0.26533
 Alpha  occ. eigenvalues --   -0.26355  -0.25426  -0.21976  -0.21614  -0.21130
 Alpha  occ. eigenvalues --   -0.20271  -0.19613  -0.18662  -0.15293   0.04907
 Alpha virt. eigenvalues --    0.07373   0.07733   0.07798   0.09612   0.09722
 Alpha virt. eigenvalues --    0.10108   0.10443   0.10717   0.12447   0.12681
 Alpha virt. eigenvalues --    0.13019   0.13411   0.14125   0.14149   0.14854

  Beta  occ. eigenvalues --  -19.01637 -10.11105 -10.11081 -10.08003 -10.05948
  Beta  occ. eigenvalues --  -10.05857 -10.05603 -10.05480 -10.05246 -10.05187
  Beta  occ. eigenvalues --   -0.94093  -0.72284  -0.66611  -0.65326  -0.59006
  Beta  occ. eigenvalues --   -0.56988  -0.54664  -0.48624  -0.45411  -0.42933
  Beta  occ. eigenvalues --   -0.38993  -0.38407  -0.35539  -0.34584  -0.33128
  Beta  occ. eigenvalues --   -0.31695  -0.30475  -0.29777  -0.29530  -0.26487
  Beta  occ. eigenvalues --   -0.26318  -0.25380  -0.21940  -0.21564  -0.21085
  Beta  occ. eigenvalues --   -0.20222  -0.19580  -0.18632  -0.15279
  Beta virt. eigenvalues --    0.07280   0.08330   0.08477   0.08609   0.10252
  Beta virt. eigenvalues --    0.10393   0.10600   0.10882   0.11129   0.13143
  Beta virt. eigenvalues --    0.13263   0.13396   0.13776   0.14399   0.14495

 Mulliken charges and spin densities:
               1          2
     1  C    0.714734  -1.136490
     2  C    0.539063  -0.936712
     3  C   -0.715195   0.439125
     4  C    1.532702  -1.964779
     5  C   -2.063086   2.572931
     6  C    0.967050  -1.266516
     7  C   -0.729890   0.520228
     8  C    0.839528  -1.220625
     9  O   -0.213273   0.029310
    10  C    1.033918  -1.387178
    11  H   -0.232085   0.367566
    12  H   -0.259136   0.418975
    13  H   -0.357541   0.518310
    14  H   -0.191081   0.327087
    15  H   -0.540806   0.715474
    16  H    0.058047   0.071585
    17  H   -0.029620   0.148441
    18  H    0.087605   0.104927
    19  H   -0.071645   0.251439
    20  H   -0.100217   0.231856
    21  H   -0.054526   0.188262
    22  H   -0.634097   0.814751
    23  H   -0.137164   0.290156
    24  H   -0.133475   0.292514
    25  H   -0.161821   0.299480
    26  H   -0.147989   0.309884
 Sum of Mulliken charges =  -1.00000   1.00000

 Dipole moment (field-independent basis, Debye):
    X=              3.1661    Y=             -0.6328    Z=             -0.0699  Tot=              3.2295
 Quadrupole moment (field-independent basis, Debye-Ang):
   XX=           -125.0642   YY=           -111.8527   ZZ=            -92.9507
   XY=              0.1937   XZ=              0.4011   YZ=             -1.6791

 Summary of Natural Population Analysis:

                                       Natural Population
                Natural  -----------------------------------------------
    Atom  No    Charge         Core      Valence    Rydberg      Total
 -----------------------------------------------------------------------
      C    1   -0.18563      0.99962     2.17748    0.00853     3.18563
      C    2   -0.18537      0.99962     2.17716    0.00859     3.18537
      C    3   -0.19382      0.99962     2.18479    0.00941     3.19382
      C    4   -0.19016      0.99959     2.17995    0.01062     3.19016
      C    5   -0.05867      0.99954     2.04655    0.01257     3.05867
      C    6   -0.19210      0.99959     2.18132    0.01119     3.19210
      C    7   -0.19272      0.99962     2.18399    0.00911     3.19272
      C    8    0.00491      0.99957     1.98419    0.01133     2.99509
      O    9   -0.30972      0.99991     3.30109    0.00872     4.30972
      C   10    0.00580      0.99957     1.98336    0.01126     2.99420
      H   11    0.09115      0.00000     0.40720    0.00165     0.40885
      H   12    0.09934      0.00000     0.39902    0.00165     0.40066
      H   13    0.09916      0.00000     0.39920    0.00164     0.40084
      H   14    0.09096      0.00000     0.40741    0.00163     0.40904
      H   15    0.10125      0.00000     0.39719    0.00156     0.39875
      H   16    0.09372      0.00000     0.40472    0.00156     0.40628
      H   17    0.09729      0.00000     0.40110    0.00161     0.40271
      H   18    0.10178      0.00000     0.39657    0.00165     0.39822
      H   19    0.10238      0.00000     0.39589    0.00173     0.39762
      H   20    0.09738      0.00000     0.40095    0.00167     0.40262
      H   21    0.09359      0.00000     0.40479    0.00162     0.40641
      H   22    0.10226      0.00000     0.39588    0.00185     0.39774
      H   23    0.08049      0.00000     0.41778    0.00173     0.41951
      H   24    0.08324      0.00000     0.41508    0.00168     0.41676
      H   25    0.08116      0.00000     0.41702    0.00182     0.41884
      H   26    0.08237      0.00000     0.41599    0.00164     0.41763
 =======================================================================
   * Total *    0.00000      9.99627    28.87568    0.12805    39.00000

 Normal termination of Gaussian 16 at Tue Dec  8 13:59:39 2020.
