 Gaussian 16, Revision A.03,

 -----------------------------------------------------------
 # opt freq B3LYP/6-31G(d) empiricaldispersion=gd3bj scf=xqc
 -----------------------------------------------------------

 ------------------------------
 CID_81282541_JID_7390_neutraal
 ------------------------------
 Symbolic Z-matrix:
 Charge =  0 Multiplicity = 1

 SCF Done:  E(RB3LYP) =  -786.113581822     A.U. after   14 cycles
 SCF Done:  E(RB3LYP) =  -786.117889649     A.U. after   12 cycles
 SCF Done:  E(RB3LYP) =  -786.117789214     A.U. after   13 cycles
 SCF Done:  E(RB3LYP) =  -786.119112719     A.U. after   13 cycles
 SCF Done:  E(RB3LYP) =  -786.119685265     A.U. after   12 cycles
 SCF Done:  E(RB3LYP) =  -786.119776501     A.U. after   13 cycles
 SCF Done:  E(RB3LYP) =  -786.120045904     A.U. after   11 cycles
 SCF Done:  E(RB3LYP) =  -786.120109006     A.U. after   11 cycles
 SCF Done:  E(RB3LYP) =  -786.120115739     A.U. after    9 cycles
 SCF Done:  E(RB3LYP) =  -786.120117305     A.U. after    8 cycles
 SCF Done:  E(RB3LYP) =  -786.120118457     A.U. after    7 cycles
 SCF Done:  E(RB3LYP) =  -786.120118595     A.U. after    7 cycles
 SCF Done:  E(RB3LYP) =  -786.120118647     A.U. after    7 cycles
 SCF Done:  E(RB3LYP) =  -786.120118664     A.U. after    7 cycles
 SCF Done:  E(RB3LYP) =  -786.120118673     A.U. after    6 cycles
 Optimization completed.
    -- Stationary point found.
 Normal termination of Gaussian 16 at Fri Dec 11 12:05:35 2020.

 --------------------------------------------------------------------
 #N Geom=AllCheck Guess=TCheck SCRF=Check GenChk RB3LYP/6-31G(d) Freq
 --------------------------------------------------------------------

 Structure from the checkpoint file:  "JID_7390.chk"
 ------------------------------
 CID_81282541_JID_7390_neutraal
 ------------------------------
 Charge =  0 Multiplicity = 1

 SCF Done:  E(RB3LYP) =  -786.120118673     A.U. after    1 cycles

  Exact polarizability: 231.544  -8.266 150.735   1.383   1.045  91.152
 Approx polarizability: 310.296 -29.007 257.953   9.470   1.627 133.830

                      1                      2                      3
                      A                      A                      A
 Frequencies --     25.7253                51.3987                57.4492
 Red. masses --      4.8070                 6.7987                 3.8669
 Frc consts  --      0.0019                 0.0106                 0.0075
 IR Inten    --      1.1949                 1.1764                 0.4124

                      4                      5                      6
                      A                      A                      A
 Frequencies --     65.8299               124.4480               150.6903
 Red. masses --      4.3493                 4.4488                 3.9563
 Frc consts  --      0.0111                 0.0406                 0.0529
 IR Inten    --      0.6886                 1.3645                 0.2976

                      7                      8                      9
                      A                      A                      A
 Frequencies --    193.2394               213.1012               223.1959
 Red. masses --      2.2004                 5.0790                 1.2324
 Frc consts  --      0.0484                 0.1359                 0.0362
 IR Inten    --      1.0288                 0.8463                 0.2122

                     10                     11                     12
                      A                      A                      A
 Frequencies --    235.2601               271.0102               282.4529
 Red. masses --      1.9795                 4.4418                 4.5885
 Frc consts  --      0.0646                 0.1922                 0.2157
 IR Inten    --      1.9902                 1.3297                 0.6147

                     13                     14                     15
                      A                      A                      A
 Frequencies --    338.7415               355.7529               373.1798
 Red. masses --      3.4733                 3.3626                 3.8686
 Frc consts  --      0.2348                 0.2507                 0.3174
 IR Inten    --      2.5567                 3.8625                 2.1377

                     16                     17                     18
                      A                      A                      A
 Frequencies --    376.5568               416.0359               429.8076
 Red. masses --      3.5602                 1.4354                 2.3449
 Frc consts  --      0.2974                 0.1464                 0.2552
 IR Inten    --     11.4382               103.6624                 4.9994

                     19                     20                     21
                      A                      A                      A
 Frequencies --    459.3369               463.5010               506.6285
 Red. masses --      2.9381                 3.3598                 2.8592
 Frc consts  --      0.3652                 0.4253                 0.4324
 IR Inten    --      6.3949                 2.3023                 9.0697

                     22                     23                     24
                      A                      A                      A
 Frequencies --    556.2531               570.7577               576.0289
 Red. masses --      3.0170                 4.0774                 2.7765
 Frc consts  --      0.5500                 0.7826                 0.5428
 IR Inten    --      9.6177                13.5347                13.3402

                     25                     26                     27
                      A                      A                      A
 Frequencies --    613.3643               627.2688               695.0114
 Red. masses --      3.7230                 1.5226                 3.7758
 Frc consts  --      0.8252                 0.3530                 1.0746
 IR Inten    --     30.2027                46.3765                10.5106

                     28                     29                     30
                      A                      A                      A
 Frequencies --    717.4612               738.8093               762.4443
 Red. masses --      3.0000                 3.8292                 4.9781
 Frc consts  --      0.9098                 1.2315                 1.7050
 IR Inten    --     28.2561                14.7571                18.4795

                     31                     32                     33
                      A                      A                      A
 Frequencies --    778.9241               823.3467               839.4009
 Red. masses --      4.5206                 2.2118                 1.4388
 Frc consts  --      1.6160                 0.8834                 0.5973
 IR Inten    --     46.8623                 2.4926                 2.7809

                     34                     35                     36
                      A                      A                      A
 Frequencies --    855.0581               872.4434               879.8919
 Red. masses --      1.5487                 1.4366                 2.7281
 Frc consts  --      0.6671                 0.6443                 1.2444
 IR Inten    --     23.6226                 8.1909                 6.1850

                     37                     38                     39
                      A                      A                      A
 Frequencies --    935.9662               954.9811               989.4751
 Red. masses --      2.6059                 3.3973                 1.3078
 Frc consts  --      1.3450                 1.8255                 0.7544
 IR Inten    --     30.0482                 0.3679                 0.7431

                     40                     41                     42
                      A                      A                      A
 Frequencies --    993.2516              1013.9680              1039.9893
 Red. masses --      1.6199                 2.0411                 1.7547
 Frc consts  --      0.9416                 1.2364                 1.1182
 IR Inten    --      3.8377                 2.2544                18.1596

                     43                     44                     45
                      A                      A                      A
 Frequencies --   1050.7483              1075.3770              1098.4159
 Red. masses --      1.7825                 1.5206                 3.5518
 Frc consts  --      1.1595                 1.0360                 2.5248
 IR Inten    --      3.5713                 3.3199                41.1909

                     46                     47                     48
                      A                      A                      A
 Frequencies --   1121.4493              1131.7029              1148.6353
 Red. masses --      3.3875                 3.0766                 2.8707
 Frc consts  --      2.5101                 2.3216                 2.2315
 IR Inten    --     22.5849                39.4207                27.6477

                     49                     50                     51
                      A                      A                      A
 Frequencies --   1153.7017              1195.1769              1211.5725
 Red. masses --      2.3765                 2.3753                 1.3344
 Frc consts  --      1.8637                 1.9991                 1.1541
 IR Inten    --    389.9475                13.9455                 8.5575

                     52                     53                     54
                      A                      A                      A
 Frequencies --   1223.8424              1237.5599              1257.4658
 Red. masses --      1.6535                 1.6937                 1.4094
 Frc consts  --      1.4591                 1.5283                 1.3131
 IR Inten    --      5.2659               203.7028                15.0953

                     55                     56                     57
                      A                      A                      A
 Frequencies --   1299.6525              1314.4156              1330.3175
 Red. masses --      1.2786                 1.6258                 1.3268
 Frc consts  --      1.2724                 1.6550                 1.3835
 IR Inten    --      8.8606               171.5667                 4.0905

                     58                     59                     60
                      A                      A                      A
 Frequencies --   1344.8286              1347.1538              1352.9427
 Red. masses --      1.5754                 2.7610                 1.2929
 Frc consts  --      1.6787                 2.9522                 1.3944
 IR Inten    --     54.4697                18.6121                 1.0076

                     61                     62                     63
                      A                      A                      A
 Frequencies --   1388.5636              1391.4241              1396.4438
 Red. masses --      2.4697                 1.4205                 1.4437
 Frc consts  --      2.8056                 1.6203                 1.6587
 IR Inten    --    217.0553                17.5769                 2.4042

                     64                     65                     66
                      A                      A                      A
 Frequencies --   1406.9624              1426.9156              1441.4919
 Red. masses --      1.5348                 1.5024                 1.4341
 Frc consts  --      1.7900                 1.8024                 1.7558
 IR Inten    --     13.6302                13.1237                28.6927

                     67                     68                     69
                      A                      A                      A
 Frequencies --   1446.9921              1467.0584              1509.5982
 Red. masses --      1.2511                 2.1008                 1.0906
 Frc consts  --      1.5434                 2.6640                 1.4643
 IR Inten    --      1.3761                35.4206                 2.9880

                     70                     71                     72
                      A                      A                      A
 Frequencies --   1510.9544              1521.3007              1521.9404
 Red. masses --      1.0448                 1.1378                 1.1005
 Frc consts  --      1.4053                 1.5514                 1.5019
 IR Inten    --      5.2617                 9.1107                 7.3251

                     73                     74                     75
                      A                      A                      A
 Frequencies --   1523.2934              1537.0497              1548.3423
 Red. masses --      1.1012                 1.1138                 2.4362
 Frc consts  --      1.5055                 1.5503                 3.4411
 IR Inten    --      4.0783                 2.4442                 7.6635

                     76                     77                     78
                      A                      A                      A
 Frequencies --   1570.6762              1623.4498              1668.0476
 Red. masses --      2.3140                 3.7467                 5.6979
 Frc consts  --      3.3635                 5.8181                 9.3408
 IR Inten    --     85.8783                 5.8743               478.9623

                     79                     80                     81
                      A                      A                      A
 Frequencies --   1797.6696              2976.1625              3019.3123
 Red. masses --      8.9936                 1.0723                 1.0691
 Frc consts  --     17.1239                 5.5958                 5.7424
 IR Inten    --    346.4050                46.8119                43.5505

                     82                     83                     84
                      A                      A                      A
 Frequencies --   3045.7820              3058.1725              3062.8890
 Red. masses --      1.0608                 1.0837                 1.0631
 Frc consts  --      5.7978                 5.9718                 5.8758
 IR Inten    --     27.8086                34.2079                25.2884

                     85                     86                     87
                      A                      A                      A
 Frequencies --   3066.4506              3086.5112              3107.7343
 Red. masses --      1.0358                 1.1030                 1.1014
 Frc consts  --      5.7388                 6.1907                 6.2672
 IR Inten    --     22.6601                28.1223                36.5259

                     88                     89                     90
                      A                      A                      A
 Frequencies --   3114.5256              3123.4373              3134.3008
 Red. masses --      1.0931                 1.0966                 1.1003
 Frc consts  --      6.2475                 6.3034                 6.3683
 IR Inten    --     55.8255                34.1860                10.3227

                     91                     92                     93
                      A                      A                      A
 Frequencies --   3136.5938              3161.9426              3224.1810
 Red. masses --      1.1033                 1.0892                 1.0887
 Frc consts  --      6.3955                 6.4161                 6.6682
 IR Inten    --     16.1052                26.3481                 0.2724

                     94                     95                     96
                      A                      A                      A
 Frequencies --   3249.4182              3612.4349              3690.1812
 Red. masses --      1.0914                 1.0763                 1.0639
 Frc consts  --      6.7895                 8.2751                 8.5357
 IR Inten    --     14.8478                23.6398                74.4199

 - Thermochemistry -
 -------------------
 Temperature   298.150 Kelvin.  Pressure   1.00000 Atm.
 Atom     1 has atomic number  6 and mass  12.00000

 Molecular mass:   235.12084 amu.
 Principal axes and moments of inertia in atomic units:
                           1         2         3
     Eigenvalues --  1568.079959071.879139898.23154
           X            0.99988   0.01436  -0.00516
           Y           -0.01436   0.99990   0.00115
           Z            0.00518  -0.00108   0.99999
 This molecule is an asymmetric top.
 Rotational symmetry number  1.
 Warning -- assumption of classical behavior for rotation
           may cause significant error
 Rotational temperatures (Kelvin)      0.05524     0.00955     0.00875
 Rotational constants (GHZ):           1.15092     0.19894     0.18233
 Zero-point vibrational energy     759094.0 (Joules/Mol)
                                  181.42781 (Kcal/Mol)
 Warning -- explicit consideration of  25 degrees of freedom as
           vibrations may cause significant error
 Vibrational temperatures:     37.01    73.95    82.66    94.71   179.05
          (Kelvin)            216.81   278.03   306.61   321.13   338.49
                              389.92   406.39   487.37   511.85   536.92
                              541.78   598.58   618.40   660.88   666.87
                              728.93   800.32   821.19   828.78   882.49
                              902.50   999.97  1032.27  1062.98  1096.99
                             1120.70  1184.61  1207.71  1230.24  1255.25
                             1265.97  1346.65  1374.00  1423.63  1429.07
                             1458.87  1496.31  1511.79  1547.23  1580.38
                             1613.52  1628.27  1652.63  1659.92  1719.59
                             1743.18  1760.84  1780.57  1809.21  1869.91
                             1891.15  1914.03  1934.91  1938.25  1946.58
                             1997.83  2001.95  2009.17  2024.31  2053.01
                             2073.99  2081.90  2110.77  2171.98  2173.93
                             2188.81  2189.73  2191.68  2211.47  2227.72
                             2259.85  2335.78  2399.95  2586.45  4282.03
                             4344.12  4382.20  4400.03  4406.81  4411.94
                             4440.80  4471.34  4481.11  4493.93  4509.56
                             4512.86  4549.33  4638.88  4675.19  5197.49
                             5309.35

 Zero-point correction=                           0.289124 (Hartree/Particle)
 Thermal correction to Energy=                    0.304657
 Thermal correction to Enthalpy=                  0.305601
 Thermal correction to Gibbs Free Energy=         0.245454
 Sum of electronic and zero-point Energies=           -785.830995
 Sum of electronic and thermal Energies=              -785.815462
 Sum of electronic and thermal Enthalpies=            -785.814518
 Sum of electronic and thermal Free Energies=         -785.874665

                     E (Thermal)             CV                S
                      KCal/Mol        Cal/Mol-Kelvin    Cal/Mol-Kelvin
 Total                  191.175             60.709            126.591
 Electronic               0.000              0.000              0.000
 Translational            0.889              2.981             42.266
 Rotational               0.889              2.981             33.309
 Vibrational            189.398             54.747             51.015
 Vibration     1          0.593              1.985              6.134
 Vibration     2          0.596              1.977              4.763
 Vibration     3          0.596              1.975              4.543
 Vibration     4          0.597              1.971              4.274
 Vibration     5          0.610              1.929              3.030
 Vibration     6          0.618              1.902              2.663
 Vibration     7          0.635              1.849              2.197
 Vibration     8          0.644              1.821              2.017
 Vibration     9          0.649              1.806              1.933
 Vibration    10          0.655              1.787              1.838
 Vibration    11          0.675              1.727              1.590
 Vibration    12          0.681              1.706              1.519
 Vibration    13          0.719              1.598              1.218
 Vibration    14          0.731              1.563              1.141
 Vibration    15          0.745              1.527              1.067
 Vibration    16          0.747              1.520              1.053
 Vibration    17          0.779              1.435              0.906
 Vibration    18          0.791              1.405              0.859
 Vibration    19          0.817              1.340              0.768
 Vibration    20          0.821              1.331              0.756
 Vibration    21          0.862              1.235              0.642
 Vibration    22          0.912              1.126              0.531
 Vibration    23          0.927              1.094              0.503
 Vibration    24          0.932              1.083              0.493
 Vibration    25          0.973              1.004              0.427

                           ! Non-Optimized Parameters !
 Normal termination of Gaussian 16 at Fri Dec 11 12:18:25 2020.

 ----------------------------------------------------------------------
 # B3LYP/6-311++G(d,p) empiricaldispersion=gd3bj scf=xqc pop=npa geom=c
 heck
 ----------------------------------------------------------------------

 --------------------------------------
 CID_81282541_JID_7390_Energie_neutraal
 --------------------------------------
 Structure from the checkpoint file:  "JID_7390.chk"
 Charge =  0 Multiplicity = 1

 SCF Done:  E(RB3LYP) =  -786.347713014     A.U. after   16 cycles
 Normal termination of Gaussian 16 at Fri Dec 11 12:25:30 2020.

 ----------------------------------------------------------------------
 # B3LYP/6-311++G(d,p) empiricaldispersion=gd3bj scf=xqc pop=npa geom=c
 heck
 ----------------------------------------------------------------------

 ------------------------------------
 CID_81282541_JID_7390_Energie_kation
 ------------------------------------
 Structure from the checkpoint file:  "JID_7390.chk"
 Charge =  1 Multiplicity = 2

 SCF Done:  E(UB3LYP) =  -786.071381189     A.U. after   22 cycles
 Normal termination of Gaussian 16 at Fri Dec 11 12:40:15 2020.
 Gaussian 16:  ES64L-G16RevA.03 25-Dec-2016

 ----------------------------------------------------------------------
 # B3LYP/6-311++G(d,p) empiricaldispersion=gd3bj scf=xqc pop=npa geom=c
 heck
 ----------------------------------------------------------------------

 -----------------------------------
 CID_81282541_JID_7390_Energie_anion
 -----------------------------------
 Structure from the checkpoint file:  "JID_7390.chk"
 Charge = -1 Multiplicity = 2

                         Standard orientation:
 ---------------------------------------------------------------------
 Center     Atomic      Atomic             Coordinates (Angstroms)
 Number     Number       Type             X           Y           Z
 ---------------------------------------------------------------------
      1          6           0        3.569066    2.013087    0.179126
      2          6           0        2.414024    1.051520    0.027748
      3          6           0        2.556670   -0.358533   -0.042426
      4          6           0        1.401482   -1.143935   -0.183922
      5          6           0        0.132071   -0.599386   -0.257146
      6          6           0       -0.030824    0.798056   -0.181715
      7          6           0        1.131567    1.584989   -0.039621
      8          7           0       -1.248475    1.442091   -0.274791
      9          6           0       -2.578803    0.878362   -0.052703
     10          6           0       -2.741827    0.098447    1.264178
     11          6           0       -4.172600   -0.448573    1.373276
     12          6           0       -4.553268   -1.198297    0.097163
     13          8           0       -4.418600   -0.366669   -1.050172
     14          6           0       -3.075993    0.045089   -1.249061
     15          6           0        3.823576   -1.114529    0.016628
     16          8           0        3.910311   -2.329609   -0.040439
     17          8           0        4.945899   -0.351562    0.143842
     18          1           0        4.138950    1.815968    1.091491
     19          1           0        4.275999    1.923500   -0.650490
     20          1           0        3.200785    3.042743    0.213381
     21          1           0        1.532407   -2.218961   -0.240640
     22          1           0       -0.718988   -1.254445   -0.383882
     23          1           0        1.016540    2.665643    0.019913
     24          1           0       -1.191489    2.437198   -0.113110
     25          1           0       -3.251046    1.743202   -0.005376
     26          1           0       -2.027473   -0.731327    1.297814
     27          1           0       -2.502958    0.753175    2.110312
     28          1           0       -4.267435   -1.112515    2.241391
     29          1           0       -4.879732    0.378810    1.515136
     30          1           0       -3.922241   -2.097355   -0.016844
     31          1           0       -5.599022   -1.517542    0.116647
     32          1           0       -3.059567    0.652108   -2.157890
     33          1           0       -2.433871   -0.832986   -1.415553
     34          1           0        5.676745   -0.996921    0.166241
 ---------------------------------------------------------------------

 SCF Done:  E(UB3LYP) =  -786.342264860     A.U. after   33 cycles
 SCF Done:  E(UB3LYP) =  -786.342264860     a.u. after    1 cycles

 The electronic state is 2-A.
 Alpha  occ. eigenvalues --  -19.05093 -19.03254 -18.97865 -14.21814 -10.16901
 Alpha  occ. eigenvalues --  -10.12583 -10.11763 -10.11024 -10.10041 -10.07698
 Alpha  occ. eigenvalues --  -10.07521 -10.07208 -10.05991 -10.05693 -10.05454
 Alpha  occ. eigenvalues --  -10.05444 -10.05364  -0.98773  -0.94749  -0.89053
 Alpha  occ. eigenvalues --   -0.83328  -0.74177  -0.70107  -0.67267  -0.66040
 Alpha  occ. eigenvalues --   -0.62917  -0.58396  -0.55586  -0.55133  -0.52869
 Alpha  occ. eigenvalues --   -0.48489  -0.48372  -0.46172  -0.42212  -0.40889
 Alpha  occ. eigenvalues --   -0.39410  -0.38756  -0.37978  -0.37129  -0.35344
 Alpha  occ. eigenvalues --   -0.33898  -0.33797  -0.33608  -0.32302  -0.30761
 Alpha  occ. eigenvalues --   -0.30654  -0.30254  -0.29964  -0.29187  -0.28341
 Alpha  occ. eigenvalues --   -0.27764  -0.26434  -0.25099  -0.24384  -0.23838
 Alpha  occ. eigenvalues --   -0.23035  -0.21808  -0.21024  -0.18953  -0.16448
 Alpha  occ. eigenvalues --   -0.16116  -0.13989  -0.09653   0.04271
 Alpha virt. eigenvalues --    0.05988   0.06572   0.07486   0.08309   0.08507
 Alpha virt. eigenvalues --    0.08893   0.09727   0.09905   0.10521   0.11022
 Alpha virt. eigenvalues --    0.11145   0.11986   0.12109   0.12817   0.13429

  Beta  occ. eigenvalues --  -19.05043 -19.03250 -18.97724 -14.21758 -10.16724
  Beta  occ. eigenvalues --  -10.12574 -10.11747 -10.11004 -10.09836 -10.07679
  Beta  occ. eigenvalues --  -10.07412 -10.07200 -10.05998 -10.05591 -10.05494
  Beta  occ. eigenvalues --  -10.05418 -10.05412  -0.98590  -0.94738  -0.88829
  Beta  occ. eigenvalues --   -0.83142  -0.74018  -0.70051  -0.67165  -0.65916
  Beta  occ. eigenvalues --   -0.62720  -0.58345  -0.55537  -0.54988  -0.52690
  Beta  occ. eigenvalues --   -0.48377  -0.48301  -0.46042  -0.42114  -0.40829
  Beta  occ. eigenvalues --   -0.39289  -0.38698  -0.37920  -0.36998  -0.35305
  Beta  occ. eigenvalues --   -0.33769  -0.33696  -0.33091  -0.32202  -0.30710
  Beta  occ. eigenvalues --   -0.30366  -0.30186  -0.29875  -0.29144  -0.28259
  Beta  occ. eigenvalues --   -0.27599  -0.26204  -0.25001  -0.24280  -0.23772
  Beta  occ. eigenvalues --   -0.22965  -0.21655  -0.20552  -0.18534  -0.16292
  Beta  occ. eigenvalues --   -0.15980  -0.13670  -0.09209
  Beta virt. eigenvalues --    0.06539   0.07279   0.07727   0.08014   0.08540
  Beta virt. eigenvalues --    0.08781   0.08985   0.09922   0.10231   0.10843
  Beta virt. eigenvalues --    0.11281   0.11383   0.11930   0.12067   0.12820

 Mulliken charges and spin densities:
               1          2
     1  C   -0.331146  -0.303433
     2  C    0.061220   0.227423
     3  C    0.380608   0.034317
     4  C   -0.560400   0.099743
     5  C    0.524635  -0.398574
     6  C   -0.244413   0.120725
     7  C   -0.415996  -0.121422
     8  N   -0.121226   0.222873
     9  C   -0.010025  -0.576235
    10  C   -0.239865   0.296678
    11  C    0.398613  -0.807166
    12  C    0.016061  -0.314508
    13  O   -0.152391   0.038984
    14  C    0.173654  -0.498852
    15  C    0.294088  -0.074252
    16  O   -0.391311   0.051412
    17  O   -0.233929   0.009124
    18  H    0.149972   0.016918
    19  H    0.164962   0.002321
    20  H    0.067799   0.059036
    21  H    0.173592   0.027766
    22  H    0.241622  -0.120342
    23  H   -0.295632   0.367570
    24  H   -0.160470   0.454988
    25  H   -0.716780   0.903575
    26  H    0.079482   0.053757
    27  H    0.003393   0.173120
    28  H   -0.123634   0.270815
    29  H   -0.112015   0.269370
    30  H    0.109182  -0.008878
    31  H   -0.086229   0.282577
    32  H    0.080319   0.103388
    33  H   -0.003559   0.138318
    34  H    0.279817  -0.001135
 Sum of Mulliken charges =  -1.00000   1.00000

 Dipole moment (field-independent basis, Debye):
    X=              2.8206    Y=             -1.7604    Z=              0.1912  Tot=              3.3304
 Quadrupole moment (field-independent basis, Debye-Ang):
   XX=           -180.7165   YY=           -142.3056   ZZ=           -124.7383
   XY=             19.0864   XZ=              2.1255   YZ=              0.2983

 Summary of Natural Population Analysis:

                                       Natural Population
                Natural  -----------------------------------------------
    Atom  No    Charge         Core      Valence    Rydberg      Total
 -----------------------------------------------------------------------
      C    1   -0.29292      0.99964     2.28805    0.00523     3.29292
      C    2    0.03273      0.99951     1.95883    0.00894     2.96727
      C    3   -0.10958      0.99941     2.10062    0.00955     3.10958
      C    4   -0.03867      0.99955     2.03033    0.00879     3.03867
      C    5   -0.15735      0.99952     2.15046    0.00737     3.15735
      C    6    0.14020      0.99948     1.84925    0.01107     2.85980
      C    7   -0.14199      0.99949     2.13325    0.00925     3.14199
      N    8   -0.30423      0.99966     2.79104    0.01353     3.80423
      C    9   -0.02296      0.99957     2.00812    0.01527     3.02296
      C   10   -0.19743      0.99960     2.18844    0.00939     3.19743
      C   11   -0.20450      0.99963     2.19664    0.00823     3.20450
      C   12   -0.00930      0.99958     1.99695    0.01276     3.00930
      O   13   -0.30022      0.99989     3.29122    0.00911     4.30022
      C   14   -0.00927      0.99955     1.99649    0.01322     3.00927
      C   15    0.41400      0.99965     1.56060    0.02575     2.58600
      O   16   -0.32097      0.99987     3.31486    0.00623     4.32097
      O   17   -0.35292      0.99988     3.34652    0.00651     4.35292
      H   18    0.10709      0.00000     0.39162    0.00128     0.39291
      H   19    0.10695      0.00000     0.39184    0.00121     0.39305
      H   20    0.09488      0.00000     0.40432    0.00080     0.40512
      H   21    0.10767      0.00000     0.39140    0.00093     0.39233
      H   22    0.09654      0.00000     0.40186    0.00161     0.40346
      H   23    0.09365      0.00000     0.40467    0.00168     0.40635
      H   24    0.19096      0.00000     0.30493    0.00411     0.30904
      H   25    0.10270      0.00000     0.39373    0.00357     0.39730
      H   26    0.09974      0.00000     0.39873    0.00153     0.40026
      H   27    0.10407      0.00000     0.39491    0.00102     0.39593
      H   28    0.09969      0.00000     0.39927    0.00104     0.40031
      H   29    0.09937      0.00000     0.39913    0.00150     0.40063
      H   30    0.07405      0.00000     0.42473    0.00122     0.42595
      H   31    0.09103      0.00000     0.40785    0.00112     0.40897
      H   32    0.09566      0.00000     0.40303    0.00131     0.40434
      H   33    0.07721      0.00000     0.42141    0.00138     0.42279
      H   34    0.23412      0.00000     0.26317    0.00271     0.26588
 =======================================================================
   * Total *    0.00000     16.99350    45.79829    0.20821    63.00000

 Normal termination of Gaussian 16 at Fri Dec 11 13:02:27 2020.
