 Gaussian 16, Revision A.03,

 -----------------------------------------------------------
 # opt freq B3LYP/6-31G(d) empiricaldispersion=gd3bj scf=xqc
 -----------------------------------------------------------

 -------------------------------
 CID_119551588_JID_8530_neutraal
 -------------------------------
 Symbolic Z-matrix:
 Charge =  0 Multiplicity = 1

 SCF Done:  E(RB3LYP) =  -799.292541689     A.U. after   15 cycles
 SCF Done:  E(RB3LYP) =  -799.298621204     A.U. after   13 cycles
 SCF Done:  E(RB3LYP) =  -799.299604853     A.U. after   12 cycles
 SCF Done:  E(RB3LYP) =  -799.300441591     A.U. after   13 cycles
 SCF Done:  E(RB3LYP) =  -799.300789333     A.U. after   13 cycles
 SCF Done:  E(RB3LYP) =  -799.301282822     A.U. after   12 cycles
 SCF Done:  E(RB3LYP) =  -799.301532919     A.U. after   12 cycles
 SCF Done:  E(RB3LYP) =  -799.301726213     A.U. after   12 cycles
 SCF Done:  E(RB3LYP) =  -799.301886945     A.U. after   11 cycles
 SCF Done:  E(RB3LYP) =  -799.301647594     A.U. after   12 cycles
 SCF Done:  E(RB3LYP) =  -799.302605701     A.U. after   10 cycles
 SCF Done:  E(RB3LYP) =  -799.302607101     A.U. after    9 cycles
 SCF Done:  E(RB3LYP) =  -799.302607561     A.U. after    8 cycles
 SCF Done:  E(RB3LYP) =  -799.302607796     A.U. after    8 cycles
 SCF Done:  E(RB3LYP) =  -799.302607857     A.U. after    7 cycles
 SCF Done:  E(RB3LYP) =  -799.302607877     A.U. after    6 cycles
 Optimization completed.
    -- Stationary point found.
 Normal termination of Gaussian 16 at Fri Dec 11 21:12:18 2020.

 --------------------------------------------------------------------
 #N Geom=AllCheck Guess=TCheck SCRF=Check GenChk RB3LYP/6-31G(d) Freq
 --------------------------------------------------------------------

 Structure from the checkpoint file:  "JID_8530.chk"
 -------------------------------
 CID_119551588_JID_8530_neutraal
 -------------------------------
 Charge =  0 Multiplicity = 1

 SCF Done:  E(RB3LYP) =  -799.302607877     A.U. after    1 cycles

  Exact polarizability: 230.803  12.910 147.366  24.551 -17.946 115.063
 Approx polarizability: 326.664  26.355 248.712  48.066 -40.999 189.938

                      1                      2                      3
                      A                      A                      A
 Frequencies --     28.2276                40.6289                59.3044
 Red. masses --      3.8871                 3.2093                 3.4152
 Frc consts  --      0.0018                 0.0031                 0.0071
 IR Inten    --      0.1922                 0.8925                 0.8151

                      4                      5                      6
                      A                      A                      A
 Frequencies --     61.7709                92.1408               140.8381
 Red. masses --      3.9677                 6.1301                 4.7670
 Frc consts  --      0.0089                 0.0307                 0.0557
 IR Inten    --      1.2353                 6.2248                 0.0991

                      7                      8                      9
                      A                      A                      A
 Frequencies --    171.3733               189.7695               221.4100
 Red. masses --      2.7230                 1.2977                 3.2044
 Frc consts  --      0.0471                 0.0275                 0.0926
 IR Inten    --      0.5792                 0.5305                 4.4719

                     10                     11                     12
                      A                      A                      A
 Frequencies --    245.3636               269.8946               292.4002
 Red. masses --      3.9404                 2.1107                 4.9655
 Frc consts  --      0.1398                 0.0906                 0.2501
 IR Inten    --      3.0764                 7.4488                 0.5908

                     13                     14                     15
                      A                      A                      A
 Frequencies --    309.7479               328.4457               386.2272
 Red. masses --      4.6640                 2.8452                 4.1023
 Frc consts  --      0.2636                 0.1808                 0.3605
 IR Inten    --      2.0782                 0.5175                13.8831

                     16                     17                     18
                      A                      A                      A
 Frequencies --    397.4809               427.3821               431.7708
 Red. masses --      4.7010                 3.6354                 3.8447
 Frc consts  --      0.4376                 0.3912                 0.4223
 IR Inten    --      1.3494                10.3557                 3.4231

                     19                     20                     21
                      A                      A                      A
 Frequencies --    522.3502               577.5917               600.1763
 Red. masses --      5.5237                 2.2891                 6.4347
 Frc consts  --      0.8880                 0.4499                 1.3656
 IR Inten    --      7.6301                 7.4071                 1.7571

                     22                     23                     24
                      A                      A                      A
 Frequencies --    629.5812               638.9401               650.4320
 Red. masses --      4.1818                 4.0593                 2.6207
 Frc consts  --      0.9766                 0.9764                 0.6532
 IR Inten    --      2.6947                 1.8587                 3.5752

                     25                     26                     27
                      A                      A                      A
 Frequencies --    687.2134               696.2670               743.5445
 Red. masses --      5.7432                 1.2616                 4.5078
 Frc consts  --      1.5981                 0.3603                 1.4684
 IR Inten    --     21.1443                22.7342                22.0766

                     28                     29                     30
                      A                      A                      A
 Frequencies --    755.2026               765.1850               802.8227
 Red. masses --      3.0749                 5.6358                 4.2664
 Frc consts  --      1.0332                 1.9442                 1.6201
 IR Inten    --      6.2414                 8.9259                 4.0888

                     31                     32                     33
                      A                      A                      A
 Frequencies --    835.9411               842.4998               856.7458
 Red. masses --      1.6331                 1.8639                 1.6718
 Frc consts  --      0.6724                 0.7795                 0.7230
 IR Inten    --     49.7041                14.2220               114.1480

                     34                     35                     36
                      A                      A                      A
 Frequencies --    879.9892               885.6140               887.0663
 Red. masses --      2.5756                 1.6296                 1.3548
 Frc consts  --      1.1751                 0.7530                 0.6281
 IR Inten    --      1.1919                 4.4903                16.4881

                     37                     38                     39
                      A                      A                      A
 Frequencies --    920.0165               934.0032               943.0053
 Red. masses --      5.5911                 3.7074                 2.7145
 Frc consts  --      2.7883                 1.9055                 1.4222
 IR Inten    --      5.9254                 6.6680                 4.6464

                     40                     41                     42
                      A                      A                      A
 Frequencies --    952.2657               977.4620               991.8171
 Red. masses --      2.2929                 1.2534                 2.6195
 Frc consts  --      1.2251                 0.7055                 1.5182
 IR Inten    --     24.1736                 1.2361                11.2739

                     43                     44                     45
                      A                      A                      A
 Frequencies --   1043.1447              1052.1618              1076.2438
 Red. masses --      1.6950                 1.3909                 3.8739
 Frc consts  --      1.0867                 0.9072                 2.6437
 IR Inten    --      5.1628                 9.6767                19.4417

                     46                     47                     48
                      A                      A                      A
 Frequencies --   1096.8132              1110.4549              1115.3010
 Red. masses --      1.8477                 1.5889                 2.7828
 Frc consts  --      1.3096                 1.1544                 2.0394
 IR Inten    --     33.9953                 1.9011                11.8543

                     49                     50                     51
                      A                      A                      A
 Frequencies --   1151.9131              1160.9451              1165.4689
 Red. masses --      1.6381                 1.4909                 1.7498
 Frc consts  --      1.2807                 1.1839                 1.4003
 IR Inten    --     12.8755                29.3820                 8.3590

                     52                     53                     54
                      A                      A                      A
 Frequencies --   1189.5469              1215.8121              1241.5267
 Red. masses --      1.9177                 1.6439                 1.3080
 Frc consts  --      1.5988                 1.4317                 1.1879
 IR Inten    --     13.0631                62.7230                16.9773

                     55                     56                     57
                      A                      A                      A
 Frequencies --   1273.8105              1292.0201              1299.7098
 Red. masses --      3.1755                 1.8179                 1.9294
 Frc consts  --      3.0358                 1.7879                 1.9203
 IR Inten    --      5.9581                16.0456                13.3924

                     58                     59                     60
                      A                      A                      A
 Frequencies --   1306.7569              1321.7126              1340.4872
 Red. masses --      1.8983                 1.3614                 2.6275
 Frc consts  --      1.9099                 1.4013                 2.7817
 IR Inten    --     25.8127                13.2046               190.9724

                     61                     62                     63
                      A                      A                      A
 Frequencies --   1345.6857              1354.2646              1373.4537
 Red. masses --      1.3767                 1.2745                 1.6330
 Frc consts  --      1.4688                 1.3772                 1.8150
 IR Inten    --      1.2799                 3.7796                63.9644

                     64                     65                     66
                      A                      A                      A
 Frequencies --   1387.3810              1397.8643              1403.7853
 Red. masses --      1.8252                 2.1824                 2.7457
 Frc consts  --      2.0699                 2.5126                 3.1878
 IR Inten    --      4.7727                45.2632               147.5583

                     67                     68                     69
                      A                      A                      A
 Frequencies --   1461.7780              1478.7688              1486.6324
 Red. masses --      1.6328                 1.5153                 1.2772
 Frc consts  --      2.0556                 1.9523                 1.6631
 IR Inten    --     99.9126                28.3899                13.7453

                     70                     71                     72
                      A                      A                      A
 Frequencies --   1487.2246              1509.6318              1519.0413
 Red. masses --      2.3303                 1.0811                 3.8731
 Frc consts  --      3.0368                 1.4516                 5.2655
 IR Inten    --     17.3348                 8.0596                 6.6728

                     73                     74                     75
                      A                      A                      A
 Frequencies --   1520.7641              1525.6780              1537.4501
 Red. masses --      1.0857                 1.0787                 1.0878
 Frc consts  --      1.4794                 1.4794                 1.5150
 IR Inten    --      0.2399                 2.3579                 2.2917

                     76                     77                     78
                      A                      A                      A
 Frequencies --   1547.7467              1559.3189              1590.7538
 Red. masses --      1.1135                 5.2265                 4.8785
 Frc consts  --      1.5716                 7.4875                 7.2735
 IR Inten    --     25.1029                 6.6380                 1.1663

                     79                     80                     81
                      A                      A                      A
 Frequencies --   1684.8057              1736.8545              3051.2163
 Red. masses --      7.1080                10.3720                 1.0689
 Frc consts  --     11.8877                18.4348                 5.8632
 IR Inten    --     54.3202               270.1438                51.3608

                     82                     83                     84
                      A                      A                      A
 Frequencies --   3055.6357              3068.9785              3072.2997
 Red. masses --      1.0441                 1.0618                 1.0624
 Frc consts  --      5.7439                 5.8920                 5.9082
 IR Inten    --     20.6442                43.3486                22.1605

                     85                     86                     87
                      A                      A                      A
 Frequencies --   3109.6713              3122.1267              3125.5694
 Red. masses --      1.0996                 1.1007                 1.0998
 Frc consts  --      6.2650                 6.3213                 6.3305
 IR Inten    --     13.2422                 8.5328                44.0050

                     88                     89                     90
                      A                      A                      A
 Frequencies --   3127.3676              3147.3322              3171.1773
 Red. masses --      1.0967                 1.0886                 1.1035
 Frc consts  --      6.3198                 6.3536                 6.5381
 IR Inten    --     12.8532                29.7141                 9.8713

                     91                     92                     93
                      A                      A                      A
 Frequencies --   3218.9314              3237.6086              3251.7720
 Red. masses --      1.0879                 1.0952                 1.0926
 Frc consts  --      6.6414                 6.7638                 6.8068
 IR Inten    --      1.5260                 3.2195                 0.4044

                     94                     95                     96
                      A                      A                      A
 Frequencies --   3256.1868              3297.9786              3469.2482
 Red. masses --      1.0939                 1.1010                 1.0744
 Frc consts  --      6.8336                 7.0555                 7.6187
 IR Inten    --     11.6004                 0.8769                 1.5211

 - Thermochemistry -
 -------------------
 Temperature   298.150 Kelvin.  Pressure   1.00000 Atm.
 Atom     1 has atomic number  6 and mass  12.00000

 Molecular mass:   244.13241 amu.
 Principal axes and moments of inertia in atomic units:
                           1         2         3
     Eigenvalues --  2151.332447783.934598836.24950
           X            0.99996  -0.00620   0.00592
           Y            0.00632   0.99978  -0.02019
           Z           -0.00579   0.02023   0.99978
 This molecule is an asymmetric top.
 Rotational symmetry number  1.
 Warning -- assumption of classical behavior for rotation
           may cause significant error
 Rotational temperatures (Kelvin)      0.04026     0.01113     0.00980
 Rotational constants (GHZ):           0.83889     0.23185     0.20424
 Zero-point vibrational energy     748956.3 (Joules/Mol)
                                  179.00486 (Kcal/Mol)
 Warning -- explicit consideration of  21 degrees of freedom as
           vibrations may cause significant error
 Vibrational temperatures:     40.61    58.46    85.33    88.87   132.57
          (Kelvin)            202.63   246.57   273.04   318.56   353.02
                              388.32   420.70   445.66   472.56   555.69
                              571.89   614.91   621.22   751.55   831.03
                              863.52   905.83   919.29   935.83   988.75
                             1001.77  1069.79  1086.57  1100.93  1155.08
                             1202.73  1212.17  1232.67  1266.11  1274.20
                             1276.29  1323.70  1343.82  1356.77  1370.10
                             1406.35  1427.00  1500.85  1513.83  1548.47
                             1578.07  1597.70  1604.67  1657.35  1670.34
                             1676.85  1711.49  1749.28  1786.28  1832.73
                             1858.93  1869.99  1880.13  1901.65  1928.66
                             1936.14  1948.48  1976.09  1996.13  2011.21
                             2019.73  2103.17  2127.62  2138.93  2139.78
                             2172.02  2185.56  2188.04  2195.11  2212.05
                             2226.86  2243.51  2288.74  2424.06  2498.95
                             4390.02  4396.38  4415.58  4420.35  4474.12
                             4492.04  4497.00  4499.58  4528.31  4562.62
                             4631.32  4658.20  4678.57  4684.93  4745.06
                             4991.47

 Zero-point correction=                           0.285262 (Hartree/Particle)
 Thermal correction to Energy=                    0.300577
 Thermal correction to Enthalpy=                  0.301522
 Thermal correction to Gibbs Free Energy=         0.241190
 Sum of electronic and zero-point Energies=           -799.017345
 Sum of electronic and thermal Energies=              -799.002030
 Sum of electronic and thermal Enthalpies=            -799.001086
 Sum of electronic and thermal Free Energies=         -799.061418

                     E (Thermal)             CV                S
                      KCal/Mol        Cal/Mol-Kelvin    Cal/Mol-Kelvin
 Total                  188.615             59.650            126.979
 Electronic               0.000              0.000              0.000
 Translational            0.889              2.981             42.378
 Rotational               0.889              2.981             33.359
 Vibrational            186.838             53.689             51.242
 Vibration     1          0.593              1.984              5.950
 Vibration     2          0.594              1.981              5.228
 Vibration     3          0.597              1.974              4.480
 Vibration     4          0.597              1.973              4.400
 Vibration     5          0.602              1.955              3.614
 Vibration     6          0.615              1.912              2.792
 Vibration     7          0.626              1.878              2.420
 Vibration     8          0.633              1.854              2.230
 Vibration     9          0.648              1.808              1.948
 Vibration    10          0.660              1.770              1.764
 Vibration    11          0.674              1.729              1.597
 Vibration    12          0.688              1.688              1.460
 Vibration    13          0.699              1.655              1.364
 Vibration    14          0.712              1.619              1.268
 Vibration    15          0.755              1.500              1.015
 Vibration    16          0.764              1.476              0.972
 Vibration    17          0.789              1.411              0.867
 Vibration    18          0.793              1.401              0.853
 Vibration    19          0.877              1.201              0.605
 Vibration    20          0.934              1.080              0.490
 Vibration    21          0.958              1.031              0.449

 Optimization completed.
    -- Stationary point found.
 Normal termination of Gaussian 16 at Fri Dec 11 21:26:24 2020.

 ----------------------------------------------------------------------
 # B3LYP/6-311++G(d,p) empiricaldispersion=gd3bj scf=xqc pop=npa geom=c
 heck
 ----------------------------------------------------------------------

 ---------------------------------------
 CID_119551588_JID_8530_Energie_neutraal
 ---------------------------------------
 Structure from the checkpoint file:  "JID_8530.chk"
 Charge =  0 Multiplicity = 1

 SCF Done:  E(RB3LYP) =  -799.518797513     A.U. after   17 cycles
 Normal termination of Gaussian 16 at Fri Dec 11 21:33:41 2020.

 ----------------------------------------------------------------------
 # B3LYP/6-311++G(d,p) empiricaldispersion=gd3bj scf=xqc pop=npa geom=c
 heck
 ----------------------------------------------------------------------

 -------------------------------------
 CID_119551588_JID_8530_Energie_kation
 -------------------------------------
 Structure from the checkpoint file:  "JID_8530.chk"
 Charge =  1 Multiplicity = 2

 SCF Done:  E(UB3LYP) =  -799.232485837     A.U. after   28 cycles
 Normal termination of Gaussian 16 at Fri Dec 11 21:50:29 2020.
 Gaussian 16:  ES64L-G16RevA.03 25-Dec-2016

 ----------------------------------------------------------------------
 # B3LYP/6-311++G(d,p) empiricaldispersion=gd3bj scf=xqc pop=npa geom=c
 heck
 ----------------------------------------------------------------------

 ------------------------------------
 CID_119551588_JID_8530_Energie_anion
 ------------------------------------
 Structure from the checkpoint file:  "JID_8530.chk"
 Charge = -1 Multiplicity = 2

                         Standard orientation:
 ---------------------------------------------------------------------
 Center     Atomic      Atomic             Coordinates (Angstroms)
 Number     Number       Type             X           Y           Z
 ---------------------------------------------------------------------
      1          6           0        2.848553    2.013524    0.439071
      2          7           0        1.753593    1.056422    0.307730
      3          6           0        2.078789   -0.303036   -0.125320
      4          6           0        2.878588   -1.144906    0.911091
      5          6           0        4.048900   -1.749594    0.092924
      6          7           0        3.684189   -1.647808   -1.331523
      7          6           0        2.945676   -0.386734   -1.416090
      8          6           0        0.492720    1.601236    0.243269
      9          8           0        0.319832    2.817858    0.183712
     10          6           0       -0.686737    0.674289    0.301753
     11          6           0       -1.780981    1.029418   -0.442757
     12          7           0       -2.912510    0.264966   -0.395745
     13          6           0       -4.122286    0.385995   -1.049748
     14          6           0       -4.883400   -0.674319   -0.602760
     15          7           0       -4.210315   -1.451243    0.297713
     16          6           0       -3.015897   -0.882516    0.424967
     17          6           0       -1.901061   -1.224740    1.223189
     18          6           0       -0.759599   -0.466650    1.161301
     19          1           0        3.065160    2.527618   -0.504732
     20          1           0        3.746195    1.487823    0.773342
     21          1           0        2.574013    2.770470    1.174591
     22          1           0        1.133474   -0.800259   -0.337013
     23          1           0        2.240937   -1.927725    1.335210
     24          1           0        3.225093   -0.526732    1.744782
     25          1           0        4.961932   -1.162039    0.251077
     26          1           0        4.277779   -2.785934    0.354849
     27          1           0        3.048692   -2.412531   -1.559083
     28          1           0        2.346557   -0.336980   -2.329546
     29          1           0        3.668123    0.436632   -1.447086
     30          1           0       -1.796255    1.912564   -1.068862
     31          1           0       -4.315459    1.188851   -1.743977
     32          1           0       -5.897963   -0.911869   -0.895175
     33          1           0       -1.990811   -2.083521    1.878329
     34          1           0        0.089572   -0.707410    1.791027
 ---------------------------------------------------------------------

 SCF Done:  E(UB3LYP) =  -799.522398779     A.U. after   32 cycles

 The electronic state is 2-A.
 Alpha  occ. eigenvalues --  -18.96846 -14.25978 -14.23239 -14.21081 -14.17106
 Alpha  occ. eigenvalues --  -10.15245 -10.11120 -10.10869 -10.10294 -10.09869
 Alpha  occ. eigenvalues --  -10.09747 -10.08176 -10.07530 -10.07447 -10.07419
 Alpha  occ. eigenvalues --  -10.05712 -10.05588 -10.04454  -0.92264  -0.90566
 Alpha  occ. eigenvalues --   -0.84186  -0.81568  -0.78241  -0.70858  -0.66330
 Alpha  occ. eigenvalues --   -0.64408  -0.63292  -0.61698  -0.60036  -0.53036
 Alpha  occ. eigenvalues --   -0.51849  -0.50178  -0.49692  -0.48918  -0.44695
 Alpha  occ. eigenvalues --   -0.42091  -0.41662  -0.40449  -0.37385  -0.36152
 Alpha  occ. eigenvalues --   -0.35839  -0.34446  -0.33804  -0.33644  -0.33145
 Alpha  occ. eigenvalues --   -0.32634  -0.31895  -0.31112  -0.29588  -0.29004
 Alpha  occ. eigenvalues --   -0.28378  -0.27398  -0.26729  -0.26299  -0.25744
 Alpha  occ. eigenvalues --   -0.24451  -0.23768  -0.21788  -0.19968  -0.16387
 Alpha  occ. eigenvalues --   -0.15906  -0.14676  -0.12758  -0.12342  -0.09523
 Alpha  occ. eigenvalues --    0.04018
 Alpha virt. eigenvalues --    0.05908   0.07015   0.07939   0.08364   0.08808
 Alpha virt. eigenvalues --    0.09285   0.09909   0.10222   0.10241   0.10849
 Alpha virt. eigenvalues --    0.11637   0.11843   0.13243   0.13442   0.13873

  Beta  occ. eigenvalues --  -18.96806 -14.25849 -14.23222 -14.21070 -14.17092
  Beta  occ. eigenvalues --  -10.15198 -10.11121 -10.10885 -10.10276 -10.09846
  Beta  occ. eigenvalues --  -10.09732 -10.08210 -10.07522 -10.07374 -10.06961
  Beta  occ. eigenvalues --  -10.05656 -10.05587 -10.04222  -0.92177  -0.90317
  Beta  occ. eigenvalues --   -0.84154  -0.81527  -0.78004  -0.70595  -0.66306
  Beta  occ. eigenvalues --   -0.64154  -0.63236  -0.61369  -0.59927  -0.52729
  Beta  occ. eigenvalues --   -0.51748  -0.50042  -0.49559  -0.48783  -0.44640
  Beta  occ. eigenvalues --   -0.42034  -0.41537  -0.40281  -0.37216  -0.36034
  Beta  occ. eigenvalues --   -0.35779  -0.34399  -0.33590  -0.33123  -0.32966
  Beta  occ. eigenvalues --   -0.32535  -0.31825  -0.31055  -0.29494  -0.28952
  Beta  occ. eigenvalues --   -0.28323  -0.27309  -0.26652  -0.26209  -0.25585
  Beta  occ. eigenvalues --   -0.24305  -0.23699  -0.20987  -0.19178  -0.16323
  Beta  occ. eigenvalues --   -0.15870  -0.14531  -0.12666  -0.11765  -0.08545
  Beta virt. eigenvalues --    0.06152   0.07343   0.07974   0.08367   0.08797
  Beta virt. eigenvalues --    0.09201   0.09611   0.09945   0.10241   0.10397
  Beta virt. eigenvalues --    0.10914   0.11625   0.11859   0.13211   0.13457

 Mulliken charges and spin densities:
               1          2
     1  C   -0.068469  -0.272652
     2  N    0.243307   0.064133
     3  C   -1.111859   0.402131
     4  C    0.018511   0.036023
     5  C    0.316289  -0.877031
     6  N   -0.153504   0.122573
     7  C   -0.120510  -0.552736
     8  C   -0.718466  -0.047064
     9  O   -0.314191   0.008311
    10  C    0.925633  -0.225674
    11  C   -0.499152   0.433933
    12  N    0.222392   0.000412
    13  C    0.007518  -0.010661
    14  C   -0.119876   0.081652
    15  N   -0.141650   0.002501
    16  C   -0.492116   0.015905
    17  C   -0.255852   0.387130
    18  C    0.107211  -0.091303
    19  H    0.109847   0.069040
    20  H   -0.000057   0.147485
    21  H    0.106858   0.068314
    22  H    0.218535   0.005251
    23  H    0.091878   0.016248
    24  H   -0.014597   0.185244
    25  H   -0.052276   0.210664
    26  H   -0.117251   0.294226
    27  H    0.087872   0.143683
    28  H    0.037362   0.154005
    29  H    0.072211   0.105113
    30  H    0.140467   0.016957
    31  H    0.103860   0.017420
    32  H    0.133089   0.000195
    33  H    0.131291   0.018466
    34  H    0.105695   0.070107
 Sum of Mulliken charges =  -1.00000   1.00000

 Dipole moment (field-independent basis, Debye):
    X=              1.9262    Y=              0.4889    Z=             -0.6596  Tot=              2.0939
 Quadrupole moment (field-independent basis, Debye-Ang):
   XX=           -177.1809   YY=           -144.0240   ZZ=           -125.7707
   XY=             -4.3920   XZ=              9.2884   YZ=             -3.1851

 Summary of Natural Population Analysis:

                                       Natural Population
                Natural  -----------------------------------------------
    Atom  No    Charge         Core      Valence    Rydberg      Total
 -----------------------------------------------------------------------
      C    1   -0.18056      0.99964     2.17331    0.00761     3.18056
      N    2   -0.25502      0.99963     2.74521    0.01018     3.75502
      C    3   -0.01807      0.99956     2.00460    0.01391     3.01807
      C    4   -0.21041      0.99962     2.20174    0.00905     3.21041
      C    5   -0.09119      0.99965     2.08178    0.00976     3.09119
      N    6   -0.33474      0.99977     2.82270    0.01227     3.83474
      C    7   -0.09231      0.99962     2.08306    0.00964     3.09231
      C    8    0.35189      0.99959     1.62616    0.02236     2.64811
      O    9   -0.32699      0.99988     3.32207    0.00504     4.32699
      C   10   -0.10340      0.99947     2.09299    0.01093     3.10340
      C   11    0.12751      0.99952     1.86188    0.01109     2.87249
      N   12   -0.16841      0.99962     2.66069    0.00810     3.66841
      C   13   -0.06564      0.99958     2.05451    0.01155     3.06564
      C   14   -0.00851      0.99960     1.99482    0.01409     3.00851
      N   15   -0.27219      0.99970     2.76189    0.01060     3.77219
      C   16    0.17943      0.99958     1.80377    0.01721     2.82057
      C   17   -0.08238      0.99952     2.07349    0.00937     3.08238
      C   18   -0.08909      0.99955     2.08022    0.00933     3.08909
      H   19    0.09202      0.00000     0.40655    0.00144     0.40798
      H   20    0.09256      0.00000     0.40621    0.00124     0.40744
      H   21    0.10721      0.00000     0.39156    0.00123     0.39279
      H   22    0.11478      0.00000     0.38324    0.00197     0.38522
      H   23    0.10097      0.00000     0.39778    0.00125     0.39903
      H   24    0.10297      0.00000     0.39596    0.00107     0.39703
      H   25    0.08818      0.00000     0.41019    0.00163     0.41182
      H   26    0.09536      0.00000     0.40340    0.00124     0.40464
      H   27    0.16938      0.00000     0.32816    0.00246     0.33062
      H   28    0.09910      0.00000     0.39983    0.00108     0.40090
      H   29    0.09062      0.00000     0.40783    0.00155     0.40938
      H   30    0.09860      0.00000     0.40042    0.00098     0.40140
      H   31    0.09934      0.00000     0.39989    0.00077     0.40066
      H   32    0.08902      0.00000     0.41020    0.00078     0.41098
      H   33    0.10210      0.00000     0.39680    0.00110     0.39790
      H   34    0.09788      0.00000     0.40037    0.00175     0.40212
 =======================================================================
   * Total *   -0.00000     17.99310    46.78328    0.22362    65.00000

 Normal termination of Gaussian 16 at Fri Dec 11 22:10:22 2020.
