 Gaussian 16, Revision A.03,

 -----------------------------------------------------------
 # opt freq B3LYP/6-31G(d) empiricaldispersion=gd3bj scf=xqc
 -----------------------------------------------------------

 --------------------------------
 CID_110487234_JID_10644_neutraal
 --------------------------------
 Symbolic Z-matrix:
 Charge =  0 Multiplicity = 1

 SCF Done:  E(RB3LYP) =  -894.187196243     A.U. after   16 cycles
 SCF Done:  E(RB3LYP) =  -894.195465852     A.U. after   13 cycles
 SCF Done:  E(RB3LYP) =  -894.173118757     A.U. after   15 cycles
 SCF Done:  E(RB3LYP) =  -894.183578818     A.U. after   14 cycles
 SCF Done:  E(RB3LYP) =  -894.196004265     A.U. after   11 cycles
 SCF Done:  E(RB3LYP) =  -894.197259484     A.U. after   13 cycles
 SCF Done:  E(RB3LYP) =  -894.198291764     A.U. after   12 cycles
 SCF Done:  E(RB3LYP) =  -894.198849212     A.U. after   12 cycles
 SCF Done:  E(RB3LYP) =  -894.199005721     A.U. after   12 cycles
 SCF Done:  E(RB3LYP) =  -894.199154789     A.U. after   12 cycles
 SCF Done:  E(RB3LYP) =  -894.199424460     A.U. after    9 cycles
 SCF Done:  E(RB3LYP) =  -894.199425465     A.U. after    8 cycles
 SCF Done:  E(RB3LYP) =  -894.199426835     A.U. after    9 cycles
 SCF Done:  E(RB3LYP) =  -894.199427531     A.U. after    9 cycles
 SCF Done:  E(RB3LYP) =  -894.199427646     A.U. after    8 cycles
 SCF Done:  E(RB3LYP) =  -894.199427676     A.U. after    7 cycles
 Optimization completed.
    -- Stationary point found.
 Normal termination of Gaussian 16 at Sat Dec 12 16:34:42 2020.

 --------------------------------------------------------------------
 #N Geom=AllCheck Guess=TCheck SCRF=Check GenChk RB3LYP/6-31G(d) Freq
 --------------------------------------------------------------------

 Structure from the checkpoint file:  "JID_10644.chk"
 --------------------------------
 CID_110487234_JID_10644_neutraal
 --------------------------------
 Charge =  0 Multiplicity = 1

 SCF Done:  E(RB3LYP) =  -894.199427676     A.U. after    1 cycles

  Exact polarizability: 243.343   4.582 217.051   9.530   1.327  87.710
 Approx polarizability: 372.394   9.129 379.272  21.456  -5.715 145.310

                      1                      2                      3
                      A                      A                      A
 Frequencies --     24.9062                36.3546                54.9043
 Red. masses --      5.2074                 4.9346                 5.7467
 Frc consts  --      0.0019                 0.0038                 0.0102
 IR Inten    --      0.5235                 0.1967                 0.9016

                      4                      5                      6
                      A                      A                      A
 Frequencies --     68.6804                85.1340               132.9811
 Red. masses --      6.7329                 6.0271                 5.4309
 Frc consts  --      0.0187                 0.0257                 0.0566
 IR Inten    --      2.3435                 0.5464                 0.8695

                      7                      8                      9
                      A                      A                      A
 Frequencies --    162.6890               173.1741               193.0561
 Red. masses --      6.0421                 5.1475                 4.4547
 Frc consts  --      0.0942                 0.0910                 0.0978
 IR Inten    --      1.1740                 3.4432                 1.2181

                     10                     11                     12
                      A                      A                      A
 Frequencies --    217.6421               289.2365               315.7366
 Red. masses --      5.3045                 4.1597                 4.4645
 Frc consts  --      0.1480                 0.2050                 0.2622
 IR Inten    --      1.3815                 5.7205                21.4747

                     13                     14                     15
                      A                      A                      A
 Frequencies --    332.2206               335.2357               386.7921
 Red. masses --      4.2565                 5.2888                 2.6464
 Frc consts  --      0.2768                 0.3502                 0.2333
 IR Inten    --      2.8683                 0.7379                 0.7279

                     16                     17                     18
                      A                      A                      A
 Frequencies --    418.1692               446.7179               467.7807
 Red. masses --      1.5560                 2.0738                 4.0282
 Frc consts  --      0.1603                 0.2438                 0.5193
 IR Inten    --     79.3667                36.3433                 5.7428

                     19                     20                     21
                      A                      A                      A
 Frequencies --    487.9300               526.5816               534.8475
 Red. masses --      3.3681                 5.6048                 5.0420
 Frc consts  --      0.4724                 0.9157                 0.8498
 IR Inten    --      5.3588                 8.7724                 2.0152

                     22                     23                     24
                      A                      A                      A
 Frequencies --    578.2148               587.7277               591.9625
 Red. masses --      4.5605                 2.2261                 3.1091
 Frc consts  --      0.8983                 0.4531                 0.6419
 IR Inten    --      2.5353                31.8124                 6.0471

                     25                     26                     27
                      A                      A                      A
 Frequencies --    611.2053               614.0389               635.2684
 Red. masses --      2.8619                 3.3844                 1.2695
 Frc consts  --      0.6299                 0.7518                 0.3018
 IR Inten    --     26.8317                 9.6329               196.4250

                     28                     29                     30
                      A                      A                      A
 Frequencies --    649.5715               675.3663               698.3620
 Red. masses --      5.2987                 3.3194                 4.4702
 Frc consts  --      1.3173                 0.8921                 1.2845
 IR Inten    --     11.6657                53.9302                29.1348

                     31                     32                     33
                      A                      A                      A
 Frequencies --    733.5756               742.9863               757.1275
 Red. masses --      1.3967                 5.9838                 3.3141
 Frc consts  --      0.4428                 1.9462                 1.1193
 IR Inten    --     31.6992                10.8867                15.8708

                     34                     35                     36
                      A                      A                      A
 Frequencies --    762.8572               772.0848               818.1444
 Red. masses --      1.4107                 3.6262                 1.3433
 Frc consts  --      0.4837                 1.2736                 0.5298
 IR Inten    --     23.2716                27.0894                16.4591

                     37                     38                     39
                      A                      A                      A
 Frequencies --    822.2389               856.2633               868.2465
 Red. masses --      5.3601                 1.5034                 1.3135
 Frc consts  --      2.1351                 0.6494                 0.5834
 IR Inten    --      7.2515                16.2239                 0.3568

                     40                     41                     42
                      A                      A                      A
 Frequencies --    878.2638               882.0363               906.4848
 Red. masses --      2.6693                 2.3221                 5.0316
 Frc consts  --      1.2131                 1.0644                 2.4360
 IR Inten    --      3.7236                21.4498                 2.4909

                     43                     44                     45
                      A                      A                      A
 Frequencies --    915.4079               932.5283               964.0426
 Red. masses --      3.3887                 4.1812                 1.2690
 Frc consts  --      1.6730                 2.1423                 0.6949
 IR Inten    --      7.5769                11.6135                 0.1991

                     46                     47                     48
                      A                      A                      A
 Frequencies --    975.0215              1002.7285              1042.5965
 Red. masses --      2.4666                 1.3100                 1.3737
 Frc consts  --      1.3816                 0.7760                 0.8798
 IR Inten    --     32.7375                 0.5078                44.2138

                     49                     50                     51
                      A                      A                      A
 Frequencies --   1054.2560              1093.8869              1115.7574
 Red. masses --      2.0504                 3.0958                 2.0458
 Frc consts  --      1.3427                 2.1825                 1.5005
 IR Inten    --      2.5595                26.2480                17.8816

                     52                     53                     54
                      A                      A                      A
 Frequencies --   1121.2295              1155.9715              1173.8941
 Red. masses --      3.0493                 1.3680                 1.3162
 Frc consts  --      2.2586                 1.0770                 1.0687
 IR Inten    --      5.0454                20.2109                 9.5037

                     55                     56                     57
                      A                      A                      A
 Frequencies --   1185.0292              1195.8956              1222.3686
 Red. masses --      1.8560                 2.1607                 1.7971
 Frc consts  --      1.5356                 1.8206                 1.5821
 IR Inten    --      8.9062                75.9095                15.7266

                     58                     59                     60
                      A                      A                      A
 Frequencies --   1239.2505              1259.3753              1265.7205
 Red. masses --      2.3503                 2.2419                 1.9858
 Frc consts  --      2.1266                 2.0949                 1.8744
 IR Inten    --     25.7162                 5.7455                 0.2122

                     61                     62                     63
                      A                      A                      A
 Frequencies --   1312.7182              1334.6364              1371.7164
 Red. masses --      1.4175                 2.3969                 4.6519
 Frc consts  --      1.4392                 2.5155                 5.1572
 IR Inten    --     23.5516                 2.6803                 8.5221

                     64                     65                     66
                      A                      A                      A
 Frequencies --   1384.7374              1402.1392              1419.6580
 Red. masses --      1.6958                 2.4695                 3.8389
 Frc consts  --      1.9159                 2.8604                 4.5585
 IR Inten    --    110.9659                41.1601                91.9083

                     67                     68                     69
                      A                      A                      A
 Frequencies --   1430.7866              1437.0839              1480.4516
 Red. masses --      3.0644                 2.3862                 1.8551
 Frc consts  --      3.6961                 2.9035                 2.3955
 IR Inten    --     42.3666                33.6142                15.4681

                     70                     71                     72
                      A                      A                      A
 Frequencies --   1488.0850              1506.7999              1530.0291
 Red. masses --      1.1879                 1.8704                 4.1009
 Frc consts  --      1.5499                 2.5020                 5.6563
 IR Inten    --     14.2610                81.2712               135.1735

                     73                     74                     75
                      A                      A                      A
 Frequencies --   1555.0600              1560.0151              1614.7047
 Red. masses --      4.5414                 3.8858                 5.1136
 Frc consts  --      6.4705                 5.5717                 7.8553
 IR Inten    --     40.3672                23.1448                17.4198

                     76                     77                     78
                      A                      A                      A
 Frequencies --   1652.6552              1654.2940              1662.1855
 Red. masses --      5.2214                 6.0167                 2.6205
 Frc consts  --      8.4023                 9.7013                 4.2657
 IR Inten    --      4.9182                 2.7914                19.3970

                     79                     80                     81
                      A                      A                      A
 Frequencies --   1683.6274              1754.9041              3059.0626
 Red. masses --      1.8732                 7.6122                 1.0725
 Frc consts  --      3.1284                13.8124                 5.9130
 IR Inten    --    164.1149               348.1834                41.5538

                     82                     83                     84
                      A                      A                      A
 Frequencies --   3176.0816              3179.2507              3189.0125
 Red. masses --      1.0914                 1.0865                 1.0902
 Frc consts  --      6.4865                 6.4706                 6.5326
 IR Inten    --      2.0668                10.1801                 5.3111

                     85                     86                     87
                      A                      A                      A
 Frequencies --   3191.7508              3206.6392              3247.5986
 Red. masses --      1.0897                 1.0963                 1.0931
 Frc consts  --      6.5405                 6.6416                 6.7923
 IR Inten    --     24.6971                34.5035                 1.8936

                     88                     89                     90
                      A                      A                      A
 Frequencies --   3263.6524              3275.4615              3303.1489
 Red. masses --      1.0925                 1.0958                 1.1052
 Frc consts  --      6.8560                 6.9267                 7.1048
 IR Inten    --      3.8695                 1.6470                 1.2172

                     91                     92                     93
                      A                      A                      A
 Frequencies --   3546.0824              3585.2506              3668.7961
 Red. masses --      1.0487                 1.0754                 1.0989
 Frc consts  --      7.7693                 8.1448                 8.7149
 IR Inten    --    167.2563                28.7433                58.7318

 - Thermochemistry -
 -------------------
 Temperature   298.150 Kelvin.  Pressure   1.00000 Atm.
 Atom     1 has atomic number  6 and mass  12.00000

 Molecular mass:   267.10078 amu.
 Principal axes and moments of inertia in atomic units:
                           1         2         3
     Eigenvalues --  3381.382616953.626599857.41361
           X            0.99999  -0.00271   0.00329
           Y            0.00268   0.99997   0.00764
           Z           -0.00331  -0.00763   0.99997
 This molecule is an asymmetric top.
 Rotational symmetry number  1.
 Warning -- assumption of classical behavior for rotation
           may cause significant error
 Rotational temperatures (Kelvin)      0.02561     0.01246     0.00879
 Rotational constants (GHZ):           0.53373     0.25954     0.18308
 Zero-point vibrational energy     682923.1 (Joules/Mol)
                                  163.22255 (Kcal/Mol)
 Warning -- explicit consideration of  26 degrees of freedom as
           vibrations may cause significant error
 Vibrational temperatures:     35.83    52.31    79.00    98.82   122.49
          (Kelvin)            191.33   234.07   249.16   277.76   313.14
                              416.15   454.27   477.99   482.33   556.51
                              601.65   642.73   673.03   702.02   757.63
                              769.53   831.92   845.61   851.70   879.39
                              883.46   914.01   934.59   971.70  1004.79
                             1055.45  1068.99  1089.34  1097.58  1110.86
                             1177.13  1183.02  1231.97  1249.21  1263.63
                             1269.05  1304.23  1317.07  1341.70  1387.04
                             1402.84  1442.70  1500.06  1516.84  1573.86
                             1605.33  1613.20  1663.19  1688.97  1704.99
                             1720.63  1758.72  1783.01  1811.96  1821.09
                             1888.71  1920.24  1973.59  1992.33  2017.37
                             2042.57  2058.58  2067.64  2130.04  2141.02
                             2167.95  2201.37  2237.38  2244.51  2323.20
                             2377.80  2380.16  2391.51  2422.36  2524.92
                             4401.31  4569.67  4574.23  4588.28  4592.22
                             4613.64  4672.57  4695.67  4712.66  4752.49
                             5102.02  5158.38  5278.58

 Zero-point correction=                           0.260112 (Hartree/Particle)
 Thermal correction to Energy=                    0.276260
 Thermal correction to Enthalpy=                  0.277204
 Thermal correction to Gibbs Free Energy=         0.215034
 Sum of electronic and zero-point Energies=           -893.939316
 Sum of electronic and thermal Energies=              -893.923168
 Sum of electronic and thermal Enthalpies=            -893.922224
 Sum of electronic and thermal Free Energies=         -893.984394

                     E (Thermal)             CV                S
                      KCal/Mol        Cal/Mol-Kelvin    Cal/Mol-Kelvin
 Total                  173.355             64.080            130.848
 Electronic               0.000              0.000              0.000
 Translational            0.889              2.981             42.647
 Rotational               0.889              2.981             33.805
 Vibrational            171.578             58.119             54.397
 Vibration     1          0.593              1.985              6.199
 Vibration     2          0.594              1.982              5.448
 Vibration     3          0.596              1.976              4.632
 Vibration     4          0.598              1.969              4.191
 Vibration     5          0.601              1.959              3.769
 Vibration     6          0.613              1.920              2.902
 Vibration     7          0.623              1.888              2.518
 Vibration     8          0.627              1.875              2.401
 Vibration     9          0.635              1.850              2.198
 Vibration    10          0.646              1.814              1.979
 Vibration    11          0.686              1.694              1.478
 Vibration    12          0.703              1.644              1.332
 Vibration    13          0.714              1.611              1.249
 Vibration    14          0.716              1.605              1.235
 Vibration    15          0.755              1.498              1.012
 Vibration    16          0.781              1.431              0.898
 Vibration    17          0.806              1.368              0.806
 Vibration    18          0.825              1.322              0.744
 Vibration    19          0.844              1.277              0.689
 Vibration    20          0.882              1.191              0.595
 Vibration    21          0.890              1.173              0.576
 Vibration    22          0.935              1.078              0.489
 Vibration    23          0.945              1.058              0.471
 Vibration    24          0.949              1.049              0.464
 Vibration    25          0.970              1.008              0.431
 Vibration    26          0.973              1.002              0.426

 Optimization completed.
    -- Stationary point found.
 Normal termination of Gaussian 16 at Sat Dec 12 16:52:09 2020.

 ----------------------------------------------------------------------
 # B3LYP/6-311++G(d,p) empiricaldispersion=gd3bj scf=xqc pop=npa geom=c
 heck
 ----------------------------------------------------------------------

 ----------------------------------------
 CID_110487234_JID_10644_Energie_neutraal
 ----------------------------------------
 Structure from the checkpoint file:  "JID_10644.chk"
 Charge =  0 Multiplicity = 1

 SCF Done:  E(RB3LYP) =  -894.445092060     A.U. after   16 cycles
 Normal termination of Gaussian 16 at Sat Dec 12 16:59:16 2020.

 ----------------------------------------------------------------------
 # B3LYP/6-311++G(d,p) empiricaldispersion=gd3bj scf=xqc pop=npa geom=c
 heck
 ----------------------------------------------------------------------

 --------------------------------------
 CID_110487234_JID_10644_Energie_kation
 --------------------------------------
 Structure from the checkpoint file:  "JID_10644.chk"
 Charge =  1 Multiplicity = 2

 SCF Done:  E(UB3LYP) =  -894.175487622     A.U. after   23 cycles
 Normal termination of Gaussian 16 at Sat Dec 12 17:13:58 2020.
 Gaussian 16:  ES64L-G16RevA.03 25-Dec-2016

 ----------------------------------------------------------------------
 # B3LYP/6-311++G(d,p) empiricaldispersion=gd3bj scf=xqc pop=npa geom=c
 heck
 ----------------------------------------------------------------------

 -------------------------------------
 CID_110487234_JID_10644_Energie_anion
 -------------------------------------
 Structure from the checkpoint file:  "JID_10644.chk"
 Charge = -1 Multiplicity = 2

                         Standard orientation:
 ---------------------------------------------------------------------
 Center     Atomic      Atomic             Coordinates (Angstroms)
 Number     Number       Type             X           Y           Z
 ---------------------------------------------------------------------
      1          6           0       -4.055438   -1.905922    0.067095
      2          6           0       -4.178929   -0.534752   -0.023768
      3          6           0       -3.010641    0.263368   -0.039118
      4          6           0       -1.726607   -0.357757    0.045841
      5          6           0       -1.623453   -1.789206    0.137474
      6          6           0       -2.796533   -2.534679    0.144695
      7          7           0       -0.370457   -2.345276    0.256307
      8          7           0       -0.569843    0.348320    0.039854
      9          6           0       -0.621092    1.665080   -0.058227
     10          6           0       -1.842093    2.380250   -0.165303
     11          6           0       -3.022073    1.678789   -0.144948
     12          6           0        0.654043    2.462459   -0.136106
     13          8           0        0.636930    3.581585   -0.646354
     14          7           0        1.825541    1.942099    0.343348
     15          6           0        2.105560    0.759539    1.154519
     16          6           0        2.932287   -0.261242    0.445032
     17          6           0        4.227496   -0.663330    0.584778
     18          6           0        4.460276   -1.674956   -0.407111
     19          6           0        3.289043   -1.814167   -1.082723
     20          8           0        2.344888   -0.963123   -0.578576
     21          1           0       -4.946949   -2.527215    0.075609
     22          1           0       -5.153460   -0.060057   -0.087782
     23          1           0       -2.739798   -3.617922    0.214556
     24          1           0        0.399514   -1.758439   -0.046718
     25          1           0       -0.283098   -3.323117    0.018731
     26          1           0       -1.806241    3.457698   -0.268090
     27          1           0       -3.976337    2.194750   -0.216415
     28          1           0        2.605827    2.564469    0.168223
     29          1           0        2.659368    1.068324    2.049478
     30          1           0        1.157934    0.328195    1.470827
     31          1           0        4.935168   -0.283739    1.308825
     32          1           0        5.377743   -2.216300   -0.589446
     33          1           0        2.968025   -2.431188   -1.907694
 ---------------------------------------------------------------------

 SCF Done:  E(UB3LYP) =  -894.460657365     A.U. after   31 cycles

 The electronic state is 2-A.
 Alpha  occ. eigenvalues --  -19.09820 -18.93681 -14.20583 -14.18280 -14.13375
 Alpha  occ. eigenvalues --  -10.13739 -10.13694 -10.12048 -10.10840 -10.09178
 Alpha  occ. eigenvalues --  -10.08587 -10.06519 -10.05556 -10.04247 -10.03581
 Alpha  occ. eigenvalues --  -10.03190 -10.02955 -10.02685 -10.02224 -10.02220
 Alpha  occ. eigenvalues --   -1.02145  -0.89328  -0.80404  -0.79322  -0.76956
 Alpha  occ. eigenvalues --   -0.71790  -0.69512  -0.67744  -0.64674  -0.60960
 Alpha  occ. eigenvalues --   -0.59036  -0.58230  -0.51970  -0.51646  -0.49141
 Alpha  occ. eigenvalues --   -0.47355  -0.45766  -0.45491  -0.44267  -0.39643
 Alpha  occ. eigenvalues --   -0.38605  -0.38481  -0.37596  -0.36814  -0.35232
 Alpha  occ. eigenvalues --   -0.34057  -0.33341  -0.32597  -0.32125  -0.30584
 Alpha  occ. eigenvalues --   -0.30275  -0.29164  -0.28258  -0.27636  -0.26929
 Alpha  occ. eigenvalues --   -0.26286  -0.25871  -0.24823  -0.23445  -0.21288
 Alpha  occ. eigenvalues --   -0.20652  -0.19998  -0.18713  -0.14998  -0.14020
 Alpha  occ. eigenvalues --   -0.12955  -0.12566  -0.10921  -0.09948  -0.06510
 Alpha  occ. eigenvalues --    0.03910
 Alpha virt. eigenvalues --    0.06149   0.07482   0.08116   0.08333   0.09091
 Alpha virt. eigenvalues --    0.09891   0.10571   0.10762   0.10875   0.11079
 Alpha virt. eigenvalues --    0.12187   0.12935   0.13281   0.13638   0.14461

  Beta  occ. eigenvalues --  -19.09816 -18.93453 -14.20553 -14.18245 -14.12828
  Beta  occ. eigenvalues --  -10.13736 -10.13692 -10.11951 -10.10841 -10.09177
  Beta  occ. eigenvalues --  -10.08584 -10.06294 -10.05638 -10.03987 -10.03560
  Beta  occ. eigenvalues --  -10.03052 -10.03001 -10.02781 -10.02169 -10.01914
  Beta  occ. eigenvalues --   -1.02140  -0.88968  -0.79963  -0.79175  -0.76484
  Beta  occ. eigenvalues --   -0.71783  -0.69199  -0.67716  -0.64237  -0.60642
  Beta  occ. eigenvalues --   -0.59000  -0.57985  -0.51873  -0.51123  -0.49044
  Beta  occ. eigenvalues --   -0.47343  -0.45542  -0.45218  -0.44222  -0.39491
  Beta  occ. eigenvalues --   -0.38558  -0.38337  -0.37405  -0.36713  -0.35103
  Beta  occ. eigenvalues --   -0.34012  -0.33270  -0.32484  -0.32102  -0.30446
  Beta  occ. eigenvalues --   -0.30143  -0.29020  -0.27911  -0.26922  -0.26796
  Beta  occ. eigenvalues --   -0.26052  -0.25316  -0.24413  -0.23324  -0.20522
  Beta  occ. eigenvalues --   -0.20311  -0.19984  -0.17637  -0.14872  -0.12637
  Beta  occ. eigenvalues --   -0.12516  -0.12026  -0.10185  -0.09373  -0.05626
  Beta virt. eigenvalues --    0.06070   0.07441   0.08113   0.08267   0.09041
  Beta virt. eigenvalues --    0.09803   0.09845   0.10532   0.10750   0.10876
  Beta virt. eigenvalues --    0.11277   0.12146   0.12894   0.13285   0.13614

 Mulliken charges and spin densities:
               1          2
     1  C   -0.387463   0.123442
     2  C   -0.718992   0.011362
     3  C    0.699783   0.006454
     4  C   -0.435894  -0.000153
     5  C   -0.011167   0.100427
     6  C   -0.191305  -0.039091
     7  N   -0.402952   0.032196
     8  N    0.103221   0.265262
     9  C    0.037340   0.208747
    10  C   -0.226824  -0.079759
    11  C   -0.224091   0.259989
    12  C   -0.008379   0.005433
    13  O   -0.406318   0.078185
    14  N   -0.189315   0.009854
    15  C   -0.545986  -0.131487
    16  C    0.159147   0.064663
    17  C   -0.156633   0.028769
    18  C   -0.255413  -0.080979
    19  C   -0.002151   0.020056
    20  O    0.050120   0.007295
    21  H    0.107078  -0.009635
    22  H    0.071322  -0.004528
    23  H    0.084638   0.004152
    24  H    0.322687   0.013331
    25  H    0.210958   0.004554
    26  H    0.183692   0.006087
    27  H    0.113702  -0.017537
    28  H    0.288673   0.002029
    29  H    0.143421   0.022498
    30  H    0.230008  -0.021089
    31  H    0.118833   0.034971
    32  H    0.116752   0.027432
    33  H    0.121506   0.047070
 Sum of Mulliken charges =  -1.00000   1.00000

 Dipole moment (field-independent basis, Debye):
    X=              6.1860    Y=             -4.8066    Z=              1.1845  Tot=              7.9229
 Quadrupole moment (field-independent basis, Debye-Ang):
   XX=           -144.1901   YY=           -149.7386   ZZ=           -126.9680
   XY=             -7.5724   XZ=              3.0477   YZ=             10.2533

 Summary of Natural Population Analysis:

                                       Natural Population
                Natural  -----------------------------------------------
    Atom  No    Charge         Core      Valence    Rydberg      Total
 -----------------------------------------------------------------------
      C    1   -0.07458      0.99961     2.06489    0.01008     3.07458
      C    2   -0.11885      0.99954     2.10977    0.00953     3.11885
      C    3   -0.03210      0.99949     2.02448    0.00813     3.03210
      C    4    0.05952      0.99948     1.93000    0.01100     2.94048
      C    5    0.12774      0.99949     1.86173    0.01103     2.87226
      C    6   -0.15691      0.99943     2.14697    0.01051     3.15691
      N    7   -0.39865      0.99970     2.88945    0.00949     3.89865
      N    8   -0.17922      0.99964     2.66825    0.01133     3.67922
      C    9    0.10199      0.99951     1.88489    0.01361     2.89801
      C   10   -0.12527      0.99954     2.11719    0.00854     3.12527
      C   11   -0.02930      0.99954     2.02118    0.00858     3.02930
      C   12    0.34627      0.99963     1.63256    0.02154     2.65373
      O   13   -0.31582      0.99988     3.30974    0.00620     4.31582
      N   14   -0.31702      0.99966     2.80536    0.01199     3.81702
      C   15   -0.11529      0.99956     2.10567    0.01007     3.11529
      C   16    0.15996      0.99946     1.82613    0.01446     2.84004
      C   17   -0.15851      0.99950     2.15065    0.00837     3.15851
      C   18   -0.15681      0.99958     2.14803    0.00920     3.15681
      C   19    0.05599      0.99952     1.93075    0.01375     2.94401
      O   20   -0.22983      0.99986     3.22047    0.00950     4.22983
      H   21    0.08689      0.00000     0.41196    0.00115     0.41311
      H   22    0.08910      0.00000     0.40906    0.00184     0.41090
      H   23    0.09115      0.00000     0.40826    0.00059     0.40885
      H   24    0.20462      0.00000     0.29370    0.00168     0.29538
      H   25    0.17665      0.00000     0.32225    0.00110     0.32335
      H   26    0.10687      0.00000     0.39203    0.00110     0.39313
      H   27    0.08572      0.00000     0.41265    0.00163     0.41428
      H   28    0.18428      0.00000     0.31368    0.00205     0.31572
      H   29    0.09136      0.00000     0.40755    0.00109     0.40864
      H   30    0.13382      0.00000     0.36481    0.00138     0.36618
      H   31    0.10604      0.00000     0.39295    0.00102     0.39396
      H   32    0.10496      0.00000     0.39422    0.00082     0.39504
      H   33    0.09534      0.00000     0.40357    0.00109     0.40466
 =======================================================================
   * Total *    0.00009     19.99161    49.77485    0.23345    69.99991

 Normal termination of Gaussian 16 at Sat Dec 12 17:32:42 2020.
