 Gaussian 16, Revision A.03,

 -----------------------------------------------------------
 # opt freq B3LYP/6-31G(d) empiricaldispersion=gd3bj scf=xqc
 -----------------------------------------------------------

 ------------------------------
 CID_81123061_JID_5131_neutraal
 ------------------------------
 Symbolic Z-matrix:
 Charge =  0 Multiplicity = 1

 SCF Done:  E(RB3LYP) =  -1025.33328843     A.U. after   15 cycles
 SCF Done:  E(RB3LYP) =  -1025.33958490     A.U. after   13 cycles
 SCF Done:  E(RB3LYP) =  -1025.34026136     A.U. after   12 cycles
 SCF Done:  E(RB3LYP) =  -1025.34041274     A.U. after   12 cycles
 SCF Done:  E(RB3LYP) =  -1025.34051850     A.U. after   10 cycles
 SCF Done:  E(RB3LYP) =  -1025.34053957     A.U. after   10 cycles
 SCF Done:  E(RB3LYP) =  -1025.34055002     A.U. after   10 cycles
 SCF Done:  E(RB3LYP) =  -1025.34055500     A.U. after   10 cycles
 SCF Done:  E(RB3LYP) =  -1025.34055722     A.U. after   10 cycles
 SCF Done:  E(RB3LYP) =  -1025.34055826     A.U. after    9 cycles
 SCF Done:  E(RB3LYP) =  -1025.34055888     A.U. after    9 cycles
 SCF Done:  E(RB3LYP) =  -1025.34055916     A.U. after    8 cycles
 SCF Done:  E(RB3LYP) =  -1025.34055934     A.U. after    8 cycles
 SCF Done:  E(RB3LYP) =  -1025.34055941     A.U. after    7 cycles
 Optimization completed.
    -- Stationary point found.
 Normal termination of Gaussian 16 at Thu Dec 10 14:46:10 2020.

 --------------------------------------------------------------------
 #N Geom=AllCheck Guess=TCheck SCRF=Check GenChk RB3LYP/6-31G(d) Freq
 --------------------------------------------------------------------

 Structure from the checkpoint file:  "JID_5131.chk"
 ------------------------------
 CID_81123061_JID_5131_neutraal
 ------------------------------
 Charge =  0 Multiplicity = 1

 SCF Done:  E(RB3LYP) =  -1025.34055941     A.U. after    1 cycles

  Exact polarizability: 199.770  -0.724 148.169  -0.519   3.314  75.346
 Approx polarizability: 274.965  -9.063 265.560  -1.271  14.850 119.494

                      1                      2                      3
                      A                      A                      A
 Frequencies --     19.4379                53.9910                74.4411
 Red. masses --      4.7180                 3.1213                 4.6687
 Frc consts  --      0.0011                 0.0054                 0.0152
 IR Inten    --      0.1001                 0.2219                 1.7468

                      4                      5                      6
                      A                      A                      A
 Frequencies --     89.5195               112.1571               137.3833
 Red. masses --      4.3598                 2.4848                 4.2777
 Frc consts  --      0.0206                 0.0184                 0.0476
 IR Inten    --      4.6649                 5.4018                 0.7944

                      7                      8                      9
                      A                      A                      A
 Frequencies --    158.0752               170.3633               184.9012
 Red. masses --      1.8002                 2.4430                 2.9896
 Frc consts  --      0.0265                 0.0418                 0.0602
 IR Inten    --      0.9551                 0.2339                 3.5819

                     10                     11                     12
                      A                      A                      A
 Frequencies --    281.1829               289.1699               350.5691
 Red. masses --      6.6348                 5.7907                 6.0822
 Frc consts  --      0.3091                 0.2853                 0.4404
 IR Inten    --      2.6267                 2.1645                 2.1759

                     13                     14                     15
                      A                      A                      A
 Frequencies --    396.6871               414.7800               431.8299
 Red. masses --      4.9194                 5.1956                 5.2267
 Frc consts  --      0.4561                 0.5267                 0.5743
 IR Inten    --      1.1108                 2.6855                 2.7843

                     16                     17                     18
                      A                      A                      A
 Frequencies --    489.9148               502.3391               528.4073
 Red. masses --      3.6400                 6.4982                 1.5159
 Frc consts  --      0.5147                 0.9661                 0.2494
 IR Inten    --     20.7370                 5.0663                53.3321

                     19                     20                     21
                      A                      A                      A
 Frequencies --    573.8625               669.3905               683.2712
 Red. masses --      6.2114                 1.9018                 2.7456
 Frc consts  --      1.2052                 0.5021                 0.7552
 IR Inten    --      7.4631                28.7859                 6.6648

                     22                     23                     24
                      A                      A                      A
 Frequencies --    696.8020               720.8727               751.7629
 Red. masses --      4.3805                 4.0247                 3.1577
 Frc consts  --      1.2531                 1.2322                 1.0514
 IR Inten    --      6.1070                 2.2976                 9.3780

                     25                     26                     27
                      A                      A                      A
 Frequencies --    782.5541               806.7672               830.3068
 Red. masses --      4.9283                 1.0797                 1.6170
 Frc consts  --      1.7782                 0.4141                 0.6568
 IR Inten    --     16.6823                 1.1535                 9.1848

                     28                     29                     30
                      A                      A                      A
 Frequencies --    838.5880               883.8178               919.6097
 Red. masses --      4.9119                 1.3046                 2.9130
 Frc consts  --      2.0352                 0.6004                 1.4514
 IR Inten    --     19.2318                 1.4063                 0.2541

                     31                     32                     33
                      A                      A                      A
 Frequencies --    921.6213               959.8388               978.6485
 Red. masses --      3.7436                 7.8055                 5.4500
 Frc consts  --      1.8735                 4.2369                 3.0754
 IR Inten    --     23.0386                27.4093                 9.4182

                     34                     35                     36
                      A                      A                      A
 Frequencies --   1050.3885              1069.4966              1080.3978
 Red. masses --      3.0772                 3.0147                 1.7534
 Frc consts  --      2.0003                 2.0317                 1.2059
 IR Inten    --     38.7033                 5.5341                57.6144

                     37                     38                     39
                      A                      A                      A
 Frequencies --   1081.1765              1098.9630              1116.3130
 Red. masses --      2.5540                 1.3355                 1.2989
 Frc consts  --      1.7590                 0.9503                 0.9537
 IR Inten    --     64.4446                 3.6607                 3.0925

                     40                     41                     42
                      A                      A                      A
 Frequencies --   1126.1083              1138.6345              1180.6648
 Red. masses --      1.1104                 2.1370                 4.2382
 Frc consts  --      0.8297                 1.6324                 3.4808
 IR Inten    --      2.1970                18.7137                16.1991

                     43                     44                     45
                      A                      A                      A
 Frequencies --   1186.2025              1219.5074              1226.3704
 Red. masses --      1.2519                 1.3600                 1.4666
 Frc consts  --      1.0378                 1.1917                 1.2996
 IR Inten    --      1.2456                 0.4984                 1.5169

                     46                     47                     48
                      A                      A                      A
 Frequencies --   1229.2220              1251.4687              1268.7824
 Red. masses --      2.4344                 1.8854                 2.2365
 Frc consts  --      2.1672                 1.7398                 2.1212
 IR Inten    --      1.5327                22.3531                42.1219

                     49                     50                     51
                      A                      A                      A
 Frequencies --   1370.2971              1419.7121              1428.5921
 Red. masses --      3.6805                 2.4191                 2.8051
 Frc consts  --      4.0718                 2.8728                 3.3730
 IR Inten    --     27.8542                22.1707                35.1198

                     52                     53                     54
                      A                      A                      A
 Frequencies --   1439.6500              1484.7232              1488.7018
 Red. masses --      4.3762                 1.0898                 2.4667
 Frc consts  --      5.3439                 1.4154                 3.2210
 IR Inten    --     48.1230                 2.5917                38.4647

                     55                     56                     57
                      A                      A                      A
 Frequencies --   1502.2650              1512.9097              1530.9763
 Red. masses --      1.4196                 1.0653                 1.6478
 Frc consts  --      1.8876                 1.4366                 2.2756
 IR Inten    --      0.3156                 2.7337                20.3734

                     58                     59                     60
                      A                      A                      A
 Frequencies --   1538.6647              1543.9791              1604.0566
 Red. masses --      1.2364                 3.3806                 5.1294
 Frc consts  --      1.7247                 4.7482                 7.7759
 IR Inten    --      0.1822                90.6754               102.3334

                     61                     62                     63
                      A                      A                      A
 Frequencies --   1618.8468              3034.5802              3120.9094
 Red. masses --      7.8367                 1.0388                 1.0952
 Frc consts  --     12.1003                 5.6360                 6.2849
 IR Inten    --     81.5567                72.5291                27.1023

                     64                     65                     66
                      A                      A                      A
 Frequencies --   3155.3166              3157.9264              3159.8145
 Red. masses --      1.1065                 1.0507                 1.0584
 Frc consts  --      6.4909                 6.1733                 6.2261
 IR Inten    --     22.4636                14.5122                11.5945

                     67                     68                     69
                      A                      A                      A
 Frequencies --   3174.9466              3234.0210              3242.0287
 Red. masses --      1.0896                 1.0907                 1.1203
 Frc consts  --      6.4711                 6.7213                 6.9376
 IR Inten    --     13.9096                 4.7430                 0.6951

                     70                     71                     72
                      A                      A                      A
 Frequencies --   3254.8954              3270.1498              3657.2764
 Red. masses --      1.1170                 1.0978                 1.0814
 Frc consts  --      6.9723                 6.9169                 8.5226
 IR Inten    --     11.3538                 0.4213                76.0142

 - Thermochemistry -
 -------------------
 Temperature   298.150 Kelvin.  Pressure   1.00000 Atm.
 Atom     1 has atomic number  6 and mass  12.00000

 Molecular mass:   221.06228 amu.
 Principal axes and moments of inertia in atomic units:
                           1         2         3
     Eigenvalues --  1714.014365122.276256586.80947
           X            1.00000  -0.00287   0.00072
           Y            0.00288   0.99988  -0.01520
           Z           -0.00068   0.01521   0.99988
 This molecule is an asymmetric top.
 Rotational symmetry number  1.
 Warning -- assumption of classical behavior for rotation
           may cause significant error
 Rotational temperatures (Kelvin)      0.05053     0.01691     0.01315
 Rotational constants (GHZ):           1.05293     0.35233     0.27399
 Zero-point vibrational energy     532169.5 (Joules/Mol)
                                  127.19157 (Kcal/Mol)
 Warning -- explicit consideration of  19 degrees of freedom as
           vibrations may cause significant error
 Vibrational temperatures:     27.97    77.68   107.10   128.80   161.37
          (Kelvin)            197.66   227.43   245.11   266.03   404.56
                              416.05   504.39   570.74   596.78   621.31
                              704.88   722.75   760.26   825.66   963.10
                              983.07  1002.54  1037.18  1081.62  1125.92
                             1160.76  1194.63  1206.54  1271.62  1323.11
                             1326.01  1380.99  1408.06  1511.27  1538.77
                             1554.45  1555.57  1581.16  1606.13  1620.22
                             1638.24  1698.71  1706.68  1754.60  1764.47
                             1768.58  1800.58  1825.49  1971.55  2042.65
                             2055.43  2071.34  2136.19  2141.91  2161.42
                             2176.74  2202.73  2213.80  2221.44  2307.88
                             2329.16  4366.08  4490.29  4539.80  4543.55
                             4546.27  4568.04  4653.03  4664.56  4683.07
                             4705.02  5262.01

 Zero-point correction=                           0.202693 (Hartree/Particle)
 Thermal correction to Energy=                    0.216426
 Thermal correction to Enthalpy=                  0.217370
 Thermal correction to Gibbs Free Energy=         0.160304
 Sum of electronic and zero-point Energies=          -1025.137867
 Sum of electronic and thermal Energies=             -1025.124134
 Sum of electronic and thermal Enthalpies=           -1025.123190
 Sum of electronic and thermal Free Energies=        -1025.180256

                     E (Thermal)             CV                S
                      KCal/Mol        Cal/Mol-Kelvin    Cal/Mol-Kelvin
 Total                  135.809             50.954            120.106
 Electronic               0.000              0.000              0.000
 Translational            0.889              2.981             42.083
 Rotational               0.889              2.981             32.425
 Vibrational            134.032             44.992             45.598
 Vibration     1          0.593              1.986              6.691
 Vibration     2          0.596              1.976              4.666
 Vibration     3          0.599              1.966              4.032
 Vibration     4          0.602              1.957              3.671
 Vibration     5          0.607              1.939              3.231
 Vibration     6          0.614              1.916              2.840
 Vibration     7          0.621              1.894              2.573
 Vibration     8          0.625              1.879              2.431
 Vibration     9          0.631              1.860              2.278
 Vibration    10          0.681              1.708              1.526
 Vibration    11          0.686              1.694              1.479
 Vibration    12          0.727              1.574              1.164
 Vibration    13          0.763              1.477              0.975
 Vibration    14          0.778              1.438              0.910
 Vibration    15          0.793              1.401              0.853
 Vibration    16          0.846              1.272              0.684
 Vibration    17          0.858              1.245              0.652
 Vibration    18          0.883              1.187              0.591
 Vibration    19          0.930              1.088              0.497

 Optimization completed.
    -- Stationary point found.
 Normal termination of Gaussian 16 at Thu Dec 10 14:53:07 2020.

 ----------------------------------------------------------------------
 # B3LYP/6-311++G(d,p) empiricaldispersion=gd3bj scf=xqc pop=npa geom=c
 heck
 ----------------------------------------------------------------------

 --------------------------------------
 CID_81123061_JID_5131_Energie_neutraal
 --------------------------------------
 Structure from the checkpoint file:  "JID_5131.chk"
 Charge =  0 Multiplicity = 1

 SCF Done:  E(RB3LYP) =  -1025.53498632     A.U. after   15 cycles
 Normal termination of Gaussian 16 at Thu Dec 10 14:55:47 2020.

 ----------------------------------------------------------------------
 # B3LYP/6-311++G(d,p) empiricaldispersion=gd3bj scf=xqc pop=npa geom=c
 heck
 ----------------------------------------------------------------------

 ------------------------------------
 CID_81123061_JID_5131_Energie_kation
 ------------------------------------
 Structure from the checkpoint file:  "JID_5131.chk"
 Charge =  1 Multiplicity = 2

 SCF Done:  E(UB3LYP) =  -1025.25600160     A.U. after   22 cycles
 Normal termination of Gaussian 16 at Thu Dec 10 15:01:08 2020.
 Gaussian 16:  ES64L-G16RevA.03 25-Dec-2016

 ----------------------------------------------------------------------
 # B3LYP/6-311++G(d,p) empiricaldispersion=gd3bj scf=xqc pop=npa geom=c
 heck
 ----------------------------------------------------------------------

 -----------------------------------
 CID_81123061_JID_5131_Energie_anion
 -----------------------------------
 Structure from the checkpoint file:  "JID_5131.chk"
 Charge = -1 Multiplicity = 2

                         Standard orientation:
 ---------------------------------------------------------------------
 Center     Atomic      Atomic             Coordinates (Angstroms)
 Number     Number       Type             X           Y           Z
 ---------------------------------------------------------------------
      1          6           0       -0.501275    2.693951   -0.649067
      2          8           0       -1.106394    2.101388    0.503695
      3          6           0       -1.852456    0.984768    0.255658
      4          6           0       -1.357536   -0.289541    0.041630
      5         16           0       -2.668569   -1.431472   -0.158460
      6          6           0       -3.853924   -0.181737    0.046897
      7          6           0       -3.281402    1.039676    0.254807
      8          6           0        0.013912   -0.758777    0.015389
      9          7           0        0.307230   -2.058783   -0.041088
     10          7           0        1.667896   -2.040269   -0.046139
     11          6           0        2.136886   -0.771285    0.007725
     12          7           0        1.110656    0.066803    0.044881
     13          6           0        3.560184   -0.407460    0.024554
     14          6           0        3.990620    0.871996   -0.671542
     15          6           0        3.981836    0.812968    0.824208
     16          1           0       -0.028372    3.614738   -0.299945
     17          1           0       -1.260251    2.936049   -1.404752
     18          1           0        0.257473    2.029245   -1.070766
     19          1           0       -4.906198   -0.426714   -0.000528
     20          1           0       -3.826077    1.962538    0.415413
     21          1           0        2.178030   -2.910714   -0.078640
     22          1           0        4.249648   -1.246862   -0.006304
     23          1           0        4.943962    0.858877   -1.191441
     24          1           0        3.203301    1.437874   -1.158844
     25          1           0        3.185832    1.335867    1.344447
     26          1           0        4.929375    0.759942    1.352026
 ---------------------------------------------------------------------

 SCF Done:  E(UB3LYP) =  -1025.52845073     A.U. after   32 cycles

 The electronic state is 2-A.
 Alpha  occ. eigenvalues --  -88.75800 -19.03076 -14.27695 -14.21416 -14.18728
 Alpha  occ. eigenvalues --  -10.13624 -10.11325 -10.11198 -10.10913 -10.09223
 Alpha  occ. eigenvalues --  -10.08293 -10.08201 -10.07916 -10.07874 -10.06381
 Alpha  occ. eigenvalues --   -7.84401  -5.80705  -5.80337  -5.79985  -0.96067
 Alpha  occ. eigenvalues --   -0.94599  -0.78956  -0.77352  -0.75974  -0.71737
 Alpha  occ. eigenvalues --   -0.63160  -0.62599  -0.57530  -0.55824  -0.51958
 Alpha  occ. eigenvalues --   -0.50679  -0.49070  -0.45846  -0.44646  -0.42756
 Alpha  occ. eigenvalues --   -0.39089  -0.38372  -0.37182  -0.35846  -0.35115
 Alpha  occ. eigenvalues --   -0.34831  -0.33291  -0.30620  -0.29083  -0.27499
 Alpha  occ. eigenvalues --   -0.27344  -0.27174  -0.24820  -0.23656  -0.22739
 Alpha  occ. eigenvalues --   -0.22486  -0.20527  -0.19723  -0.17005  -0.16814
 Alpha  occ. eigenvalues --   -0.15575  -0.13486  -0.10499   0.04341
 Alpha virt. eigenvalues --    0.05882   0.07419   0.07704   0.08354   0.08941
 Alpha virt. eigenvalues --    0.09744   0.10416   0.11156   0.11827   0.12309
 Alpha virt. eigenvalues --    0.12435   0.13132   0.13437   0.13973   0.14295

  Beta  occ. eigenvalues --  -88.75776 -19.03079 -14.27614 -14.21259 -14.18705
  Beta  occ. eigenvalues --  -10.13644 -10.11298 -10.11122 -10.10888 -10.09192
  Beta  occ. eigenvalues --  -10.08188 -10.08013 -10.07902 -10.07865 -10.06404
  Beta  occ. eigenvalues --   -7.84379  -5.80696  -5.80328  -5.79900  -0.95934
  Beta  occ. eigenvalues --   -0.94564  -0.78862  -0.77226  -0.75867  -0.71570
  Beta  occ. eigenvalues --   -0.63022  -0.62369  -0.57438  -0.55755  -0.51751
  Beta  occ. eigenvalues --   -0.50639  -0.48984  -0.45694  -0.44538  -0.42686
  Beta  occ. eigenvalues --   -0.38995  -0.38295  -0.37124  -0.35646  -0.34990
  Beta  occ. eigenvalues --   -0.34719  -0.33212  -0.30531  -0.29004  -0.27370
  Beta  occ. eigenvalues --   -0.27273  -0.26914  -0.24649  -0.23520  -0.22574
  Beta  occ. eigenvalues --   -0.22364  -0.20453  -0.19311  -0.16948  -0.16721
  Beta  occ. eigenvalues --   -0.15188  -0.13088  -0.09723
  Beta virt. eigenvalues --    0.07112   0.07556   0.07732   0.08316   0.08925
  Beta virt. eigenvalues --    0.09237   0.09821   0.10567   0.11573   0.12061
  Beta virt. eigenvalues --    0.12403   0.12521   0.13168   0.13579   0.14192

 Mulliken charges and spin densities:
               1          2
     1  C   -0.128404  -0.181060
     2  O   -0.136474   0.006542
     3  C   -0.591426   0.065424
     4  C    0.335392   0.073122
     5  S   -0.451178   0.052912
     6  C   -0.137502   0.057957
     7  C   -0.132505   0.056641
     8  C   -0.568457   0.491107
     9  N   -0.071477   0.082672
    10  N   -0.095342  -0.074069
    11  C    1.306262  -0.865881
    12  N   -0.119587  -0.035996
    13  C   -0.164971   0.241042
    14  C    0.575929  -1.063096
    15  C    0.634426  -1.127441
    16  H    0.055465   0.067818
    17  H    0.074837   0.036127
    18  H    0.117924   0.055530
    19  H    0.198835  -0.013223
    20  H    0.115712   0.021530
    21  H   -0.041631   0.384330
    22  H   -1.601356   1.887677
    23  H   -0.237585   0.394012
    24  H    0.068849   0.060132
    25  H    0.130446   0.040349
    26  H   -0.136182   0.285843
 Sum of Mulliken charges =  -1.00000   1.00000

 Dipole moment (field-independent basis, Debye):
    X=             -7.5740    Y=              4.3350    Z=             -0.5877  Tot=              8.7466
 Quadrupole moment (field-independent basis, Debye-Ang):
   XX=           -176.8467   YY=           -129.1026   ZZ=           -113.6037
   XY=             14.0930   XZ=              2.0468   YZ=             -1.8550

 Summary of Natural Population Analysis:

                                       Natural Population
                Natural  -----------------------------------------------
    Atom  No    Charge         Core      Valence    Rydberg      Total
 -----------------------------------------------------------------------
      C    1   -0.09535      0.99959     2.08753    0.00823     3.09535
      O    2   -0.28634      0.99985     3.27668    0.00981     4.28634
      C    3    0.15202      0.99929     1.83509    0.01361     2.84798
      C    4   -0.12071      0.99939     2.11009    0.01123     3.12071
      S    5    0.22049      4.99947     2.75851    0.02153     7.77951
      C    6   -0.16303      0.99956     2.15290    0.01057     3.16303
      C    7   -0.15279      0.99949     2.14336    0.00994     3.15279
      C    8    0.15480      0.99958     1.82586    0.01977     2.84520
      N    9   -0.14602      0.99971     2.63481    0.01151     3.64602
      N   10   -0.16914      0.99965     2.65681    0.01268     3.66914
      C   11    0.19176      0.99960     1.79150    0.01713     2.80824
      N   12   -0.27310      0.99968     2.76519    0.00823     3.77310
      C   13   -0.13991      0.99957     2.12675    0.01359     3.13991
      C   14   -0.18845      0.99962     2.17918    0.00966     3.18845
      C   15   -0.18847      0.99963     2.18073    0.00811     3.18847
      H   16    0.08345      0.00000     0.41520    0.00134     0.41655
      H   17    0.07481      0.00000     0.42344    0.00175     0.42519
      H   18    0.09582      0.00000     0.40243    0.00175     0.40418
      H   19    0.10048      0.00000     0.39858    0.00094     0.39952
      H   20    0.10284      0.00000     0.39607    0.00109     0.39716
      H   21    0.20434      0.00000     0.29212    0.00355     0.29566
      H   22    0.11730      0.00000     0.37326    0.00944     0.38270
      H   23    0.10461      0.00000     0.39405    0.00133     0.39539
      H   24    0.10748      0.00000     0.39130    0.00122     0.39252
      H   25    0.10975      0.00000     0.38909    0.00116     0.39025
      H   26    0.10334      0.00000     0.39562    0.00103     0.39666
 =======================================================================
   * Total *    0.00000     18.99366    38.79614    0.21020    58.00000

 Normal termination of Gaussian 16 at Thu Dec 10 15:08:42 2020.
