 Gaussian 16, Revision A.03,

 -----------------------------------------------------------
 # opt freq B3LYP/6-31G(d) empiricaldispersion=gd3bj scf=xqc
 -----------------------------------------------------------

 ------------------------------
 CID_69334086_JID_2779_neutraal
 ------------------------------
 Symbolic Z-matrix:
 Charge =  0 Multiplicity = 1

 SCF Done:  E(RB3LYP) =  -647.663143272     A.U. after   15 cycles
 SCF Done:  E(RB3LYP) =  -647.666008368     A.U. after   11 cycles
 SCF Done:  E(RB3LYP) =  -647.666295327     A.U. after   10 cycles
 SCF Done:  E(RB3LYP) =  -647.666322948     A.U. after    9 cycles
 SCF Done:  E(RB3LYP) =  -647.666320346     A.U. after   10 cycles
 SCF Done:  E(RB3LYP) =  -647.666326033     A.U. after    9 cycles
 Optimization completed.
    -- Stationary point found.
 Normal termination of Gaussian 16 at Wed Dec  9 17:57:55 2020.

 --------------------------------------------------------------------
 #N Geom=AllCheck Guess=TCheck SCRF=Check GenChk RB3LYP/6-31G(d) Freq
 --------------------------------------------------------------------

 Structure from the checkpoint file:  "JID_2779.chk"
 ------------------------------
 CID_69334086_JID_2779_neutraal
 ------------------------------
 Charge =  0 Multiplicity = 1

 SCF Done:  E(RB3LYP) =  -647.666326033     A.U. after    1 cycles

  Exact polarizability: 124.393   7.574 103.469   0.002   0.002  46.770
 Approx polarizability: 167.064  13.017 169.887  -0.004   0.014  68.537

                      1                      2                      3
                      A                      A                      A
 Frequencies --     65.9394                74.4322                94.6270
 Red. masses --      5.5304                 3.7608                 4.2780
 Frc consts  --      0.0142                 0.0123                 0.0226
 IR Inten    --      0.0020                 6.0529                 0.5331

                      4                      5                      6
                      A                      A                      A
 Frequencies --    138.3839               158.6043               162.3407
 Red. masses --      6.8363                 5.0753                 3.2412
 Frc consts  --      0.0771                 0.0752                 0.0503
 IR Inten    --      1.2347                 0.0178                 0.1982

                      7                      8                      9
                      A                      A                      A
 Frequencies --    172.0106               209.1414               258.9009
 Red. masses --      1.4386                 1.0769                 2.4337
 Frc consts  --      0.0251                 0.0278                 0.0961
 IR Inten    --      0.8567                 0.0012                 2.2829

                     10                     11                     12
                      A                      A                      A
 Frequencies --    285.1776               357.4282               387.8808
 Red. masses --      3.6644                 6.4606                 6.4315
 Frc consts  --      0.1756                 0.4863                 0.5701
 IR Inten    --      6.9890                 4.4216                 5.5456

                     13                     14                     15
                      A                      A                      A
 Frequencies --    402.1884               508.9016               556.8370
 Red. masses --      9.4958                 6.7101                 1.2382
 Frc consts  --      0.9050                 1.0239                 0.2262
 IR Inten    --      0.0030                 0.9860                77.8219

                     16                     17                     18
                      A                      A                      A
 Frequencies --    590.8028               661.1946               668.7477
 Red. masses --      6.1757                 5.9222                 5.9188
 Frc consts  --      1.2700                 1.5254                 1.5596
 IR Inten    --      3.9172                27.7921                31.1503

                     19                     20                     21
                      A                      A                      A
 Frequencies --    682.0836               687.4704               732.2686
 Red. masses --      4.5214                 1.8730                 2.7490
 Frc consts  --      1.2394                 0.5216                 0.8685
 IR Inten    --     57.7691                 0.8069                13.9448

                     22                     23                     24
                      A                      A                      A
 Frequencies --    753.8159               798.5331              1010.1082
 Red. masses --      6.1999                 4.3683                 6.0269
 Frc consts  --      2.0757                 1.6412                 3.6231
 IR Inten    --     60.5473                 4.7733                42.5818

                     25                     26                     27
                      A                      A                      A
 Frequencies --   1047.9675              1096.8737              1132.9897
 Red. masses --      8.2052                 5.5202                 3.8403
 Frc consts  --      5.3093                 3.9131                 2.9045
 IR Inten    --     20.9651               326.6203               143.2017

                     28                     29                     30
                      A                      A                      A
 Frequencies --   1173.7287              1185.6612              1190.5872
 Red. masses --      3.7915                 1.2624                 1.2636
 Frc consts  --      3.0775                 1.0456                 1.0553
 IR Inten    --     65.3956                 0.6047                 0.8104

                     31                     32                     33
                      A                      A                      A
 Frequencies --   1198.8379              1223.5060              1251.9980
 Red. masses --      1.6940                 1.3945                 2.0651
 Frc consts  --      1.4344                 1.2299                 1.9072
 IR Inten    --     73.2106                11.7376                45.8623

                     34                     35                     36
                      A                      A                      A
 Frequencies --   1263.5507              1369.8839              1424.3436
 Red. masses --      2.2084                 5.1186                 4.7851
 Frc consts  --      2.0773                 5.6594                 5.7197
 IR Inten    --    137.2452                88.1020                 2.2851

                     37                     38                     39
                      A                      A                      A
 Frequencies --   1479.1177              1485.2906              1517.4233
 Red. masses --      1.5259                 1.2994                 1.0466
 Frc consts  --      1.9669                 1.6889                 1.4198
 IR Inten    --    100.8574               141.9196                 6.9682

                     40                     41                     42
                      A                      A                      A
 Frequencies --   1520.9486              1528.4208              1531.6714
 Red. masses --      1.0481                 1.3056                 1.0533
 Frc consts  --      1.4285                 1.7970                 1.4559
 IR Inten    --      8.0455               150.4626                28.4087

                     43                     44                     45
                      A                      A                      A
 Frequencies --   1540.6257              1622.1345              1661.6081
 Red. masses --      1.9113                 6.1634                 7.3671
 Frc consts  --      2.6729                 9.5553                11.9840
 IR Inten    --    124.1614               394.5492               240.0371

                     46                     47                     48
                      A                      A                      A
 Frequencies --   1815.2201              3034.7442              3045.2399
 Red. masses --      9.2961                 1.0344                 1.0337
 Frc consts  --     18.0473                 5.6129                 5.6480
 IR Inten    --    569.1552                50.5273                49.3728

                     49                     50                     51
                      A                      A                      A
 Frequencies --   3097.2689              3110.4986              3172.4506
 Red. masses --      1.1073                 1.1077                 1.1003
 Frc consts  --      6.2584                 6.3142                 6.5247
 IR Inten    --     38.3000                32.5420                18.9135

                     52                     53                     54
                      A                      A                      A
 Frequencies --   3184.8770              3304.1965              3702.0517
 Red. masses --      1.1016                 1.0961                 1.0640
 Frc consts  --      6.5835                 7.0508                 8.5916
 IR Inten    --     13.6164                 1.1644                76.1927

 - Thermochemistry -
 -------------------
 Temperature   298.150 Kelvin.  Pressure   1.00000 Atm.
 Atom     1 has atomic number  6 and mass  12.00000

 Molecular mass:   172.03717 amu.
 Principal axes and moments of inertia in atomic units:
                           1         2         3
     Eigenvalues --  1432.007982512.913283921.80273
           X            1.00000   0.00023   0.00001
           Y           -0.00023   1.00000  -0.00002
           Z           -0.00001   0.00002   1.00000
 This molecule is an asymmetric top.
 Rotational symmetry number  1.
 Warning -- assumption of classical behavior for rotation
           may cause significant error
 Rotational temperatures (Kelvin)      0.06048     0.03447     0.02209
 Rotational constants (GHZ):           1.26029     0.71819     0.46018
 Zero-point vibrational energy     396750.7 (Joules/Mol)
                                   94.82569 (Kcal/Mol)
 Warning -- explicit consideration of  16 degrees of freedom as
           vibrations may cause significant error
 Vibrational temperatures:     94.87   107.09   136.15   199.10   228.20
          (Kelvin)            233.57   247.48   300.91   372.50   410.31
                              514.26   558.07   578.66   732.20   801.16
                              850.03   951.31   962.18   981.37   989.12
                             1053.57  1084.57  1148.91  1453.32  1507.79
                             1578.16  1630.12  1688.73  1705.90  1712.99
                             1724.86  1760.35  1801.35  1817.97  1970.96
                             2049.31  2128.12  2137.00  2183.23  2188.31
                             2199.06  2203.73  2216.62  2333.89  2390.68
                             2611.70  4366.32  4381.42  4456.28  4475.31
                             4564.45  4582.33  4754.00  5326.43

 Zero-point correction=                           0.151114 (Hartree/Particle)
 Thermal correction to Energy=                    0.162853
 Thermal correction to Enthalpy=                  0.163797
 Thermal correction to Gibbs Free Energy=         0.112829
 Sum of electronic and zero-point Energies=           -647.515212
 Sum of electronic and thermal Energies=              -647.503473
 Sum of electronic and thermal Enthalpies=            -647.502529
 Sum of electronic and thermal Free Energies=         -647.553498

                     E (Thermal)             CV                S
                      KCal/Mol        Cal/Mol-Kelvin    Cal/Mol-Kelvin
 Total                  102.192             41.735            107.273
 Electronic               0.000              0.000              0.000
 Translational            0.889              2.981             41.335
 Rotational               0.889              2.981             31.024
 Vibrational            100.414             35.774             34.914
 Vibration     1          0.597              1.971              4.271
 Vibration     2          0.599              1.966              4.033
 Vibration     3          0.603              1.953              3.562
 Vibration     4          0.614              1.915              2.826
 Vibration     5          0.621              1.893              2.566
 Vibration     6          0.622              1.889              2.522
 Vibration     7          0.626              1.877              2.413
 Vibration     8          0.642              1.827              2.051
 Vibration     9          0.668              1.748              1.669
 Vibration    10          0.683              1.701              1.502
 Vibration    11          0.733              1.560              1.133
 Vibration    12          0.756              1.496              1.008
 Vibration    13          0.768              1.465              0.955
 Vibration    14          0.864              1.230              0.636
 Vibration    15          0.912              1.125              0.530
 Vibration    16          0.948              1.051              0.466

 Optimization completed.
    -- Stationary point found.
 Normal termination of Gaussian 16 at Wed Dec  9 18:01:56 2020.

 ----------------------------------------------------------------------
 # B3LYP/6-311++G(d,p) empiricaldispersion=gd3bj scf=xqc pop=npa geom=c
 heck
 ----------------------------------------------------------------------

 --------------------------------------
 CID_69334086_JID_2779_Energie_neutraal
 --------------------------------------
 Structure from the checkpoint file:  "JID_2779.chk"
 Charge =  0 Multiplicity = 1

 SCF Done:  E(RB3LYP) =  -647.863882391     A.U. after   15 cycles
 Normal termination of Gaussian 16 at Wed Dec  9 18:04:35 2020.

 ----------------------------------------------------------------------
 # B3LYP/6-311++G(d,p) empiricaldispersion=gd3bj scf=xqc pop=npa geom=c
 heck
 ----------------------------------------------------------------------

 ------------------------------------
 CID_69334086_JID_2779_Energie_kation
 ------------------------------------
 Structure from the checkpoint file:  "JID_2779.chk"
 Charge =  1 Multiplicity = 2

 SCF Done:  E(UB3LYP) =  -647.569314356     A.U. after   21 cycles
 Normal termination of Gaussian 16 at Wed Dec  9 18:09:12 2020.
 Gaussian 16:  ES64L-G16RevA.03 25-Dec-2016

 ----------------------------------------------------------------------
 # B3LYP/6-311++G(d,p) empiricaldispersion=gd3bj scf=xqc pop=npa geom=c
 heck
 ----------------------------------------------------------------------

 -----------------------------------
 CID_69334086_JID_2779_Energie_anion
 -----------------------------------
 Structure from the checkpoint file:  "JID_2779.chk"
 Charge = -1 Multiplicity = 2

                         Standard orientation:
 ---------------------------------------------------------------------
 Center     Atomic      Atomic             Coordinates (Angstroms)
 Number     Number       Type             X           Y           Z
 ---------------------------------------------------------------------
      1          6           0        3.795070   -0.315383    0.000095
      2          8           0        2.636605   -1.149797   -0.000442
      3          6           0        1.473313   -0.501686   -0.000125
      4          6           0        1.133262    0.831687    0.000075
      5          6           0       -0.298940    0.835953    0.000354
      6          6           0       -0.722917   -0.479880    0.000575
      7          8           0        0.405986   -1.299584    0.000068
      8          6           0       -2.001776   -1.151406    0.000730
      9          8           0       -2.170361   -2.356953   -0.000430
     10          8           0       -3.037164   -0.264360   -0.000331
     11          8           0       -1.126139    1.893782    0.000620
     12          6           0       -0.511639    3.177113   -0.000534
     13          1           0        4.649630   -0.991360    0.000593
     14          1           0        3.816839    0.315711    0.896257
     15          1           0        3.817761    0.315564   -0.896154
     16          1           0        1.801269    1.677057   -0.000030
     17          1           0       -3.836738   -0.821684   -0.001094
     18          1           0        0.105396    3.321747    0.895070
     19          1           0        0.104728    3.320472   -0.896795
     20          1           0       -1.328537    3.899401   -0.000738
 ---------------------------------------------------------------------

 SCF Done:  E(UB3LYP) =  -647.857650012     A.U. after   32 cycles

 The electronic state is 2-A.
 Alpha  occ. eigenvalues --  -19.09649 -19.08270 -19.07003 -19.06959 -19.00519
 Alpha  occ. eigenvalues --  -10.20408 -10.20327 -10.15602 -10.13021 -10.12656
 Alpha  occ. eigenvalues --  -10.12482 -10.07971  -1.04879  -1.00729  -0.98920
 Alpha  occ. eigenvalues --   -0.98223  -0.91439  -0.72098  -0.68408  -0.63475
 Alpha  occ. eigenvalues --   -0.61400  -0.54558  -0.51078  -0.48077  -0.46423
 Alpha  occ. eigenvalues --   -0.41164  -0.40750  -0.40585  -0.38763  -0.37928
 Alpha  occ. eigenvalues --   -0.36852  -0.35934  -0.34735  -0.33425  -0.33411
 Alpha  occ. eigenvalues --   -0.31293  -0.29425  -0.27028  -0.26362  -0.24759
 Alpha  occ. eigenvalues --   -0.24414  -0.22396  -0.18513  -0.16625  -0.11941
 Alpha  occ. eigenvalues --    0.04107
 Alpha virt. eigenvalues --    0.06058   0.06719   0.07577   0.09011   0.09083
 Alpha virt. eigenvalues --    0.10914   0.11241   0.11827   0.12837   0.14026
 Alpha virt. eigenvalues --    0.14081   0.14346   0.15073   0.16266   0.17054

  Beta  occ. eigenvalues --  -19.09639 -19.08257 -19.06991 -19.06953 -19.00500
  Beta  occ. eigenvalues --  -10.20386 -10.20307 -10.15577 -10.12947 -10.12597
  Beta  occ. eigenvalues --  -10.12486 -10.07946  -1.04855  -1.00705  -0.98890
  Beta  occ. eigenvalues --   -0.98198  -0.91411  -0.72059  -0.68364  -0.63393
  Beta  occ. eigenvalues --   -0.61321  -0.54494  -0.51024  -0.48029  -0.46358
  Beta  occ. eigenvalues --   -0.41101  -0.40683  -0.40550  -0.38728  -0.37866
  Beta  occ. eigenvalues --   -0.36800  -0.35861  -0.34675  -0.33365  -0.33345
  Beta  occ. eigenvalues --   -0.31269  -0.29390  -0.26972  -0.26279  -0.24717
  Beta  occ. eigenvalues --   -0.24350  -0.22321  -0.18496  -0.16569  -0.11867
  Beta virt. eigenvalues --    0.06330   0.06989   0.07513   0.08034   0.10116
  Beta virt. eigenvalues --    0.10440   0.11145   0.11892   0.12837   0.13026
  Beta virt. eigenvalues --    0.14059   0.14240   0.15097   0.15125   0.16222

 Mulliken charges and spin densities:
               1          2
     1  C    1.501891  -1.765157
     2  O   -0.257634   0.082057
     3  C    0.008039  -0.241529
     4  C    0.330416   0.292294
     5  C    0.134197  -0.156927
     6  C   -0.292691  -0.444024
     7  O   -0.155256   0.024451
     8  C    0.404158  -0.032058
     9  O   -0.349810   0.004111
    10  O   -0.222211   0.000976
    11  O   -0.242192   0.086172
    12  C    1.006200  -1.270323
    13  H   -0.496775   0.669384
    14  H   -0.604602   0.776944
    15  H   -0.487770   0.653664
    16  H   -0.391594   0.637487
    17  H    0.288048   0.011885
    18  H   -0.409472   0.571120
    19  H   -0.514839   0.682231
    20  H   -0.248103   0.417244
 Sum of Mulliken charges =  -1.00000   1.00000

 Dipole moment (field-independent basis, Debye):
    X=             -7.1455    Y=             -3.5165    Z=             -0.0299  Tot=              7.9640
 Quadrupole moment (field-independent basis, Debye-Ang):
   XX=           -128.1036   YY=           -127.4586   ZZ=            -93.7697
   XY=            -10.3007   XZ=             -0.8892   YZ=              0.6102

 Summary of Natural Population Analysis:

                                       Natural Population
                Natural  -----------------------------------------------
    Atom  No    Charge         Core      Valence    Rydberg      Total
 -----------------------------------------------------------------------
      C    1   -0.10059      0.99960     2.09210    0.00890     3.10059
      O    2   -0.25860      0.99985     3.24975    0.00901     4.25860
      C    3    0.34564      0.99943     1.63550    0.01943     2.65436
      C    4   -0.23059      0.99948     2.22278    0.00833     3.23059
      C    5    0.17369      0.99937     1.81322    0.01372     2.82631
      C    6    0.02992      0.99938     1.95589    0.01482     2.97008
      O    7   -0.22262      0.99984     3.21572    0.00706     4.22262
      C    8    0.36751      0.99965     1.60807    0.02477     2.63249
      O    9   -0.31759      0.99987     3.31170    0.00601     4.31759
      O   10   -0.34391      0.99988     3.33736    0.00667     4.34391
      O   11   -0.25507      0.99985     3.24626    0.00897     4.25507
      C   12   -0.10113      0.99960     2.09239    0.00914     3.10113
      H   13    0.09607      0.00000     0.40240    0.00153     0.40393
      H   14    0.09369      0.00000     0.40236    0.00395     0.40631
      H   15    0.09136      0.00000     0.40587    0.00277     0.40864
      H   16    0.12508      0.00000     0.37137    0.00354     0.37492
      H   17    0.23372      0.00000     0.26268    0.00359     0.26628
      H   18    0.08885      0.00000     0.40919    0.00196     0.41115
      H   19    0.09088      0.00000     0.40644    0.00267     0.40912
      H   20    0.09368      0.00000     0.40516    0.00116     0.40632
 =======================================================================
   * Total *    0.00000     11.99579    32.84621    0.15799    45.00000

 Normal termination of Gaussian 16 at Wed Dec  9 18:17:07 2020.
