 Gaussian 16, Revision A.03,

 -----------------------------------------------------------
 # opt freq B3LYP/6-31G(d) empiricaldispersion=gd3bj scf=xqc
 -----------------------------------------------------------

 -------------------------------
 CID_100643405_JID_7080_neutraal
 -------------------------------
 Symbolic Z-matrix:
 Charge =  0 Multiplicity = 1

 SCF Done:  E(RB3LYP) =  -802.124928991     A.U. after   15 cycles
 SCF Done:  E(RB3LYP) =  -802.130273697     A.U. after   13 cycles
 SCF Done:  E(RB3LYP) =  -802.129460164     A.U. after   13 cycles
 SCF Done:  E(RB3LYP) =  -802.133020588     A.U. after   12 cycles
 SCF Done:  E(RB3LYP) =  -802.134984368     A.U. after   13 cycles
 SCF Done:  E(RB3LYP) =  -802.136996004     A.U. after   13 cycles
 SCF Done:  E(RB3LYP) =  -802.138889708     A.U. after   13 cycles
 SCF Done:  E(RB3LYP) =  -802.139171103     A.U. after   13 cycles
 SCF Done:  E(RB3LYP) =  -802.139699931     A.U. after   12 cycles
 SCF Done:  E(RB3LYP) =  -802.139880439     A.U. after   12 cycles
 SCF Done:  E(RB3LYP) =  -802.140373203     A.U. after    9 cycles
 SCF Done:  E(RB3LYP) =  -802.140377675     A.U. after   10 cycles
 SCF Done:  E(RB3LYP) =  -802.140378688     A.U. after    8 cycles
 SCF Done:  E(RB3LYP) =  -802.140378789     A.U. after    7 cycles
 SCF Done:  E(RB3LYP) =  -802.140378817     A.U. after    7 cycles
 Optimization completed.
    -- Stationary point found.
 Normal termination of Gaussian 16 at Sun Dec 13 16:14:53 2020.

 --------------------------------------------------------------------
 #N Geom=AllCheck Guess=TCheck SCRF=Check GenChk RB3LYP/6-31G(d) Freq
 --------------------------------------------------------------------

 Structure from the checkpoint file:  "JID_7080.chk"
 -------------------------------
 CID_100643405_JID_7080_neutraal
 -------------------------------
 Charge =  0 Multiplicity = 1

 SCF Done:  E(RB3LYP) =  -802.140378817     A.U. after    1 cycles

  Exact polarizability: 173.937 -10.474 137.954   7.278   8.463 106.183
 Approx polarizability: 226.793  -7.629 231.428  20.039  18.002 169.033

                      1                      2                      3
                      A                      A                      A
 Frequencies --     47.8705                52.1465                57.3600
 Red. masses --      4.2197                 6.2750                 4.9823
 Frc consts  --      0.0057                 0.0101                 0.0097
 IR Inten    --      0.3328                 2.6373                 3.2800

                      4                      5                      6
                      A                      A                      A
 Frequencies --     78.5890               111.1432               118.9185
 Red. masses --      3.8949                 1.1824                 4.1228
 Frc consts  --      0.0142                 0.0086                 0.0344
 IR Inten    --      2.9506                 0.4653                 0.2899

                      7                      8                      9
                      A                      A                      A
 Frequencies --    143.7576               177.1154               219.1206
 Red. masses --      3.2193                 4.1366                 1.2445
 Frc consts  --      0.0392                 0.0765                 0.0352
 IR Inten    --      0.9886                 1.3521                 0.1471

                     10                     11                     12
                      A                      A                      A
 Frequencies --    232.9236               252.5046               273.4796
 Red. masses --      2.6504                 4.6582                 2.3067
 Frc consts  --      0.0847                 0.1750                 0.1016
 IR Inten    --      3.7298                 6.5682                 2.6683

                     13                     14                     15
                      A                      A                      A
 Frequencies --    292.7050               321.3570               334.3509
 Red. masses --      1.6484                 2.3017                 3.3127
 Frc consts  --      0.0832                 0.1400                 0.2182
 IR Inten    --      0.6316                 1.4394                 0.7413

                     16                     17                     18
                      A                      A                      A
 Frequencies --    352.9013               379.3246               404.2518
 Red. masses --      2.2618                 2.3167                 4.4674
 Frc consts  --      0.1660                 0.1964                 0.4301
 IR Inten    --      3.1106                 1.7278                14.6769

                     19                     20                     21
                      A                      A                      A
 Frequencies --    417.4239               456.1658               473.2528
 Red. masses --      4.8153                 3.2282                 5.1285
 Frc consts  --      0.4943                 0.3958                 0.6767
 IR Inten    --      7.2149                 9.9598                 3.7595

                     22                     23                     24
                      A                      A                      A
 Frequencies --    518.9370               520.7615               608.5850
 Red. masses --      3.5534                 5.3507                 3.2638
 Frc consts  --      0.5638                 0.8549                 0.7122
 IR Inten    --      4.4761                 9.5357                 6.0681

                     25                     26                     27
                      A                      A                      A
 Frequencies --    621.6322               637.9293               677.4066
 Red. masses --      4.0350                 3.4047                 3.0844
 Frc consts  --      0.9187                 0.8163                 0.8339
 IR Inten    --     12.4499                 0.4817                 2.4237

                     28                     29                     30
                      A                      A                      A
 Frequencies --    731.2203               737.6995               753.6579
 Red. masses --      1.9333                 1.8665                 6.8573
 Frc consts  --      0.6090                 0.5985                 2.2948
 IR Inten    --      0.3045                19.6618                 5.3598

                     31                     32                     33
                      A                      A                      A
 Frequencies --    762.9197               823.5514               855.3415
 Red. masses --      2.9197                 1.8083                 1.4202
 Frc consts  --      1.0013                 0.7226                 0.6122
 IR Inten    --     37.9236                17.4087                16.1508

                     34                     35                     36
                      A                      A                      A
 Frequencies --    864.9165               895.9831               908.2586
 Red. masses --      2.9253                 5.1782                 2.8934
 Frc consts  --      1.2893                 2.4492                 1.4063
 IR Inten    --     24.0424                29.3942                 6.3206

                     37                     38                     39
                      A                      A                      A
 Frequencies --    919.3189               960.1767               987.1473
 Red. masses --      2.4531                 1.5117                 2.7364
 Frc consts  --      1.2215                 0.8211                 1.5710
 IR Inten    --      9.2140                 1.8366                 3.5797

                     40                     41                     42
                      A                      A                      A
 Frequencies --   1007.2003              1043.6703              1045.2394
 Red. masses --      2.2546                 1.9547                 1.3254
 Frc consts  --      1.3476                 1.2544                 0.8531
 IR Inten    --     33.2685                 2.7677                 1.5305

                     43                     44                     45
                      A                      A                      A
 Frequencies --   1059.1659              1104.2651              1117.6535
 Red. masses --      2.2751                 2.4988                 1.6827
 Frc consts  --      1.5038                 1.7953                 1.2384
 IR Inten    --     27.6251                45.1244                 5.3766

                     46                     47                     48
                      A                      A                      A
 Frequencies --   1128.4184              1160.1925              1168.8579
 Red. masses --      1.7181                 1.5317                 2.2342
 Frc consts  --      1.2890                 1.2147                 1.7984
 IR Inten    --     25.0340                12.1767                30.3044

                     49                     50                     51
                      A                      A                      A
 Frequencies --   1189.7626              1204.4152              1217.8798
 Red. masses --      3.0930                 3.9916                 2.4808
 Frc consts  --      2.5796                 3.4115                 2.1680
 IR Inten    --     30.0982                55.5212                23.2891

                     52                     53                     54
                      A                      A                      A
 Frequencies --   1222.4304              1255.1021              1262.6524
 Red. masses --      1.9660                 2.4941                 1.2802
 Frc consts  --      1.7310                 2.3148                 1.2025
 IR Inten    --    106.2035                58.4730                 2.2311

                     55                     56                     57
                      A                      A                      A
 Frequencies --   1282.1084              1298.3202              1332.2358
 Red. masses --      2.1425                 2.0935                 2.0767
 Frc consts  --      2.0750                 2.0791                 2.1717
 IR Inten    --      7.5360                43.2416                15.7485

                     58                     59                     60
                      A                      A                      A
 Frequencies --   1379.0593              1410.5981              1413.7551
 Red. masses --      2.2649                 3.5597                 1.4785
 Frc consts  --      2.5378                 4.1732                 1.7411
 IR Inten    --    129.2876                 0.6838                96.8577

                     61                     62                     63
                      A                      A                      A
 Frequencies --   1420.0861              1431.7522              1443.1662
 Red. masses --      1.3888                 1.9077                 1.2426
 Frc consts  --      1.6501                 2.3041                 1.5248
 IR Inten    --     41.6287                97.7651                25.1475

                     64                     65                     66
                      A                      A                      A
 Frequencies --   1450.7550              1479.5778              1499.7184
 Red. masses --      1.3339                 1.6966                 1.1387
 Frc consts  --      1.6540                 2.1883                 1.5089
 IR Inten    --     29.1095                47.0464                11.0317

                     67                     68                     69
                      A                      A                      A
 Frequencies --   1509.9530              1521.4925              1526.5308
 Red. masses --      1.0499                 1.0637                 1.0549
 Frc consts  --      1.4103                 1.4508                 1.4484
 IR Inten    --      2.0870                10.6919                 3.6647

                     70                     71                     72
                      A                      A                      A
 Frequencies --   1534.7148              1537.3188              1544.2856
 Red. masses --      1.0561                 1.0790                 1.0792
 Frc consts  --      1.4656                 1.5024                 1.5163
 IR Inten    --     15.6756                 3.1094                 9.0755

                     73                     74                     75
                      A                      A                      A
 Frequencies --   1550.1786              1561.2128              1625.8845
 Red. masses --      3.8489                 1.2395                 5.8502
 Frc consts  --      5.4494                 1.7800                 9.1117
 IR Inten    --     70.7037                28.9663                60.2824

                     76                     77                     78
                      A                      A                      A
 Frequencies --   1713.8323              1750.2969              3035.6765
 Red. masses --     11.0779                 9.6062                 1.0481
 Frc consts  --     19.1709                17.3391                 5.6909
 IR Inten    --    197.4096               282.5420                13.4534

                     79                     80                     81
                      A                      A                      A
 Frequencies --   3042.2078              3059.0726              3071.6475
 Red. masses --      1.0536                 1.0728                 1.0394
 Frc consts  --      5.7452                 5.9149                 5.7781
 IR Inten    --     94.6033                 7.1543                24.0935

                     82                     83                     84
                      A                      A                      A
 Frequencies --   3080.0978              3086.2481              3093.1086
 Red. masses --      1.0418                 1.0992                 1.1016
 Frc consts  --      5.8234                 6.1687                 6.2098
 IR Inten    --      8.1986                52.2761                20.4725

                     85                     86                     87
                      A                      A                      A
 Frequencies --   3138.7952              3160.2742              3167.7411
 Red. masses --      1.0997                 1.0965                 1.1019
 Frc consts  --      6.3836                 6.4520                 6.5148
 IR Inten    --     29.5721                 9.8611                11.1268

                     88                     89                     90
                      A                      A                      A
 Frequencies --   3175.2376              3189.1224              3194.8699
 Red. masses --      1.0951                 1.1017                 1.0971
 Frc consts  --      6.5050                 6.6018                 6.5979
 IR Inten    --      3.6223                 6.2449                 1.4221

                     91                     92                     93
                      A                      A                      A
 Frequencies --   3285.7647              3309.0592              3313.9506
 Red. masses --      1.0899                 1.1022                 1.1027
 Frc consts  --      6.9327                 7.1106                 7.1351
 IR Inten    --      0.5669                 0.4072                 1.4729

 - Thermochemistry -
 -------------------
 Temperature   298.150 Kelvin.  Pressure   1.00000 Atm.
 Atom     1 has atomic number  6 and mass  12.00000

 Molecular mass:   236.11609 amu.
 Principal axes and moments of inertia in atomic units:
                           1         2         3
     Eigenvalues --  1868.463505740.487746565.85502
           X            0.99979  -0.02011  -0.00394
           Y            0.02020   0.99947   0.02561
           Z            0.00342  -0.02568   0.99966
 This molecule is an asymmetric top.
 Rotational symmetry number  1.
 Warning -- assumption of classical behavior for rotation
           may cause significant error
 Rotational temperatures (Kelvin)      0.04636     0.01509     0.01319
 Rotational constants (GHZ):           0.96590     0.31439     0.27487
 Zero-point vibrational energy     722477.0 (Joules/Mol)
                                  172.67614 (Kcal/Mol)
 Warning -- explicit consideration of  24 degrees of freedom as
           vibrations may cause significant error
 Vibrational temperatures:     68.87    75.03    82.53   113.07   159.91
          (Kelvin)            171.10   206.84   254.83   315.27   335.13
                              363.30   393.48   421.14   462.36   481.06
                              507.75   545.76   581.63   600.58   656.32
                              680.91   746.63   749.26   875.62   894.39
                              917.84   974.64  1052.06  1061.39  1084.35
                             1097.67  1184.91  1230.65  1244.42  1289.12
                             1306.78  1322.69  1381.48  1420.28  1449.14
                             1501.61  1503.87  1523.90  1588.79  1608.05
                             1623.54  1669.26  1681.73  1711.80  1732.88
                             1752.26  1758.80  1805.81  1816.68  1844.67
                             1867.99  1916.79  1984.16  2029.54  2034.08
                             2043.19  2059.97  2076.39  2087.31  2128.78
                             2157.76  2172.49  2189.09  2196.34  2208.11
                             2211.86  2221.88  2230.36  2246.24  2339.29
                             2465.82  2518.29  4367.66  4377.06  4401.32
                             4419.42  4431.57  4440.42  4450.29  4516.03
                             4546.93  4557.67  4568.46  4588.44  4596.71
                             4727.48  4761.00  4768.04

 Zero-point correction=                           0.275177 (Hartree/Particle)
 Thermal correction to Energy=                    0.291174
 Thermal correction to Enthalpy=                  0.292118
 Thermal correction to Gibbs Free Energy=         0.231668
 Sum of electronic and zero-point Energies=           -801.865202
 Sum of electronic and thermal Energies=              -801.849205
 Sum of electronic and thermal Enthalpies=            -801.848261
 Sum of electronic and thermal Free Energies=         -801.908711

                     E (Thermal)             CV                S
                      KCal/Mol        Cal/Mol-Kelvin    Cal/Mol-Kelvin
 Total                  182.714             61.043            127.228
 Electronic               0.000              0.000              0.000
 Translational            0.889              2.981             42.279
 Rotational               0.889              2.981             32.621
 Vibrational            180.937             55.082             52.328
 Vibration     1          0.595              1.978              4.903
 Vibration     2          0.596              1.977              4.734
 Vibration     3          0.596              1.975              4.546
 Vibration     4          0.600              1.964              3.926
 Vibration     5          0.607              1.940              3.249
 Vibration     6          0.609              1.934              3.118
 Vibration     7          0.616              1.909              2.753
 Vibration     8          0.628              1.871              2.359
 Vibration     9          0.647              1.812              1.966
 Vibration    10          0.654              1.791              1.856
 Vibration    11          0.664              1.759              1.713
 Vibration    12          0.676              1.722              1.574
 Vibration    13          0.688              1.687              1.458
 Vibration    14          0.707              1.633              1.303
 Vibration    15          0.716              1.607              1.239
 Vibration    16          0.729              1.569              1.153
 Vibration    17          0.749              1.514              1.042
 Vibration    18          0.769              1.461              0.947
 Vibration    19          0.780              1.432              0.901
 Vibration    20          0.814              1.347              0.777
 Vibration    21          0.830              1.309              0.728
 Vibration    22          0.874              1.208              0.612
 Vibration    23          0.876              1.204              0.608
 Vibration    24          0.967              1.014              0.435

 Optimization completed.
    -- Stationary point found.
 Normal termination of Gaussian 16 at Sun Dec 13 16:28:20 2020.

 ----------------------------------------------------------------------
 # B3LYP/6-311++G(d,p) empiricaldispersion=gd3bj scf=xqc pop=npa geom=c
 heck
 ----------------------------------------------------------------------

 ---------------------------------------
 CID_100643405_JID_7080_Energie_neutraal
 ---------------------------------------
 Structure from the checkpoint file:  "JID_7080.chk"
 Charge =  0 Multiplicity = 1

 SCF Done:  E(RB3LYP) =  -802.363904502     A.U. after   16 cycles
 Normal termination of Gaussian 16 at Sun Dec 13 16:34:47 2020.

 ----------------------------------------------------------------------
 # B3LYP/6-311++G(d,p) empiricaldispersion=gd3bj scf=xqc pop=npa geom=c
 heck
 ----------------------------------------------------------------------

 -------------------------------------
 CID_100643405_JID_7080_Energie_kation
 -------------------------------------
 Structure from the checkpoint file:  "JID_7080.chk"
 Charge =  1 Multiplicity = 2

 SCF Done:  E(UB3LYP) =  -802.060169758     A.U. after   28 cycles
 Normal termination of Gaussian 16 at Sun Dec 13 16:51:32 2020.
 Gaussian 16:  ES64L-G16RevA.03 25-Dec-2016

 ----------------------------------------------------------------------
 # B3LYP/6-311++G(d,p) empiricaldispersion=gd3bj scf=xqc pop=npa geom=c
 heck
 ----------------------------------------------------------------------

 ------------------------------------
 CID_100643405_JID_7080_Energie_anion
 ------------------------------------
 Structure from the checkpoint file:  "JID_7080.chk"
 Charge = -1 Multiplicity = 2

                         Standard orientation:
 ---------------------------------------------------------------------
 Center     Atomic      Atomic             Coordinates (Angstroms)
 Number     Number       Type             X           Y           Z
 ---------------------------------------------------------------------
      1          6           0        0.634063    1.904656    1.422246
      2          6           0        0.675203    0.905226    0.253086
      3          6           0        2.159776    0.823317   -0.241418
      4          8           0        2.711095    1.869951   -0.574183
      5          7           0        2.768946   -0.390821   -0.359569
      6          6           0        2.253702   -1.616272    0.240625
      7          6           0        1.216429   -1.259013    1.285568
      8          7           0        0.175835   -0.425146    0.693955
      9          6           0       -0.921621   -1.126134    0.212419
     10          8           0       -0.887939   -2.351669    0.092482
     11          6           0       -2.194786   -0.407752   -0.026381
     12          6           0       -3.121217   -0.800026   -0.950655
     13          8           0       -4.231059   -0.023541   -0.876397
     14          6           0       -4.025397    0.873113    0.137884
     15          6           0       -2.799448    0.685969    0.692133
     16          6           0        4.080804   -0.467580   -0.983828
     17          6           0       -0.078765    1.477492   -0.962171
     18          1           0        1.140962    2.827362    1.133572
     19          1           0        1.134083    1.499811    2.308222
     20          1           0       -0.401638    2.131714    1.687510
     21          1           0        3.092732   -2.152685    0.703182
     22          1           0        1.808005   -2.270830   -0.518151
     23          1           0        1.687515   -0.696912    2.100847
     24          1           0        0.757272   -2.158971    1.691148
     25          1           0       -3.123071   -1.579668   -1.695605
     26          1           0       -4.840640    1.551801    0.333901
     27          1           0       -2.376186    1.227346    1.524446
     28          1           0        4.286581    0.479578   -1.479627
     29          1           0        4.860799   -0.658256   -0.234723
     30          1           0        4.092062   -1.284866   -1.714168
     31          1           0       -1.086170    1.800502   -0.704577
     32          1           0        0.487862    2.338590   -1.319208
     33          1           0       -0.142864    0.741345   -1.769727
 ---------------------------------------------------------------------

 SCF Done:  E(UB3LYP) =  -802.355079076     A.U. after   33 cycles
 SCF Done:  E(UB3LYP) =  -802.355079076     a.u. after    1 cycles

 The electronic state is 2-A.
 Alpha  occ. eigenvalues --  -19.08578 -18.98442 -18.96841 -14.24601 -14.22706
 Alpha  occ. eigenvalues --  -10.16981 -10.15238 -10.13460 -10.12453 -10.10924
 Alpha  occ. eigenvalues --  -10.10232 -10.09835 -10.09539 -10.07786 -10.06830
 Alpha  occ. eigenvalues --  -10.06707 -10.06166  -1.01268  -0.94136  -0.92211
 Alpha  occ. eigenvalues --   -0.84899  -0.81750  -0.70849  -0.69560  -0.65590
 Alpha  occ. eigenvalues --   -0.64690  -0.60825  -0.59855  -0.56475  -0.52390
 Alpha  occ. eigenvalues --   -0.51251  -0.47626  -0.46184  -0.45039  -0.42132
 Alpha  occ. eigenvalues --   -0.40465  -0.39038  -0.36676  -0.36012  -0.35678
 Alpha  occ. eigenvalues --   -0.34818  -0.34162  -0.33734  -0.32889  -0.32008
 Alpha  occ. eigenvalues --   -0.31515  -0.31229  -0.30157  -0.29880  -0.28791
 Alpha  occ. eigenvalues --   -0.27987  -0.27608  -0.26834  -0.26454  -0.25717
 Alpha  occ. eigenvalues --   -0.24771  -0.24439  -0.17971  -0.17376  -0.15236
 Alpha  occ. eigenvalues --   -0.14572  -0.13183  -0.12689   0.04550
 Alpha virt. eigenvalues --    0.06547   0.06853   0.07779   0.08645   0.09051
 Alpha virt. eigenvalues --    0.09676   0.10140   0.10222   0.10426   0.11198
 Alpha virt. eigenvalues --    0.11423   0.11798   0.12508   0.13016   0.13426

  Beta  occ. eigenvalues --  -19.08436 -18.98439 -18.96705 -14.24602 -14.22704
  Beta  occ. eigenvalues --  -10.16972 -10.15073 -10.13450 -10.12456 -10.10677
  Beta  occ. eigenvalues --  -10.10199 -10.09819 -10.09501 -10.07788 -10.06836
  Beta  occ. eigenvalues --  -10.06700 -10.06164  -1.01021  -0.94124  -0.91960
  Beta  occ. eigenvalues --   -0.84859  -0.81687  -0.70748  -0.69529  -0.65477
  Beta  occ. eigenvalues --   -0.64500  -0.60775  -0.59830  -0.56294  -0.52313
  Beta  occ. eigenvalues --   -0.51167  -0.47414  -0.46044  -0.44971  -0.42076
  Beta  occ. eigenvalues --   -0.40418  -0.38976  -0.36571  -0.35906  -0.35193
  Beta  occ. eigenvalues --   -0.34661  -0.34050  -0.33646  -0.32835  -0.31904
  Beta  occ. eigenvalues --   -0.31462  -0.31111  -0.30083  -0.29814  -0.28716
  Beta  occ. eigenvalues --   -0.27774  -0.27538  -0.26783  -0.26333  -0.25684
  Beta  occ. eigenvalues --   -0.24653  -0.24185  -0.17669  -0.17279  -0.15076
  Beta  occ. eigenvalues --   -0.14461  -0.12758  -0.12281
  Beta virt. eigenvalues --    0.06727   0.07431   0.08191   0.08478   0.09025
  Beta virt. eigenvalues --    0.09320   0.10032   0.10417   0.10586   0.10747
  Beta virt. eigenvalues --    0.11238   0.11573   0.11947   0.12633   0.13059

 Mulliken charges and spin densities:
               1          2
     1  C   -0.120587  -0.363842
     2  C   -0.412464   0.349869
     3  C   -0.678839   0.322485
     4  O   -0.340117  -0.000213
     5  N   -0.177460   0.204053
     6  C    0.636107  -1.070392
     7  C   -0.110410   0.116511
     8  N    0.340823   0.023913
     9  C   -1.249420  -0.091447
    10  O   -0.308444   0.047747
    11  C    0.800816  -0.431239
    12  C   -0.125667   0.348953
    13  O   -0.002372   0.009812
    14  C   -0.158613  -0.173898
    15  C    0.302584   0.273425
    16  C    0.989994  -1.282109
    17  C   -0.048745  -0.477561
    18  H    0.138052   0.039916
    19  H    0.026143   0.118895
    20  H    0.091365   0.035983
    21  H   -0.552610   0.751426
    22  H    0.086320   0.150599
    23  H   -0.322499   0.500870
    24  H    0.142049   0.077798
    25  H    0.104201   0.080746
    26  H    0.096020   0.065343
    27  H    0.027552   0.118445
    28  H    0.099481   0.081594
    29  H   -0.408098   0.584280
    30  H   -0.287730   0.435501
    31  H    0.191721   0.020707
    32  H    0.202856  -0.012883
    33  H    0.027992   0.144714
 Sum of Mulliken charges =  -1.00000   1.00000

 Dipole moment (field-independent basis, Debye):
    X=             -5.7232    Y=              3.7759    Z=              0.1888  Tot=              6.8592
 Quadrupole moment (field-independent basis, Debye-Ang):
   XX=           -175.4494   YY=           -140.3351   ZZ=           -127.0910
   XY=              1.6653   XZ=             -5.9295   YZ=              4.1821

 Summary of Natural Population Analysis:

                                       Natural Population
                Natural  -----------------------------------------------
    Atom  No    Charge         Core      Valence    Rydberg      Total
 -----------------------------------------------------------------------
      C    1   -0.28566      0.99961     2.27988    0.00618     3.28566
      C    2    0.04281      0.99954     1.94450    0.01315     2.95719
      C    3    0.34780      0.99958     1.62754    0.02508     2.65220
      O    4   -0.33903      0.99988     3.33375    0.00541     4.33903
      N    5   -0.24866      0.99963     2.73837    0.01066     3.74866
      C    6   -0.08376      0.99960     2.07403    0.01014     3.08376
      C    7   -0.09138      0.99961     2.07964    0.01213     3.09138
      N    8   -0.27162      0.99964     2.75959    0.01239     3.77162
      C    9    0.36118      0.99958     1.61790    0.02134     2.63882
      O   10   -0.31016      0.99988     3.30554    0.00474     4.31016
      C   11   -0.11673      0.99948     2.10552    0.01173     3.11673
      C   12    0.13576      0.99947     1.84962    0.01515     2.86424
      O   13   -0.22290      0.99987     3.21512    0.00791     4.22290
      C   14    0.04581      0.99952     1.94042    0.01426     2.95419
      C   15   -0.14632      0.99953     2.13868    0.00811     3.14632
      C   16   -0.17768      0.99964     2.16955    0.00849     3.17768
      C   17   -0.29134      0.99962     2.28597    0.00575     3.29134
      H   18    0.10974      0.00000     0.38929    0.00096     0.39026
      H   19    0.10137      0.00000     0.39755    0.00108     0.39863
      H   20    0.09652      0.00000     0.40244    0.00104     0.40348
      H   21    0.10008      0.00000     0.39692    0.00300     0.39992
      H   22    0.10298      0.00000     0.39571    0.00131     0.39702
      H   23    0.09594      0.00000     0.40234    0.00171     0.40406
      H   24    0.11702      0.00000     0.38197    0.00100     0.38298
      H   25    0.09595      0.00000     0.40306    0.00099     0.40405
      H   26    0.09184      0.00000     0.40719    0.00097     0.40816
      H   27    0.10897      0.00000     0.39000    0.00103     0.39103
      H   28    0.11240      0.00000     0.38657    0.00103     0.38760
      H   29    0.09664      0.00000     0.40147    0.00189     0.40336
      H   30    0.09549      0.00000     0.40323    0.00129     0.40451
      H   31    0.10817      0.00000     0.39049    0.00134     0.39183
      H   32    0.11279      0.00000     0.38622    0.00099     0.38721
      H   33    0.10599      0.00000     0.39279    0.00122     0.39401
 =======================================================================
   * Total *   -0.00000     16.99366    45.79286    0.21348    63.00000

 Normal termination of Gaussian 16 at Sun Dec 13 17:11:32 2020.
