 Gaussian 16, Revision A.03,

 -----------------------------------------------------------
 # opt freq B3LYP/6-31G(d) empiricaldispersion=gd3bj scf=xqc
 -----------------------------------------------------------

 ------------------------------
 CID_55195197_JID_9078_neutraal
 ------------------------------
 Symbolic Z-matrix:
 Charge =  0 Multiplicity = 1

 SCF Done:  E(RB3LYP) =  -771.867358088     A.U. after   15 cycles
 SCF Done:  E(RB3LYP) =  -771.875689055     A.U. after   12 cycles
 SCF Done:  E(RB3LYP) =  -771.877554530     A.U. after   12 cycles
 SCF Done:  E(RB3LYP) =  -771.878891515     A.U. after   12 cycles
 SCF Done:  E(RB3LYP) =  -771.879651652     A.U. after   12 cycles
 SCF Done:  E(RB3LYP) =  -771.880399151     A.U. after   11 cycles
 SCF Done:  E(RB3LYP) =  -771.881070955     A.U. after   12 cycles
 SCF Done:  E(RB3LYP) =  -771.881228466     A.U. after   12 cycles
 SCF Done:  E(RB3LYP) =  -771.881718016     A.U. after   12 cycles
 SCF Done:  E(RB3LYP) =  -771.882241477     A.U. after   12 cycles
 SCF Done:  E(RB3LYP) =  -771.883017967     A.U. after    9 cycles
 SCF Done:  E(RB3LYP) =  -771.883015851     A.U. after   10 cycles
 SCF Done:  E(RB3LYP) =  -771.883022345     A.U. after    9 cycles
 SCF Done:  E(RB3LYP) =  -771.883022619     A.U. after    8 cycles
 SCF Done:  E(RB3LYP) =  -771.883022755     A.U. after    7 cycles
 SCF Done:  E(RB3LYP) =  -771.883022786     A.U. after    6 cycles
 Optimization completed.
    -- Stationary point found.
 Normal termination of Gaussian 16 at Mon Dec 14 19:13:28 2020.

 --------------------------------------------------------------------
 #N Geom=AllCheck Guess=TCheck SCRF=Check GenChk RB3LYP/6-31G(d) Freq
 --------------------------------------------------------------------

 Structure from the checkpoint file:  "JID_9078.chk"
 ------------------------------
 CID_55195197_JID_9078_neutraal
 ------------------------------
 Charge =  0 Multiplicity = 1

 SCF Done:  E(RB3LYP) =  -771.883022786     A.U. after    1 cycles

  Exact polarizability: 256.361  12.724 223.137   1.402   9.569 117.806
 Approx polarizability: 358.088  25.677 367.468   3.176  24.641 178.393

                      1                      2                      3
                      A                      A                      A
 Frequencies --     37.7117                45.8692                54.4726
 Red. masses --      3.4411                 3.0400                 2.8459
 Frc consts  --      0.0029                 0.0038                 0.0050
 IR Inten    --      0.2832                 0.0520                 0.0278

                      4                      5                      6
                      A                      A                      A
 Frequencies --     62.0874                78.6384                97.5197
 Red. masses --      2.8190                 2.7140                 2.5545
 Frc consts  --      0.0064                 0.0099                 0.0143
 IR Inten    --      0.0821                 0.1412                 1.4429

                      7                      8                      9
                      A                      A                      A
 Frequencies --    129.7893               145.0059               154.0584
 Red. masses --      2.4831                 3.1526                 2.9900
 Frc consts  --      0.0246                 0.0391                 0.0418
 IR Inten    --      2.3935                 0.7692                 0.4133

                     10                     11                     12
                      A                      A                      A
 Frequencies --    184.4910               197.0126               227.8193
 Red. masses --      1.2255                 2.5643                 2.4256
 Frc consts  --      0.0246                 0.0586                 0.0742
 IR Inten    --      0.3082                 0.6025                 0.0728

                     13                     14                     15
                      A                      A                      A
 Frequencies --    231.8930               246.0677               258.4094
 Red. masses --      1.1848                 1.1278                 1.3039
 Frc consts  --      0.0375                 0.0402                 0.0513
 IR Inten    --      0.1552                 0.0537                 0.5522

                     16                     17                     18
                      A                      A                      A
 Frequencies --    272.1978               281.3732               295.2973
 Red. masses --      2.4624                 1.1121                 3.2283
 Frc consts  --      0.1075                 0.0519                 0.1659
 IR Inten    --      0.8862                 0.5616                 1.0906

                     19                     20                     21
                      A                      A                      A
 Frequencies --    306.6389               338.8699               359.2770
 Red. masses --      2.5194                 2.8641                 2.8968
 Frc consts  --      0.1396                 0.1938                 0.2203
 IR Inten    --      0.3617                 1.1185                 1.7111

                     22                     23                     24
                      A                      A                      A
 Frequencies --    361.5352               378.5621               415.1785
 Red. masses --      2.7460                 4.0302                 2.9299
 Frc consts  --      0.2115                 0.3403                 0.2976
 IR Inten    --      0.2993                 2.2461                 0.4194

                     25                     26                     27
                      A                      A                      A
 Frequencies --    436.0107               466.5852               507.2459
 Red. masses --      3.5918                 4.5170                 4.4066
 Frc consts  --      0.4023                 0.5794                 0.6680
 IR Inten    --      1.7262                 0.3881                 4.8907

                     28                     29                     30
                      A                      A                      A
 Frequencies --    546.1609               571.3018               606.1381
 Red. masses --      3.9360                 3.8797                 3.9678
 Frc consts  --      0.6918                 0.7461                 0.8589
 IR Inten    --      1.4606                 0.8729                 2.5830

                     31                     32                     33
                      A                      A                      A
 Frequencies --    614.2709               620.7020               671.1938
 Red. masses --      3.3025                 4.0331                 3.9300
 Frc consts  --      0.7342                 0.9155                 1.0431
 IR Inten    --      4.8259                 2.7406                 1.5772

                     34                     35                     36
                      A                      A                      A
 Frequencies --    681.1159               752.2148               766.5027
 Red. masses --      5.3314                 3.1593                 2.8775
 Frc consts  --      1.4573                 1.0532                 0.9961
 IR Inten    --      3.3205                 8.4409                 7.3829

                     37                     38                     39
                      A                      A                      A
 Frequencies --    777.9327               791.7762               807.0750
 Red. masses --      1.4112                 1.1970                 1.7002
 Frc consts  --      0.5032                 0.4421                 0.6525
 IR Inten    --     41.2846                15.4670                21.8282

                     40                     41                     42
                      A                      A                      A
 Frequencies --    826.0474               841.0502               875.4598
 Red. masses --      1.4824                 4.8901                 4.0530
 Frc consts  --      0.5960                 2.0380                 1.8302
 IR Inten    --     16.6976                 2.5586                 3.1195

                     43                     44                     45
                      A                      A                      A
 Frequencies --    897.9907               911.5960               933.2381
 Red. masses --      2.6766                 1.3906                 1.6011
 Frc consts  --      1.2717                 0.6808                 0.8216
 IR Inten    --      6.9643                 4.3809                 8.8521

                     46                     47                     48
                      A                      A                      A
 Frequencies --    942.5841               962.3636               967.5612
 Red. masses --      1.2193                 2.2726                 1.2913
 Frc consts  --      0.6382                 1.2401                 0.7123
 IR Inten    --      1.8010                 5.7842                 0.3809

                     49                     50                     51
                      A                      A                      A
 Frequencies --    980.0817               993.6211              1030.9004
 Red. masses --      1.4731                 2.7134                 1.9725
 Frc consts  --      0.8337                 1.5783                 1.2351
 IR Inten    --      0.3041                16.1118                 7.1751

                     52                     53                     54
                      A                      A                      A
 Frequencies --   1057.1836              1066.1774              1080.5467
 Red. masses --      2.1934                 1.6772                 2.3225
 Frc consts  --      1.4443                 1.1233                 1.5977
 IR Inten    --     12.4214                 3.0420                 8.9218

                     55                     56                     57
                      A                      A                      A
 Frequencies --   1085.9734              1100.5828              1136.2934
 Red. masses --      1.8215                 1.8248                 1.8098
 Frc consts  --      1.2657                 1.3023                 1.3768
 IR Inten    --      8.2122                10.5305                 4.4256

                     58                     59                     60
                      A                      A                      A
 Frequencies --   1141.2486              1143.1408              1151.9036
 Red. masses --      1.8690                 2.1757                 2.2305
 Frc consts  --      1.4342                 1.6752                 1.7438
 IR Inten    --     17.7712                 4.0813                40.3070

                     61                     62                     63
                      A                      A                      A
 Frequencies --   1181.7222              1191.2929              1217.2155
 Red. masses --      2.3470                 1.7025                 1.3188
 Frc consts  --      1.9311                 1.4236                 1.1513
 IR Inten    --      7.7273                35.4905                 5.4546

                     64                     65                     66
                      A                      A                      A
 Frequencies --   1232.0105              1266.9917              1293.6119
 Red. masses --      2.6221                 3.0458                 1.7127
 Frc consts  --      2.3450                 2.8807                 1.6887
 IR Inten    --     11.7421                 2.9841                 6.0709

                     67                     68                     69
                      A                      A                      A
 Frequencies --   1304.4178              1314.4981              1335.0002
 Red. masses --      1.4827                 1.2598                 2.2074
 Frc consts  --      1.4864                 1.2825                 2.3179
 IR Inten    --     12.4815                 4.7980                12.0155

                     70                     71                     72
                      A                      A                      A
 Frequencies --   1354.5176              1374.2076              1383.5775
 Red. masses --      1.3315                 1.5172                 1.8476
 Frc consts  --      1.4393                 1.6881                 2.0838
 IR Inten    --      1.2895                 2.0482                 6.0592

                     73                     74                     75
                      A                      A                      A
 Frequencies --   1394.2899              1398.9052              1419.4737
 Red. masses --      1.7082                 2.8021                 1.2628
 Frc consts  --      1.9566                 3.2308                 1.4991
 IR Inten    --     35.5181                24.4796                 5.7768

                     76                     77                     78
                      A                      A                      A
 Frequencies --   1424.7662              1428.1039              1431.8139
 Red. masses --      3.1466                 1.2628                 1.4859
 Frc consts  --      3.7634                 1.5174                 1.7948
 IR Inten    --     30.0280                 5.6324                 1.5931

                     79                     80                     81
                      A                      A                      A
 Frequencies --   1441.7836              1443.3308              1450.8469
 Red. masses --      1.4907                 1.3182                 1.9335
 Frc consts  --      1.8257                 1.6180                 2.3979
 IR Inten    --     11.4657                12.6741                 0.3904

                     82                     83                     84
                      A                      A                      A
 Frequencies --   1491.1178              1498.9312              1514.9941
 Red. masses --      1.5046                 1.4146                 1.2925
 Frc consts  --      1.9710                 1.8727                 1.7479
 IR Inten    --      8.6194                68.6869                 1.9565

                     85                     86                     87
                      A                      A                      A
 Frequencies --   1517.0435              1519.5307              1522.5387
 Red. masses --      1.0794                 1.0872                 1.0965
 Frc consts  --      1.4636                 1.4791                 1.4976
 IR Inten    --      4.0449                 5.0707                 6.1203

                     88                     89                     90
                      A                      A                      A
 Frequencies --   1523.6984              1526.4981              1529.0517
 Red. masses --      1.1018                 1.1130                 1.1513
 Frc consts  --      1.5071                 1.5281                 1.5859
 IR Inten    --      8.2198                 1.3604                10.3185

                     91                     92                     93
                      A                      A                      A
 Frequencies --   1530.8596              1538.6701              1539.0077
 Red. masses --      1.0580                 1.0642                 1.5880
 Frc consts  --      1.4608                 1.4845                 2.2160
 IR Inten    --      5.5956                 4.2439                34.6999

                     94                     95                     96
                      A                      A                      A
 Frequencies --   1541.9549              1544.5624              1554.8826
 Red. masses --      1.2630                 1.2034                 1.1554
 Frc consts  --      1.7692                 1.6915                 1.6458
 IR Inten    --      8.9384                25.7232                 4.1437

                     97                     98                     99
                      A                      A                      A
 Frequencies --   1623.3330              1655.6920              1666.5799
 Red. masses --      6.8980                 6.1423                 5.5333
 Frc consts  --     10.7100                 9.9206                 9.0550
 IR Inten    --     15.9913                46.8476                 8.3304

                    100                    101                    102
                      A                      A                      A
 Frequencies --   2983.7746              3041.4864              3045.6861
 Red. masses --      1.0746                 1.0362                 1.0375
 Frc consts  --      5.6368                 5.6475                 5.6702
 IR Inten    --     50.7704                24.7685                49.3166

                    103                    104                    105
                      A                      A                      A
 Frequencies --   3047.0645              3048.2764              3051.6965
 Red. masses --      1.0403                 1.0385                 1.0354
 Frc consts  --      5.6910                 5.6856                 5.6810
 IR Inten    --     15.2796                24.1102                42.1406

                    106                    107                    108
                      A                      A                      A
 Frequencies --   3072.9109              3082.5408              3093.0377
 Red. masses --      1.0837                 1.0646                 1.0884
 Frc consts  --      6.0292                 5.9599                 6.1351
 IR Inten    --      2.1251                26.6432                 7.0397

                    109                    110                    111
                      A                      A                      A
 Frequencies --   3098.9075              3102.5863              3111.9624
 Red. masses --      1.0990                 1.1022                 1.0996
 Frc consts  --      6.2183                 6.2512                 6.2740
 IR Inten    --     16.2167                 3.2814                68.8335

                    112                    113                    114
                      A                      A                      A
 Frequencies --   3112.1671              3116.9234              3118.0988
 Red. masses --      1.1020                 1.0981                 1.1029
 Frc consts  --      6.2885                 6.2857                 6.3176
 IR Inten    --     21.3548                33.6513                38.1287

                    115                    116                    117
                      A                      A                      A
 Frequencies --   3127.1865              3135.0010              3140.8947
 Red. masses --      1.0970                 1.1035                 1.1030
 Frc consts  --      6.3207                 6.3900                 6.4111
 IR Inten    --     44.3437                27.6601                33.0506

                    118                    119                    120
                      A                      A                      A
 Frequencies --   3142.8184              3161.5438              3181.9103
 Red. masses --      1.0999                 1.0994                 1.0850
 Frc consts  --      6.4007                 6.4744                 6.4722
 IR Inten    --     20.6877                 8.7436                 2.9614

                    121                    122                    123
                      A                      A                      A
 Frequencies --   3198.5830              3213.6992              3518.3081
 Red. masses --      1.0920                 1.0931                 1.0730
 Frc consts  --      6.5825                 6.6513                 7.8254
 IR Inten    --     30.3167                25.8584                 0.4069

 - Thermochemistry -
 -------------------
 Temperature   298.150 Kelvin.  Pressure   1.00000 Atm.
 Atom     1 has atomic number  6 and mass  12.00000

 Molecular mass:   256.19395 amu.
 Principal axes and moments of inertia in atomic units:
                           1         2         3
     Eigenvalues --  3140.478366974.780569283.51294
           X            0.99997  -0.00777  -0.00143
           Y            0.00776   0.99996  -0.00482
           Z            0.00147   0.00481   0.99999
 This molecule is an asymmetric top.
 Rotational symmetry number  1.
 Warning -- assumption of classical behavior for rotation
           may cause significant error
 Rotational temperatures (Kelvin)      0.02758     0.01242     0.00933
 Rotational constants (GHZ):           0.57467     0.25875     0.19440
 Zero-point vibrational energy     998702.0 (Joules/Mol)
                                  238.69551 (Kcal/Mol)
 Warning -- explicit consideration of  32 degrees of freedom as
           vibrations may cause significant error
 Vibrational temperatures:     54.26    66.00    78.37    89.33   113.14
          (Kelvin)            140.31   186.74   208.63   221.66   265.44
                              283.46   327.78   333.64   354.04   371.79
                              391.63   404.83   424.87   441.19   487.56
                              516.92   520.17   544.67   597.35   627.32
                              671.31   729.81   785.80   821.98   872.10
                              883.80   893.05   965.70   979.97  1082.27
                             1102.83  1119.27  1139.19  1161.20  1188.50
                             1210.08  1259.59  1292.01  1311.58  1342.72
                             1356.17  1384.63  1392.10  1410.12  1429.60
                             1483.24  1521.05  1533.99  1554.67  1562.47
                             1583.49  1634.87  1642.00  1644.72  1657.33
                             1700.23  1714.00  1751.30  1772.59  1822.92
                             1861.22  1876.77  1891.27  1920.77  1948.85
                             1977.18  1990.66  2006.07  2012.71  2042.31
                             2049.92  2054.72  2060.06  2074.41  2076.63
                             2087.45  2145.39  2156.63  2179.74  2182.69
                             2186.27  2190.59  2192.26  2196.29  2199.96
                             2202.57  2213.80  2214.29  2218.53  2222.28
                             2237.13  2335.61  2382.17  2397.84  4292.99
                             4376.02  4382.06  4384.05  4385.79  4390.71
                             4421.23  4435.09  4450.19  4458.64  4463.93
                             4477.42  4477.71  4484.56  4486.25  4499.32
                             4510.57  4519.05  4521.81  4548.76  4578.06
                             4602.05  4623.80  5062.06

 Zero-point correction=                           0.380386 (Hartree/Particle)
 Thermal correction to Energy=                    0.399961
 Thermal correction to Enthalpy=                  0.400905
 Thermal correction to Gibbs Free Energy=         0.332757
 Sum of electronic and zero-point Energies=           -771.502637
 Sum of electronic and thermal Energies=              -771.483062
 Sum of electronic and thermal Enthalpies=            -771.482118
 Sum of electronic and thermal Free Energies=         -771.550266

                     E (Thermal)             CV                S
                      KCal/Mol        Cal/Mol-Kelvin    Cal/Mol-Kelvin
 Total                  250.979             75.131            143.430
 Electronic               0.000              0.000              0.000
 Translational            0.889              2.981             42.522
 Rotational               0.889              2.981             33.674
 Vibrational            249.202             69.169             67.234
 Vibration     1          0.594              1.982              5.376
 Vibration     2          0.595              1.979              4.988
 Vibration     3          0.596              1.976              4.648
 Vibration     4          0.597              1.972              4.390
 Vibration     5          0.600              1.964              3.925
 Vibration     6          0.603              1.951              3.503
 Vibration     7          0.612              1.923              2.949
 Vibration     8          0.616              1.908              2.737
 Vibration     9          0.620              1.898              2.621
 Vibration    10          0.631              1.861              2.282
 Vibration    11          0.636              1.844              2.161
 Vibration    12          0.651              1.799              1.896
 Vibration    13          0.653              1.792              1.864
 Vibration    14          0.661              1.769              1.759
 Vibration    15          0.667              1.749              1.672
 Vibration    16          0.675              1.725              1.582
 Vibration    17          0.681              1.708              1.525
 Vibration    18          0.690              1.683              1.443
 Vibration    19          0.697              1.661              1.380
 Vibration    20          0.719              1.598              1.217
 Vibration    21          0.734              1.556              1.125
 Vibration    22          0.736              1.551              1.115
 Vibration    23          0.749              1.516              1.045
 Vibration    24          0.779              1.437              0.909
 Vibration    25          0.796              1.392              0.839
 Vibration    26          0.824              1.324              0.747
 Vibration    27          0.862              1.234              0.640
 Vibration    28          0.901              1.148              0.552
 Vibration    29          0.927              1.093              0.502
 Vibration    30          0.965              1.019              0.439
 Vibration    31          0.974              1.002              0.426
 Vibration    32          0.981              0.988              0.415

 Optimization completed.
    -- Stationary point found.
 Normal termination of Gaussian 16 at Mon Dec 14 19:38:20 2020.

 ----------------------------------------------------------------------
 # B3LYP/6-311++G(d,p) empiricaldispersion=gd3bj scf=xqc pop=npa geom=c
 heck
 ----------------------------------------------------------------------

 --------------------------------------
 CID_55195197_JID_9078_Energie_neutraal
 --------------------------------------
 Structure from the checkpoint file:  "JID_9078.chk"
 Charge =  0 Multiplicity = 1

 SCF Done:  E(RB3LYP) =  -772.082813118     A.U. after   16 cycles
 Normal termination of Gaussian 16 at Mon Dec 14 19:50:34 2020.

 ----------------------------------------------------------------------
 # B3LYP/6-311++G(d,p) empiricaldispersion=gd3bj scf=xqc pop=npa geom=c
 heck
 ----------------------------------------------------------------------

 ------------------------------------
 CID_55195197_JID_9078_Energie_kation
 ------------------------------------
 Structure from the checkpoint file:  "JID_9078.chk"
 Charge =  1 Multiplicity = 2

 SCF Done:  E(UB3LYP) =  -771.808693078     A.U. after   23 cycles
 Normal termination of Gaussian 16 at Mon Dec 14 20:15:55 2020.
 Gaussian 16:  ES64L-G16RevA.03 25-Dec-2016

 ----------------------------------------------------------------------
 # B3LYP/6-311++G(d,p) empiricaldispersion=gd3bj scf=xqc pop=npa geom=c
 heck
 ----------------------------------------------------------------------

 -----------------------------------
 CID_55195197_JID_9078_Energie_anion
 -----------------------------------
 Structure from the checkpoint file:  "JID_9078.chk"
 Charge = -1 Multiplicity = 2

                         Standard orientation:
 ---------------------------------------------------------------------
 Center     Atomic      Atomic             Coordinates (Angstroms)
 Number     Number       Type             X           Y           Z
 ---------------------------------------------------------------------
      1          6           0        3.258462    2.117070   -1.411282
      2          6           0        2.841372    1.764757    0.026730
      3          6           0        1.485516    1.094709    0.060710
      4          6           0        0.291893    1.868497    0.189118
      5          7           0       -0.922305    1.354103    0.109412
      6          6           0       -1.070953    0.015922   -0.089470
      7          6           0        0.052949   -0.857912   -0.202482
      8          6           0        1.355885   -0.270952   -0.141480
      9          7           0        2.523219   -1.067707   -0.302313
     10          6           0        3.143692   -1.534846    0.949986
     11          6           0        4.427707   -2.298734    0.650991
     12          6           0       -0.168425   -2.250402   -0.358119
     13          6           0       -1.450886   -2.741171   -0.429059
     14          6           0       -2.560092   -1.869831   -0.346225
     15          6           0       -2.402409   -0.508786   -0.173776
     16          6           0       -3.577836    0.442270   -0.032021
     17          6           0       -4.866363   -0.065975   -0.688855
     18          6           0       -3.816330    0.771428    1.454270
     19          6           0        0.357542    3.361180    0.408969
     20          1           0        3.330118    1.204877   -2.010932
     21          1           0        4.232872    2.618522   -1.424852
     22          1           0        2.527476    2.780574   -1.886618
     23          1           0        3.602752    1.110482    0.456660
     24          1           0        2.827901    2.671057    0.640164
     25          1           0        2.314794   -1.874626   -0.884251
     26          1           0        3.362345   -0.656367    1.564906
     27          1           0        2.451280   -2.161926    1.536601
     28          1           0        5.132054   -1.665376    0.102483
     29          1           0        4.903344   -2.636134    1.577887
     30          1           0        4.224696   -3.186708    0.039093
     31          1           0        0.672317   -2.936095   -0.404014
     32          1           0       -1.618484   -3.808373   -0.544854
     33          1           0       -3.557372   -2.291821   -0.414625
     34          1           0       -3.284770    1.376752   -0.521830
     35          1           0       -5.275875   -0.938552   -0.165612
     36          1           0       -5.632995    0.716113   -0.659308
     37          1           0       -4.704160   -0.344551   -1.736010
     38          1           0       -2.918263    1.208478    1.898322
     39          1           0       -4.639716    1.487778    1.562012
     40          1           0       -4.077794   -0.134682    2.014341
     41          1           0        0.927576    3.865643   -0.379980
     42          1           0       -0.658462    3.759382    0.420258
     43          1           0        0.841621    3.607442    1.362427
 ---------------------------------------------------------------------

 SCF Done:  E(UB3LYP) =  -772.084017569     A.U. after   32 cycles

 The electronic state is 2-A.
 Alpha  occ. eigenvalues --  -14.18384 -14.14259 -10.08720 -10.06385 -10.06289
 Alpha  occ. eigenvalues --  -10.06098 -10.05447 -10.05211 -10.05152 -10.05030
 Alpha  occ. eigenvalues --  -10.04620 -10.04330 -10.04086 -10.04060 -10.03316
 Alpha  occ. eigenvalues --  -10.03158 -10.02963 -10.02837 -10.02691  -0.80697
 Alpha  occ. eigenvalues --   -0.78729  -0.71344  -0.68239  -0.67428  -0.64812
 Alpha  occ. eigenvalues --   -0.62468  -0.61097  -0.58711  -0.57438  -0.56812
 Alpha  occ. eigenvalues --   -0.52069  -0.50456  -0.48809  -0.47355  -0.45910
 Alpha  occ. eigenvalues --   -0.42955  -0.40231  -0.37315  -0.36360  -0.35670
 Alpha  occ. eigenvalues --   -0.33917  -0.33560  -0.33231  -0.32167  -0.31731
 Alpha  occ. eigenvalues --   -0.31589  -0.30039  -0.29717  -0.28850  -0.28107
 Alpha  occ. eigenvalues --   -0.27485  -0.27000  -0.26820  -0.26458  -0.25707
 Alpha  occ. eigenvalues --   -0.25479  -0.25040  -0.24366  -0.24103  -0.22773
 Alpha  occ. eigenvalues --   -0.22550  -0.21733  -0.20413  -0.19993  -0.19438
 Alpha  occ. eigenvalues --   -0.16119  -0.12050  -0.10980  -0.10588  -0.08496
 Alpha  occ. eigenvalues --    0.04504
 Alpha virt. eigenvalues --    0.06903   0.07743   0.07824   0.08850   0.09191
 Alpha virt. eigenvalues --    0.09489   0.10126   0.10531   0.10757   0.11224
 Alpha virt. eigenvalues --    0.11458   0.11795   0.12321   0.12585   0.12938

  Beta  occ. eigenvalues --  -14.18400 -14.13987 -10.08680 -10.06270 -10.06270
  Beta  occ. eigenvalues --  -10.06146 -10.05227 -10.05149 -10.05066 -10.05033
  Beta  occ. eigenvalues --  -10.04598 -10.04338 -10.04163 -10.04043 -10.03273
  Beta  occ. eigenvalues --  -10.03117 -10.02900 -10.02616 -10.02468  -0.80400
  Beta  occ. eigenvalues --   -0.78439  -0.71072  -0.68027  -0.67312  -0.64644
  Beta  occ. eigenvalues --   -0.62347  -0.60916  -0.58397  -0.57367  -0.56728
  Beta  occ. eigenvalues --   -0.51886  -0.50349  -0.48651  -0.47164  -0.45658
  Beta  occ. eigenvalues --   -0.42765  -0.40110  -0.37159  -0.36177  -0.35578
  Beta  occ. eigenvalues --   -0.33848  -0.33442  -0.33129  -0.32027  -0.31658
  Beta  occ. eigenvalues --   -0.31468  -0.29855  -0.29632  -0.28732  -0.27999
  Beta  occ. eigenvalues --   -0.27420  -0.26953  -0.26721  -0.26334  -0.25518
  Beta  occ. eigenvalues --   -0.25387  -0.24847  -0.24218  -0.24014  -0.22685
  Beta  occ. eigenvalues --   -0.22450  -0.21640  -0.20286  -0.19825  -0.18528
  Beta  occ. eigenvalues --   -0.15136  -0.11592  -0.10684  -0.09924  -0.07173
  Beta virt. eigenvalues --    0.06842   0.07709   0.07833   0.08734   0.09122
  Beta virt. eigenvalues --    0.09438   0.09694   0.10084   0.10514   0.10696
  Beta virt. eigenvalues --    0.11219   0.11444   0.11917   0.12295   0.12542

 Mulliken charges and spin densities:
               1          2
     1  C   -0.238887  -0.466943
     2  C   -0.494001   0.278484
     3  C    0.639981   0.009981
     4  C   -0.544647   0.176465
     5  N    0.215036   0.139356
     6  C   -0.570287  -0.050787
     7  C    0.734049  -0.004760
     8  C    0.370858  -0.071164
     9  N    0.011489   0.061936
    10  C   -0.515826   0.272044
    11  C    0.128112  -0.615808
    12  C   -0.537890   0.097942
    13  C   -0.662166  -0.029344
    14  C   -0.227822   0.034616
    15  C    0.345525   0.140888
    16  C   -0.032670  -0.003787
    17  C   -0.586697  -0.004440
    18  C   -0.682212   0.010335
    19  C   -0.402988  -0.094032
    20  H    0.121437   0.056059
    21  H   -0.098797   0.208950
    22  H    0.096890   0.015677
    23  H    0.000965   0.119822
    24  H    0.081208   0.057537
    25  H    0.093023   0.126334
    26  H    0.109766   0.034234
    27  H    0.108456   0.017206
    28  H   -0.004562   0.143965
    29  H    0.021009   0.096741
    30  H   -0.036595   0.156994
    31  H    0.003652   0.027593
    32  H    0.101177   0.027827
    33  H    0.089790  -0.011831
    34  H    0.202494   0.005535
    35  H    0.114995   0.004368
    36  H    0.132435   0.000998
    37  H    0.124594  -0.000304
    38  H    0.177045  -0.000660
    39  H    0.090660   0.005615
    40  H    0.128242  -0.000873
    41  H    0.126933   0.007511
    42  H    0.143042  -0.005194
    43  H    0.123187   0.024914
 Sum of Mulliken charges =  -1.00000   1.00000

 Dipole moment (field-independent basis, Debye):
    X=             -0.9821    Y=              0.3141    Z=              1.0530  Tot=              1.4738
 Quadrupole moment (field-independent basis, Debye-Ang):
   XX=           -171.0432   YY=           -145.5277   ZZ=           -134.1494
   XY=             -1.4789   XZ=              5.1727   YZ=             -0.3577

 Summary of Natural Population Analysis:

                                       Natural Population
                Natural  -----------------------------------------------
    Atom  No    Charge         Core      Valence    Rydberg      Total
 -----------------------------------------------------------------------
      C    1   -0.28127      0.99966     2.27616    0.00545     3.28127
      C    2   -0.19950      0.99962     2.19002    0.00985     3.19950
      C    3   -0.04222      0.99942     2.03328    0.00951     3.04222
      C    4    0.13588      0.99953     1.85167    0.01292     2.86412
      N    5   -0.22814      0.99965     2.71752    0.01097     3.72814
      C    6    0.08416      0.99945     1.90425    0.01213     2.91584
      C    7   -0.06255      0.99945     2.05464    0.00846     3.06255
      C    8    0.16779      0.99939     1.82152    0.01129     2.83221
      N    9   -0.34286      0.99971     2.83142    0.01173     3.84286
      C   10   -0.08142      0.99963     2.07152    0.01027     3.08142
      C   11   -0.28740      0.99967     2.28317    0.00456     3.28740
      C   12   -0.06890      0.99954     2.05856    0.01081     3.06890
      C   13   -0.09864      0.99958     2.09041    0.00865     3.09864
      C   14   -0.10179      0.99952     2.09463    0.00764     3.10179
      C   15    0.02622      0.99947     1.96227    0.01204     2.97378
      C   16   -0.12449      0.99959     2.11672    0.00819     3.12449
      C   17   -0.28189      0.99966     2.27772    0.00451     3.28189
      C   18   -0.27583      0.99965     2.27179    0.00439     3.27583
      C   19   -0.29905      0.99964     2.29519    0.00421     3.29905
      H   20    0.10316      0.00000     0.39574    0.00109     0.39684
      H   21    0.08992      0.00000     0.40899    0.00110     0.41008
      H   22    0.09280      0.00000     0.40633    0.00086     0.40720
      H   23    0.10026      0.00000     0.39836    0.00138     0.39974
      H   24    0.09465      0.00000     0.40418    0.00117     0.40535
      H   25    0.17714      0.00000     0.31978    0.00308     0.32286
      H   26    0.09028      0.00000     0.40841    0.00131     0.40972
      H   27    0.08043      0.00000     0.41827    0.00130     0.41957
      H   28    0.10006      0.00000     0.39860    0.00134     0.39994
      H   29    0.09478      0.00000     0.40448    0.00074     0.40522
      H   30    0.09347      0.00000     0.40521    0.00132     0.40653
      H   31    0.08674      0.00000     0.41143    0.00183     0.41326
      H   32    0.08892      0.00000     0.40981    0.00128     0.41108
      H   33    0.09057      0.00000     0.40817    0.00126     0.40943
      H   34    0.10886      0.00000     0.38944    0.00170     0.39114
      H   35    0.09152      0.00000     0.40754    0.00094     0.40848
      H   36    0.09206      0.00000     0.40710    0.00084     0.40794
      H   37    0.09926      0.00000     0.39995    0.00079     0.40074
      H   38    0.10968      0.00000     0.38953    0.00079     0.39032
      H   39    0.08675      0.00000     0.41235    0.00090     0.41325
      H   40    0.09092      0.00000     0.40823    0.00085     0.40908
      H   41    0.09689      0.00000     0.40196    0.00115     0.40311
      H   42    0.10609      0.00000     0.39293    0.00098     0.39391
      H   43    0.09666      0.00000     0.40208    0.00126     0.40334
 =======================================================================
   * Total *   -0.00000     18.99184    50.81132    0.19684    70.00000

 Normal termination of Gaussian 16 at Mon Dec 14 20:50:12 2020.
