 Gaussian 16, Revision A.03,

 -----------------------------------------------------------
 # opt freq B3LYP/6-31G(d) empiricaldispersion=gd3bj scf=xqc
 -----------------------------------------------------------

 -------------------------------
 CID_103824806_JID_6875_neutraal
 -------------------------------
 Symbolic Z-matrix:
 Charge =  0 Multiplicity = 1

 SCF Done:  E(RB3LYP) =  -1172.17967131     A.U. after   15 cycles
 SCF Done:  E(RB3LYP) =  -1172.18664223     A.U. after   13 cycles
 SCF Done:  E(RB3LYP) =  -1172.18688977     A.U. after   13 cycles
 SCF Done:  E(RB3LYP) =  -1172.18859442     A.U. after   12 cycles
 SCF Done:  E(RB3LYP) =  -1172.18932777     A.U. after   13 cycles
 SCF Done:  E(RB3LYP) =  -1172.18982272     A.U. after   12 cycles
 SCF Done:  E(RB3LYP) =  -1172.19006059     A.U. after   12 cycles
 SCF Done:  E(RB3LYP) =  -1172.19017916     A.U. after   11 cycles
 SCF Done:  E(RB3LYP) =  -1172.19019820     A.U. after   11 cycles
 SCF Done:  E(RB3LYP) =  -1172.19021396     A.U. after   10 cycles
 SCF Done:  E(RB3LYP) =  -1172.19021731     A.U. after    8 cycles
 SCF Done:  E(RB3LYP) =  -1172.19021759     A.U. after    8 cycles
 SCF Done:  E(RB3LYP) =  -1172.19021765     A.U. after    7 cycles
 SCF Done:  E(RB3LYP) =  -1172.19021769     A.U. after    7 cycles
 SCF Done:  E(RB3LYP) =  -1172.19021770     A.U. after    7 cycles
 Optimization completed.
    -- Stationary point found.
 Normal termination of Gaussian 16 at Fri Dec 11 00:57:39 2020.

 --------------------------------------------------------------------
 #N Geom=AllCheck Guess=TCheck SCRF=Check GenChk RB3LYP/6-31G(d) Freq
 --------------------------------------------------------------------

 Structure from the checkpoint file:  "JID_6875.chk"
 -------------------------------
 CID_103824806_JID_6875_neutraal
 -------------------------------
 Charge =  0 Multiplicity = 1

 SCF Done:  E(RB3LYP) =  -1172.19021770     A.U. after    1 cycles

  Exact polarizability: 148.386   0.665 136.160  15.493   1.949  94.192
 Approx polarizability: 202.840 -10.053 217.849  30.877   3.334 160.677

                      1                      2                      3
                      A                      A                      A
 Frequencies --     15.6472                33.9932                46.0929
 Red. masses --      6.1261                 5.7369                 5.8479
 Frc consts  --      0.0009                 0.0039                 0.0073
 IR Inten    --      0.9052                 1.3124                 1.8691

                      4                      5                      6
                      A                      A                      A
 Frequencies --     74.9436                86.1758               107.7812
 Red. masses --      4.0444                 4.2625                 2.5661
 Frc consts  --      0.0134                 0.0187                 0.0176
 IR Inten    --      3.0514                 0.0666                 2.2237

                      7                      8                      9
                      A                      A                      A
 Frequencies --    125.3050               163.9497               185.2983
 Red. masses --      5.3665                 4.8767                 3.9941
 Frc consts  --      0.0496                 0.0772                 0.0808
 IR Inten    --      4.5502                 0.7293                 6.7707

                     10                     11                     12
                      A                      A                      A
 Frequencies --    203.2091               230.6236               251.0976
 Red. masses --      6.1209                 5.4496                 2.1041
 Frc consts  --      0.1489                 0.1708                 0.0782
 IR Inten    --      0.3230                21.1729                 2.2628

                     13                     14                     15
                      A                      A                      A
 Frequencies --    284.4375               307.5752               330.7144
 Red. masses --      2.1773                 2.3299                 4.0666
 Frc consts  --      0.1038                 0.1299                 0.2621
 IR Inten    --      1.0750                 1.3056                 1.5538

                     16                     17                     18
                      A                      A                      A
 Frequencies --    350.6100               411.6570               438.3645
 Red. masses --      2.9154                 4.1031                 5.3325
 Frc consts  --      0.2112                 0.4097                 0.6037
 IR Inten    --      2.0932                 4.2122                20.7904

                     19                     20                     21
                      A                      A                      A
 Frequencies --    460.6146               503.7241               534.8085
 Red. masses --      3.5818                 6.6149                 3.0743
 Frc consts  --      0.4477                 0.9889                 0.5181
 IR Inten    --     14.4451                22.8669                16.9965

                     22                     23                     24
                      A                      A                      A
 Frequencies --    545.0801               617.5765               649.5938
 Red. masses --      4.4461                 4.1404                 4.6162
 Frc consts  --      0.7783                 0.9304                 1.1477
 IR Inten    --      8.3744                 1.3473               100.3278

                     25                     26                     27
                      A                      A                      A
 Frequencies --    653.2003               665.0016               684.4756
 Red. masses --      2.4261                 2.2080                 2.7557
 Frc consts  --      0.6099                 0.5753                 0.7607
 IR Inten    --     62.2417                41.9760                31.0253

                     28                     29                     30
                      A                      A                      A
 Frequencies --    725.4063               727.9898               781.5059
 Red. masses --      1.7995                 1.6643                 6.0006
 Frc consts  --      0.5579                 0.5197                 2.1593
 IR Inten    --    108.8893                62.8965                35.5238

                     31                     32                     33
                      A                      A                      A
 Frequencies --    817.0074               872.6873               893.2680
 Red. masses --      1.2059                 1.7398                 1.3606
 Frc consts  --      0.4742                 0.7807                 0.6396
 IR Inten    --     34.8709                40.9853                13.7431

                     34                     35                     36
                      A                      A                      A
 Frequencies --    894.4123               936.1675               966.3142
 Red. masses --      2.0840                 2.2168                 1.8632
 Frc consts  --      0.9822                 1.1447                 1.0251
 IR Inten    --     59.0343                24.3957                23.4505

                     37                     38                     39
                      A                      A                      A
 Frequencies --    988.3105              1021.5211              1050.4876
 Red. masses --      7.3518                 2.7006                 3.4687
 Frc consts  --      4.2309                 1.6604                 2.2553
 IR Inten    --     20.1713                57.8938                17.9693

                     40                     41                     42
                      A                      A                      A
 Frequencies --   1068.3085              1118.8711              1132.7316
 Red. masses --      3.3103                 7.8741                 2.2207
 Frc consts  --      2.2259                 5.8078                 1.6788
 IR Inten    --     29.8801               150.8322                58.3121

                     43                     44                     45
                      A                      A                      A
 Frequencies --   1146.0272              1151.5583              1173.0196
 Red. masses --      2.9537                 2.3519                 1.5057
 Frc consts  --      2.2856                 1.8376                 1.2207
 IR Inten    --     23.5969                 9.3300                23.9446

                     46                     47                     48
                      A                      A                      A
 Frequencies --   1192.3328              1213.5363              1260.9108
 Red. masses --      1.3543                 2.2667                 1.9785
 Frc consts  --      1.1344                 1.9668                 1.8533
 IR Inten    --     34.8137                 2.1064                16.7664

                     49                     50                     51
                      A                      A                      A
 Frequencies --   1287.5926              1307.7832              1318.4044
 Red. masses --      1.5941                 1.3962                 4.1499
 Frc consts  --      1.5571                 1.4069                 4.2499
 IR Inten    --      7.8547                29.3581                38.1674

                     52                     53                     54
                      A                      A                      A
 Frequencies --   1332.1289              1360.9466              1380.7865
 Red. masses --      2.9597                 1.5115                 2.6798
 Frc consts  --      3.0945                 1.6494                 3.0102
 IR Inten    --    140.3262                28.2804                49.4421

                     55                     56                     57
                      A                      A                      A
 Frequencies --   1385.8495              1414.9590              1442.9720
 Red. masses --      1.2755                 1.5152                 1.2676
 Frc consts  --      1.4433                 1.7873                 1.5551
 IR Inten    --      4.3317                21.3625                29.6401

                     58                     59                     60
                      A                      A                      A
 Frequencies --   1451.1296              1453.4900              1473.3022
 Red. masses --      1.5290                 1.9464                 1.0888
 Frc consts  --      1.8971                 2.4227                 1.3925
 IR Inten    --     42.6113                80.8905                10.4509

                     61                     62                     63
                      A                      A                      A
 Frequencies --   1486.6123              1521.6257              1525.0334
 Red. masses --      2.4766                 1.2834                 1.3696
 Frc consts  --      3.2249                 1.7507                 1.8767
 IR Inten    --     27.5114                28.5430                58.9241

                     64                     65                     66
                      A                      A                      A
 Frequencies --   1527.4402              1533.0020              1547.6636
 Red. masses --      1.1473                 1.1031                 1.0895
 Frc consts  --      1.5770                 1.5274                 1.5375
 IR Inten    --     10.4791                 2.7004                 5.5201

                     67                     68                     69
                      A                      A                      A
 Frequencies --   1583.6970              1746.3596              3052.5251
 Red. masses --      4.7035                 6.9799                 1.0390
 Frc consts  --      6.9505                12.5421                 5.7041
 IR Inten    --     47.3263               300.4817                23.6230

                     70                     71                     72
                      A                      A                      A
 Frequencies --   3060.6591              3096.1170              3102.8869
 Red. masses --      1.0604                 1.0622                 1.1006
 Frc consts  --      5.8528                 5.9991                 6.2435
 IR Inten    --     18.5559                 2.6645                16.4753

                     73                     74                     75
                      A                      A                      A
 Frequencies --   3107.9468              3123.3504              3147.8115
 Red. masses --      1.0668                 1.1007                 1.1040
 Frc consts  --      6.0713                 6.3262                 6.4451
 IR Inten    --     12.0124                28.6572                 9.0572

                     76                     77                     78
                      A                      A                      A
 Frequencies --   3155.2574              3179.4352              3287.2363
 Red. masses --      1.1047                 1.1012                 1.0977
 Frc consts  --      6.4797                 6.5584                 6.9885
 IR Inten    --      4.3718                 3.6841                 4.9907

                     79                     80                     81
                      A                      A                      A
 Frequencies --   3495.0063              3554.9368              3645.9374
 Red. masses --      1.0746                 1.0750                 1.0821
 Frc consts  --      7.7342                 8.0043                 8.4751
 IR Inten    --     25.5455               109.7988               104.1654

 - Thermochemistry -
 -------------------
 Temperature   298.150 Kelvin.  Pressure   1.00000 Atm.
 Atom     1 has atomic number  6 and mass  12.00000

 Molecular mass:   247.07391 amu.
 Principal axes and moments of inertia in atomic units:
                           1         2         3
     Eigenvalues --  2211.860186340.087387422.68868
           X            0.99972   0.02346   0.00033
           Y           -0.02345   0.99950  -0.02124
           Z           -0.00083   0.02122   0.99977
 This molecule is an asymmetric top.
 Rotational symmetry number  1.
 Warning -- assumption of classical behavior for rotation
           may cause significant error
 Rotational temperatures (Kelvin)      0.03916     0.01366     0.01167
 Rotational constants (GHZ):           0.81594     0.28466     0.24314
 Zero-point vibrational energy     605213.6 (Joules/Mol)
                                  144.64952 (Kcal/Mol)
 Warning -- explicit consideration of  23 degrees of freedom as
           vibrations may cause significant error
 Vibrational temperatures:     22.51    48.91    66.32   107.83   123.99
          (Kelvin)            155.07   180.29   235.89   266.60   292.37
                              331.82   361.27   409.24   442.53   475.82
                              504.45   592.28   630.71   662.72   724.75
                              769.47   784.25   888.55   934.62   939.81
                              956.79   984.81  1043.70  1047.42  1124.41
                             1175.49  1255.60  1285.21  1286.86  1346.94
                             1390.31  1421.96  1469.74  1511.42  1537.06
                             1609.81  1629.75  1648.88  1656.84  1687.71
                             1715.50  1746.01  1814.17  1852.56  1881.61
                             1896.89  1916.64  1958.10  1986.64  1993.93
                             2035.81  2076.11  2087.85  2091.25  2119.75
                             2138.90  2189.28  2194.18  2197.65  2205.65
                             2226.74  2278.59  2512.62  4391.90  4403.61
                             4454.62  4464.36  4471.64  4493.80  4529.00
                             4539.71  4574.50  4729.60  5028.53  5114.76
                             5245.69

 Zero-point correction=                           0.230514 (Hartree/Particle)
 Thermal correction to Energy=                    0.246412
 Thermal correction to Enthalpy=                  0.247356
 Thermal correction to Gibbs Free Energy=         0.184750
 Sum of electronic and zero-point Energies=          -1171.959704
 Sum of electronic and thermal Energies=             -1171.943806
 Sum of electronic and thermal Enthalpies=           -1171.942862
 Sum of electronic and thermal Free Energies=        -1172.005467

                     E (Thermal)             CV                S
                      KCal/Mol        Cal/Mol-Kelvin    Cal/Mol-Kelvin
 Total                  154.626             58.058            131.765
 Electronic               0.000              0.000              0.000
 Translational            0.889              2.981             42.414
 Rotational               0.889              2.981             33.009
 Vibrational            152.848             52.096             56.342
 Vibration     1          0.593              1.986              7.122
 Vibration     2          0.594              1.983              5.582
 Vibration     3          0.595              1.979              4.978
 Vibration     4          0.599              1.966              4.019
 Vibration     5          0.601              1.959              3.745
 Vibration     6          0.606              1.943              3.308
 Vibration     7          0.610              1.928              3.017
 Vibration     8          0.623              1.887              2.504
 Vibration     9          0.631              1.860              2.274
 Vibration    10          0.639              1.835              2.104
 Vibration    11          0.652              1.794              1.874
 Vibration    12          0.663              1.761              1.723
 Vibration    13          0.683              1.703              1.507
 Vibration    14          0.697              1.659              1.375
 Vibration    15          0.713              1.614              1.257
 Vibration    16          0.728              1.574              1.163
 Vibration    17          0.776              1.445              0.921
 Vibration    18          0.799              1.387              0.832
 Vibration    19          0.818              1.337              0.764
 Vibration    20          0.859              1.242              0.649
 Vibration    21          0.890              1.173              0.577
 Vibration    22          0.900              1.150              0.554
 Vibration    23          0.977              0.995              0.420

                           ! Non-Optimized Parameters !
 Normal termination of Gaussian 16 at Fri Dec 11 01:06:35 2020.

 ----------------------------------------------------------------------
 # B3LYP/6-311++G(d,p) empiricaldispersion=gd3bj scf=xqc pop=npa geom=c
 heck
 ----------------------------------------------------------------------

 ---------------------------------------
 CID_103824806_JID_6875_Energie_neutraal
 ---------------------------------------
 Structure from the checkpoint file:  "JID_6875.chk"
 Charge =  0 Multiplicity = 1

 SCF Done:  E(RB3LYP) =  -1172.44647291     A.U. after   15 cycles
 Normal termination of Gaussian 16 at Fri Dec 11 01:10:05 2020.

 ----------------------------------------------------------------------
 # B3LYP/6-311++G(d,p) empiricaldispersion=gd3bj scf=xqc pop=npa geom=c
 heck
 ----------------------------------------------------------------------

 -------------------------------------
 CID_103824806_JID_6875_Energie_kation
 -------------------------------------
 Structure from the checkpoint file:  "JID_6875.chk"
 Charge =  1 Multiplicity = 2

 SCF Done:  E(UB3LYP) =  -1172.09653164     A.U. after   33 cycles
 SCF Done:  E(UB3LYP) =  -1172.09653164     a.u. after    1 cycles
 Normal termination of Gaussian 16 at Fri Dec 11 01:20:24 2020.
 Gaussian 16:  ES64L-G16RevA.03 25-Dec-2016

 ----------------------------------------------------------------------
 # B3LYP/6-311++G(d,p) empiricaldispersion=gd3bj scf=xqc pop=npa geom=c
 heck
 ----------------------------------------------------------------------

 ------------------------------------
 CID_103824806_JID_6875_Energie_anion
 ------------------------------------
 Structure from the checkpoint file:  "JID_6875.chk"
 Charge = -1 Multiplicity = 2

                         Standard orientation:
 ---------------------------------------------------------------------
 Center     Atomic      Atomic             Coordinates (Angstroms)
 Number     Number       Type             X           Y           Z
 ---------------------------------------------------------------------
      1          6           0        1.622978    3.088634   -0.354388
      2          6           0        1.923123    1.697424   -0.901003
      3          7           0        2.259563    0.788337    0.215622
      4         16           0        2.501309   -0.850790   -0.177985
      5          8           0        3.036257   -1.000545   -1.535158
      6          8           0        3.205971   -1.408490    0.981893
      7          6           0        0.807600   -1.495588   -0.193014
      8          6           0        0.045001   -1.277184    1.116621
      9          7           0       -0.350114    0.110201    1.325021
     10          6           0       -1.411370    0.765919    0.792891
     11          8           0       -1.515778    1.996083    0.819139
     12          6           0       -2.520000   -0.005366    0.166478
     13          7           0       -2.673470   -1.297826   -0.115825
     14          6           0       -3.894382   -1.336485   -0.716055
     15          7           0       -4.503101   -0.158154   -0.827382
     16          7           0       -3.608090    0.672112   -0.261500
     17          1           0        0.749959    3.067673    0.304382
     18          1           0        1.414303    3.774342   -1.182023
     19          1           0        2.480485    3.489198    0.199910
     20          1           0        1.031644    1.294104   -1.392270
     21          1           0        2.725100    1.717478   -1.648354
     22          1           0        3.095179    1.083131    0.723062
     23          1           0        0.285718   -1.053062   -1.045094
     24          1           0        0.944328   -2.562517   -0.395665
     25          1           0       -0.846811   -1.901629    1.096083
     26          1           0        0.668919   -1.580263    1.961451
     27          1           0        0.415653    0.739023    1.548543
     28          1           0       -4.346697   -2.247513   -1.081370
     29          1           0       -3.761559    1.669473   -0.188605
 ---------------------------------------------------------------------

 SCF Done:  E(UB3LYP) =  -1172.45583995     A.U. after   30 cycles

 The electronic state is 2-A.
 Alpha  occ. eigenvalues --  -88.96555 -19.02456 -19.02442 -18.93745 -14.24994
 Alpha  occ. eigenvalues --  -14.23873 -14.19891 -14.19793 -14.16543 -10.11719
 Alpha  occ. eigenvalues --  -10.11593 -10.11201 -10.10501 -10.08694 -10.08612
 Alpha  occ. eigenvalues --  -10.06729  -8.02823  -5.99109  -5.99067  -5.98873
 Alpha  occ. eigenvalues --   -1.02519  -0.94042  -0.91658  -0.89199  -0.83347
 Alpha  occ. eigenvalues --   -0.79825  -0.75751  -0.69241  -0.69052  -0.65938
 Alpha  occ. eigenvalues --   -0.57906  -0.54088  -0.52823  -0.50790  -0.49034
 Alpha  occ. eigenvalues --   -0.47102  -0.43028  -0.41563  -0.39753  -0.39451
 Alpha  occ. eigenvalues --   -0.37774  -0.36965  -0.35319  -0.34836  -0.33824
 Alpha  occ. eigenvalues --   -0.33144  -0.31439  -0.31224  -0.30269  -0.29154
 Alpha  occ. eigenvalues --   -0.28350  -0.27134  -0.26602  -0.26052  -0.25047
 Alpha  occ. eigenvalues --   -0.23182  -0.22152  -0.20991  -0.19800  -0.18411
 Alpha  occ. eigenvalues --   -0.17372  -0.15319  -0.13843  -0.13268  -0.12438
 Alpha  occ. eigenvalues --    0.04568
 Alpha virt. eigenvalues --    0.06398   0.08543   0.08726   0.09670   0.10155
 Alpha virt. eigenvalues --    0.10837   0.11232   0.12067   0.12585   0.12845
 Alpha virt. eigenvalues --    0.13859   0.14193   0.14654   0.15435   0.15556

  Beta  occ. eigenvalues --  -88.96554 -19.02450 -19.02437 -18.93431 -14.24975
  Beta  occ. eigenvalues --  -14.23522 -14.19688 -14.19643 -14.16338 -10.11713
  Beta  occ. eigenvalues --  -10.11251 -10.11184 -10.10501 -10.08786 -10.08427
  Beta  occ. eigenvalues --  -10.06706  -8.02822  -5.99108  -5.99066  -5.98872
  Beta  occ. eigenvalues --   -1.02507  -0.93587  -0.91645  -0.88614  -0.83316
  Beta  occ. eigenvalues --   -0.79542  -0.75271  -0.69097  -0.68617  -0.65901
  Beta  occ. eigenvalues --   -0.57791  -0.53956  -0.52162  -0.50664  -0.48960
  Beta  occ. eigenvalues --   -0.46823  -0.43004  -0.41465  -0.39598  -0.39381
  Beta  occ. eigenvalues --   -0.37681  -0.36896  -0.35209  -0.34495  -0.33550
  Beta  occ. eigenvalues --   -0.32027  -0.31370  -0.31065  -0.30217  -0.29104
  Beta  occ. eigenvalues --   -0.28210  -0.27101  -0.26210  -0.25039  -0.24611
  Beta  occ. eigenvalues --   -0.23127  -0.22124  -0.20925  -0.19447  -0.18352
  Beta  occ. eigenvalues --   -0.15867  -0.15014  -0.12748  -0.12015  -0.11833
  Beta virt. eigenvalues --    0.06867   0.08540   0.08890   0.09671   0.10147
  Beta virt. eigenvalues --    0.10614   0.11118   0.11307   0.12060   0.12629
  Beta virt. eigenvalues --    0.12821   0.13779   0.14365   0.14812   0.15384

 Mulliken charges and spin densities:
               1          2
     1  C   -0.033807  -0.542127
     2  C   -0.225198   0.062947
     3  N   -0.393206  -0.022417
     4  S    0.425697  -0.046599
     5  O   -0.146249   0.011663
     6  O   -0.243601  -0.010175
     7  C   -0.559833  -0.059296
     8  C   -0.385867   0.039887
     9  N   -0.073281   0.027899
    10  C   -0.417294   0.134193
    11  O   -0.444634   0.117897
    12  C    0.056516   0.154452
    13  N   -0.245107   0.107136
    14  C    0.037455  -0.037944
    15  N   -0.213547   0.128655
    16  N   -0.154249   0.126905
    17  H    0.171069   0.034640
    18  H    0.022398   0.099778
    19  H   -0.197914   0.316282
    20  H    0.185246  -0.007378
    21  H    0.040661   0.161614
    22  H    0.169130   0.141917
    23  H    0.244281   0.012019
    24  H    0.160629   0.057103
    25  H    0.222797   0.006573
    26  H    0.212354  -0.000865
    27  H    0.355067  -0.015768
    28  H    0.122435   0.009163
    29  H    0.308052  -0.008153
 Sum of Mulliken charges =  -1.00000   1.00000

 Dipole moment (field-independent basis, Debye):
    X=              2.4491    Y=             -1.3195    Z=             -0.0734  Tot=              2.7829
 Quadrupole moment (field-independent basis, Debye-Ang):
   XX=           -172.7964   YY=           -126.3738   ZZ=           -119.3039
   XY=              4.2838   XZ=              0.1422   YZ=             -3.3908

 Summary of Natural Population Analysis:

                                       Natural Population
                Natural  -----------------------------------------------
    Atom  No    Charge         Core      Valence    Rydberg      Total
 -----------------------------------------------------------------------
      C    1   -0.29648      0.99965     2.29011    0.00672     3.29648
      C    2   -0.09703      0.99963     2.08503    0.01236     3.09703
      N    3   -0.43887      0.99976     2.92589    0.01322     3.93887
      S    4    1.08859      4.99931     1.81300    0.09910     6.91141
      O    5   -0.46554      0.99991     3.46015    0.00549     4.46554
      O    6   -0.47051      0.99991     3.46473    0.00588     4.47051
      C    7   -0.29061      0.99957     2.27972    0.01133     3.29061
      C    8   -0.10667      0.99961     2.09633    0.01073     3.10667
      N    9   -0.30991      0.99967     2.79864    0.01160     3.80991
      C   10    0.36028      0.99963     1.61977    0.02032     2.63972
      O   11   -0.31876      0.99988     3.31308    0.00579     4.31876
      C   12    0.17123      0.99960     1.81358    0.01559     2.82877
      N   13   -0.25849      0.99970     2.74915    0.00964     3.75849
      C   14    0.04954      0.99973     1.92951    0.02123     2.95046
      N   15   -0.13710      0.99974     2.62360    0.01376     3.63710
      N   16   -0.12365      0.99965     2.61134    0.01265     3.62365
      H   17    0.12115      0.00000     0.37733    0.00152     0.37885
      H   18    0.10082      0.00000     0.39849    0.00069     0.39918
      H   19    0.09331      0.00000     0.40544    0.00126     0.40669
      H   20    0.09964      0.00000     0.39914    0.00122     0.40036
      H   21    0.09211      0.00000     0.40658    0.00131     0.40789
      H   22    0.19411      0.00000     0.30347    0.00241     0.30589
      H   23    0.12081      0.00000     0.37769    0.00151     0.37919
      H   24    0.11542      0.00000     0.38286    0.00173     0.38458
      H   25    0.12596      0.00000     0.37274    0.00130     0.37404
      H   26    0.09953      0.00000     0.39939    0.00108     0.40047
      H   27    0.19555      0.00000     0.30167    0.00278     0.30445
      H   28    0.08307      0.00000     0.41589    0.00104     0.41693
      H   29    0.20251      0.00000     0.29590    0.00158     0.29749
 =======================================================================
   * Total *   -0.00000     19.99496    44.71022    0.29482    65.00000

 Normal termination of Gaussian 16 at Fri Dec 11 01:29:46 2020.
