 Gaussian 16, Revision A.03,

 -----------------------------------------------------------
 # opt freq B3LYP/6-31G(d) empiricaldispersion=gd3bj scf=xqc
 -----------------------------------------------------------

 ------------------------------
 CID_70416209_JID_4859_neutraal
 ------------------------------
 Symbolic Z-matrix:
 Charge =  0 Multiplicity = 1

 SCF Done:  E(RB3LYP) =  -627.185484568     A.U. after   15 cycles
 SCF Done:  E(RB3LYP) =  -627.189764387     A.U. after   13 cycles
 SCF Done:  E(RB3LYP) =  -627.190347666     A.U. after   13 cycles
 SCF Done:  E(RB3LYP) =  -627.190240336     A.U. after   13 cycles
 SCF Done:  E(RB3LYP) =  -627.190497694     A.U. after   12 cycles
 SCF Done:  E(RB3LYP) =  -627.190507725     A.U. after   10 cycles
 SCF Done:  E(RB3LYP) =  -627.190515089     A.U. after   10 cycles
 SCF Done:  E(RB3LYP) =  -627.190519346     A.U. after   10 cycles
 SCF Done:  E(RB3LYP) =  -627.190519319     A.U. after    9 cycles
 SCF Done:  E(RB3LYP) =  -627.190534104     A.U. after   10 cycles
 SCF Done:  E(RB3LYP) =  -627.190615599     A.U. after   11 cycles
 SCF Done:  E(RB3LYP) =  -627.190636371     A.U. after   11 cycles
 SCF Done:  E(RB3LYP) =  -627.190637593     A.U. after    8 cycles
 SCF Done:  E(RB3LYP) =  -627.190640601     A.U. after   10 cycles
 SCF Done:  E(RB3LYP) =  -627.190639808     A.U. after    9 cycles
 SCF Done:  E(RB3LYP) =  -627.190640829     A.U. after    9 cycles
 Optimization completed.
    -- Stationary point found.
 Normal termination of Gaussian 16 at Thu Dec 10 10:45:15 2020.

 --------------------------------------------------------------------
 #N Geom=AllCheck Guess=TCheck SCRF=Check GenChk RB3LYP/6-31G(d) Freq
 --------------------------------------------------------------------

 Structure from the checkpoint file:  "JID_4859.chk"
 ------------------------------
 CID_70416209_JID_4859_neutraal
 ------------------------------
 Charge =  0 Multiplicity = 1

 SCF Done:  E(RB3LYP) =  -627.190640829     A.U. after    1 cycles

  Exact polarizability: 173.556  14.422 122.296 -10.771   6.850  78.116
 Approx polarizability: 264.650  38.202 223.098 -26.445  20.616 124.360

                      1                      2                      3
                      A                      A                      A
 Frequencies --     37.4731                50.6813                84.9912
 Red. masses --      5.0055                 4.4397                 2.1552
 Frc consts  --      0.0041                 0.0067                 0.0092
 IR Inten    --      2.9399                 2.5072                 3.4011

                      4                      5                      6
                      A                      A                      A
 Frequencies --     99.3204               145.8800               163.5702
 Red. masses --      3.0713                 3.4066                 2.0236
 Frc consts  --      0.0179                 0.0427                 0.0319
 IR Inten    --      1.6804                 1.5859                 1.3549

                      7                      8                      9
                      A                      A                      A
 Frequencies --    219.6453               237.4266               298.6238
 Red. masses --      3.5578                 4.6771                 3.5436
 Frc consts  --      0.1011                 0.1553                 0.1862
 IR Inten    --      1.3876                 1.1889                 2.6886

                     10                     11                     12
                      A                      A                      A
 Frequencies --    340.6279               371.6835               413.0852
 Red. masses --      2.5337                 2.4029                 4.4944
 Frc consts  --      0.1732                 0.1956                 0.4519
 IR Inten    --      1.8662                17.0901                 4.4489

                     13                     14                     15
                      A                      A                      A
 Frequencies --    465.4010               490.5196               500.9825
 Red. masses --      2.7662                 2.6620                 2.7484
 Frc consts  --      0.3530                 0.3774                 0.4064
 IR Inten    --     19.8324                 8.2895                 2.6665

                     16                     17                     18
                      A                      A                      A
 Frequencies --    545.4984               571.9029               598.9431
 Red. masses --      1.6353                 4.9024                 4.8904
 Frc consts  --      0.2867                 0.9447                 1.0336
 IR Inten    --     61.6259                10.8419                 4.1797

                     19                     20                     21
                      A                      A                      A
 Frequencies --    621.9150               708.0942               757.5995
 Red. masses --      3.6764                 6.5058                 4.8208
 Frc consts  --      0.8378                 1.9219                 1.6302
 IR Inten    --     35.9774                13.3010                 2.9808

                     22                     23                     24
                      A                      A                      A
 Frequencies --    788.2749               817.3971               829.9288
 Red. masses --      2.9206                 2.5016                 2.9371
 Frc consts  --      1.0692                 0.9848                 1.1919
 IR Inten    --      4.7596                27.6006                11.6708

                     25                     26                     27
                      A                      A                      A
 Frequencies --    862.6518               874.6709               903.9189
 Red. masses --     10.6391                 2.6608                 1.8789
 Frc consts  --      4.6647                 1.1994                 0.9045
 IR Inten    --      9.5002                 2.6329                 3.8553

                     28                     29                     30
                      A                      A                      A
 Frequencies --    929.2852               934.3039               980.9263
 Red. masses --      2.5293                 2.4485                 2.1915
 Frc consts  --      1.2869                 1.2593                 1.2424
 IR Inten    --      2.9544                 3.1483                12.2281

                     31                     32                     33
                      A                      A                      A
 Frequencies --   1016.4647              1018.9263              1031.8099
 Red. masses --      1.2922                 5.4223                 4.8255
 Frc consts  --      0.7866                 3.3168                 3.0268
 IR Inten    --      0.1479                 4.0506                31.1929

                     34                     35                     36
                      A                      A                      A
 Frequencies --   1075.9565              1163.9931              1167.4894
 Red. masses --      1.8505                 1.2642                 1.0854
 Frc consts  --      1.2622                 1.0092                 0.8717
 IR Inten    --     34.8030                 3.8104                 0.0546

                     37                     38                     39
                      A                      A                      A
 Frequencies --   1170.7458              1183.9235              1192.2383
 Red. masses --      2.5717                 1.3833                 1.3431
 Frc consts  --      2.0768                 1.1424                 1.1248
 IR Inten    --     14.5234                 5.2039                30.5410

                     40                     41                     42
                      A                      A                      A
 Frequencies --   1214.7753              1222.3353              1284.0863
 Red. masses --      1.9884                 1.4168                 1.5833
 Frc consts  --      1.7288                 1.2473                 1.5382
 IR Inten    --      0.8566                 4.3764                 0.4317

                     43                     44                     45
                      A                      A                      A
 Frequencies --   1317.9218              1362.6495              1391.0111
 Red. masses --      1.5003                 2.3314                 3.2986
 Frc consts  --      1.5354                 2.5506                 3.7605
 IR Inten    --      3.1423                57.0227                15.7336

                     46                     47                     48
                      A                      A                      A
 Frequencies --   1401.7440              1417.4619              1454.8437
 Red. masses --      2.0644                 1.2331                 2.1793
 Frc consts  --      2.3899                 1.4597                 2.7177
 IR Inten    --     76.0171                15.4866                 3.9840

                     49                     50                     51
                      A                      A                      A
 Frequencies --   1479.6643              1503.1145              1507.2597
 Red. masses --      1.6612                 1.3624                 1.0939
 Frc consts  --      2.1429                 1.8136                 1.4642
 IR Inten    --     18.4505                45.2468                 7.8645

                     52                     53                     54
                      A                      A                      A
 Frequencies --   1522.5190              1552.4273              1582.8023
 Red. masses --      1.0548                 1.0715                 6.5233
 Frc consts  --      1.4406                 1.5215                 9.6288
 IR Inten    --      4.3765                32.9577                20.7442

                     55                     56                     57
                      A                      A                      A
 Frequencies --   1594.9248              1645.9334              1708.1020
 Red. masses --      8.0856                 7.3163                 7.1670
 Frc consts  --     12.1184                11.6780                12.3201
 IR Inten    --     25.0516                 6.7490                16.3078

                     58                     59                     60
                      A                      A                      A
 Frequencies --   1787.6642              3042.2931              3047.1930
 Red. masses --      7.9464                 1.0436                 1.0595
 Frc consts  --     14.9621                 5.6912                 5.7963
 IR Inten    --    337.7055                39.4678                 1.6400

                     61                     62                     63
                      A                      A                      A
 Frequencies --   3075.2517              3077.4196              3111.3290
 Red. masses --      1.1014                 1.0587                 1.0951
 Frc consts  --      6.1368                 5.9075                 6.2460
 IR Inten    --      2.1369                11.4519                19.3362

                     64                     65                     66
                      A                      A                      A
 Frequencies --   3126.0837              3153.8463              3204.7285
 Red. masses --      1.1057                 1.1024                 1.0916
 Frc consts  --      6.3661                 6.4604                 6.6055
 IR Inten    --     10.2875                14.3378                 8.6145

                     67                     68                     69
                      A                      A                      A
 Frequencies --   3207.1235              3225.0345              3610.7935
 Red. masses --      1.0879                 1.0964                 1.0765
 Frc consts  --      6.5929                 6.7186                 8.2696
 IR Inten    --      0.4658                 5.4989                29.8661

 - Thermochemistry -
 -------------------
 Temperature   298.150 Kelvin.  Pressure   1.00000 Atm.
 Atom     1 has atomic number  6 and mass  12.00000

 Molecular mass:   189.09021 amu.
 Principal axes and moments of inertia in atomic units:
                           1         2         3
     Eigenvalues --  1156.760884560.832705191.48505
           X            0.99988  -0.01531   0.00021
           Y            0.01532   0.99978  -0.01424
           Z            0.00000   0.01424   0.99990
 This molecule is an asymmetric top.
 Rotational symmetry number  1.
 Warning -- assumption of classical behavior for rotation
           may cause significant error
 Rotational temperatures (Kelvin)      0.07488     0.01899     0.01668
 Rotational constants (GHZ):           1.56017     0.39570     0.34763
 Zero-point vibrational energy     529342.2 (Joules/Mol)
                                  126.51583 (Kcal/Mol)
 Warning -- explicit consideration of  18 degrees of freedom as
           vibrations may cause significant error
 Vibrational temperatures:     53.92    72.92   122.28   142.90   209.89
          (Kelvin)            235.34   316.02   341.60   429.65   490.09
                              534.77   594.34   669.61   705.75   720.80
                              784.85   822.84   861.75   894.80  1018.79
                             1090.02  1134.15  1176.05  1194.08  1241.16
                             1258.46  1300.54  1337.03  1344.25  1411.33
                             1462.47  1466.01  1484.54  1548.06  1674.73
                             1679.76  1684.44  1703.40  1715.37  1747.79
                             1758.67  1847.51  1896.20  1960.55  2001.35
                             2016.80  2039.41  2093.20  2128.91  2162.65
                             2168.61  2190.57  2233.60  2277.30  2294.74
                             2368.13  2457.58  2572.05  4377.18  4384.23
                             4424.60  4427.72  4476.51  4497.74  4537.68
                             4610.89  4614.34  4640.11  5195.13

 Zero-point correction=                           0.201616 (Hartree/Particle)
 Thermal correction to Energy=                    0.213844
 Thermal correction to Enthalpy=                  0.214788
 Thermal correction to Gibbs Free Energy=         0.161971
 Sum of electronic and zero-point Energies=           -626.989025
 Sum of electronic and thermal Energies=              -626.976797
 Sum of electronic and thermal Enthalpies=            -626.975852
 Sum of electronic and thermal Free Energies=         -627.028670

                     E (Thermal)             CV                S
                      KCal/Mol        Cal/Mol-Kelvin    Cal/Mol-Kelvin
 Total                  134.189             46.147            111.163
 Electronic               0.000              0.000              0.000
 Translational            0.889              2.981             41.617
 Rotational               0.889              2.981             31.683
 Vibrational            132.412             40.185             37.864
 Vibration     1          0.594              1.982              5.388
 Vibration     2          0.595              1.977              4.791
 Vibration     3          0.601              1.960              3.772
 Vibration     4          0.604              1.950              3.468
 Vibration     5          0.617              1.907              2.725
 Vibration     6          0.623              1.887              2.508
 Vibration     7          0.647              1.811              1.962
 Vibration     8          0.656              1.783              1.822
 Vibration     9          0.692              1.676              1.425
 Vibration    10          0.720              1.594              1.209
 Vibration    11          0.743              1.530              1.073
 Vibration    12          0.777              1.442              0.916
 Vibration    13          0.823              1.327              0.751
 Vibration    14          0.846              1.271              0.682
 Vibration    15          0.856              1.248              0.656
 Vibration    16          0.901              1.150              0.554
 Vibration    17          0.928              1.092              0.501
 Vibration    18          0.957              1.034              0.451

                           ! Non-Optimized Parameters !
 Normal termination of Gaussian 16 at Thu Dec 10 10:51:28 2020.

 ----------------------------------------------------------------------
 # B3LYP/6-311++G(d,p) empiricaldispersion=gd3bj scf=xqc pop=npa geom=c
 heck
 ----------------------------------------------------------------------

 --------------------------------------
 CID_70416209_JID_4859_Energie_neutraal
 --------------------------------------
 Structure from the checkpoint file:  "JID_4859.chk"
 Charge =  0 Multiplicity = 1

 SCF Done:  E(RB3LYP) =  -627.362612378     A.U. after   15 cycles
 Normal termination of Gaussian 16 at Thu Dec 10 10:55:18 2020.

 ----------------------------------------------------------------------
 # B3LYP/6-311++G(d,p) empiricaldispersion=gd3bj scf=xqc pop=npa geom=c
 heck
 ----------------------------------------------------------------------

 ------------------------------------
 CID_70416209_JID_4859_Energie_kation
 ------------------------------------
 Structure from the checkpoint file:  "JID_4859.chk"
 Charge =  1 Multiplicity = 2

 SCF Done:  E(UB3LYP) =  -627.053698497     A.U. after   26 cycles
 Normal termination of Gaussian 16 at Thu Dec 10 11:04:08 2020.
 Gaussian 16:  ES64L-G16RevA.03 25-Dec-2016

 ----------------------------------------------------------------------
 # B3LYP/6-311++G(d,p) empiricaldispersion=gd3bj scf=xqc pop=npa geom=c
 heck
 ----------------------------------------------------------------------

 -----------------------------------
 CID_70416209_JID_4859_Energie_anion
 -----------------------------------
 Structure from the checkpoint file:  "JID_4859.chk"
 Charge = -1 Multiplicity = 2

                         Standard orientation:
 ---------------------------------------------------------------------
 Center     Atomic      Atomic             Coordinates (Angstroms)
 Number     Number       Type             X           Y           Z
 ---------------------------------------------------------------------
      1          6           0       -2.675873    2.015738   -0.716785
      2          7           0       -3.153665    0.644206   -0.785770
      3          6           0       -2.844756   -0.385142    0.053079
      4          8           0       -3.301040   -1.511693   -0.107214
      5          6           0       -1.849942   -0.080453    1.178487
      6          6           0       -0.423692   -0.217407    0.692098
      7          6           0        0.471590    0.802165    0.812907
      8          6           0        1.812896    0.595130    0.330886
      9          7           0        2.826909    1.408639    0.337861
     10          6           0        3.893992    0.632372   -0.277951
     11          7           0        3.432506   -0.697892   -0.649146
     12          6           0        2.187250   -0.704949   -0.278555
     13          6           0        1.199618   -1.750477   -0.385993
     14          6           0       -0.047790   -1.494604    0.082905
     15          1           0       -3.088784    2.558212    0.143542
     16          1           0       -2.989264    2.535157   -1.624754
     17          1           0       -1.583564    2.052814   -0.665685
     18          1           0       -3.803913    0.390695   -1.518112
     19          1           0       -2.007325    0.913965    1.605930
     20          1           0       -2.051876   -0.823661    1.956160
     21          1           0        0.205136    1.750279    1.270238
     22          1           0        4.742106    0.549342    0.416930
     23          1           0        4.269395    1.156426   -1.168700
     24          1           0        1.464600   -2.702478   -0.833853
     25          1           0       -0.828204   -2.246107    0.008934
 ---------------------------------------------------------------------

 SCF Done:  E(UB3LYP) =  -627.405860931     A.U. after   21 cycles

 The electronic state is 2-A.
 Alpha  occ. eigenvalues --  -18.98009 -14.23975 -14.12377 -14.12359 -10.16485
 Alpha  occ. eigenvalues --  -10.11732 -10.06359 -10.05474 -10.03826 -10.03709
 Alpha  occ. eigenvalues --  -10.03707 -10.01814 -10.01575 -10.01332  -0.93165
 Alpha  occ. eigenvalues --   -0.82435  -0.81497  -0.69816  -0.69210  -0.63536
 Alpha  occ. eigenvalues --   -0.61559  -0.58263  -0.55273  -0.48771  -0.46708
 Alpha  occ. eigenvalues --   -0.42347  -0.42080  -0.40093  -0.37401  -0.35885
 Alpha  occ. eigenvalues --   -0.33427  -0.32196  -0.31835  -0.31281  -0.31225
 Alpha  occ. eigenvalues --   -0.30118  -0.29007  -0.27951  -0.27056  -0.22848
 Alpha  occ. eigenvalues --   -0.22371  -0.21664  -0.20696  -0.15834  -0.15732
 Alpha  occ. eigenvalues --   -0.15296  -0.13583  -0.12077  -0.10382  -0.07923
 Alpha  occ. eigenvalues --    0.01972
 Alpha virt. eigenvalues --    0.06622   0.08859   0.09663   0.10703   0.11135
 Alpha virt. eigenvalues --    0.11591   0.12406   0.12479   0.13154   0.13712
 Alpha virt. eigenvalues --    0.14739   0.15229   0.15553   0.15719   0.16190

  Beta  occ. eigenvalues --  -18.97994 -14.23965 -14.11839 -14.11819 -10.16466
  Beta  occ. eigenvalues --  -10.11732 -10.06371 -10.05543 -10.03873 -10.03758
  Beta  occ. eigenvalues --  -10.03544 -10.01709 -10.01383 -10.01121  -0.93138
  Beta  occ. eigenvalues --   -0.82412  -0.80854  -0.69369  -0.68295  -0.63311
  Beta  occ. eigenvalues --   -0.61514  -0.57776  -0.54999  -0.48592  -0.46232
  Beta  occ. eigenvalues --   -0.42011  -0.41733  -0.40076  -0.37336  -0.35814
  Beta  occ. eigenvalues --   -0.33245  -0.31927  -0.31624  -0.31199  -0.30327
  Beta  occ. eigenvalues --   -0.29886  -0.28880  -0.27799  -0.26899  -0.22518
  Beta  occ. eigenvalues --   -0.22175  -0.20689  -0.20300  -0.15711  -0.15236
  Beta  occ. eigenvalues --   -0.13771  -0.12224  -0.11584  -0.09775  -0.05594
  Beta virt. eigenvalues --    0.06605   0.08177   0.08846   0.09718   0.10736
  Beta virt. eigenvalues --    0.11262   0.11624   0.12419   0.12572   0.13230
  Beta virt. eigenvalues --    0.13735   0.14855   0.15249   0.15711   0.16046

 Mulliken charges and spin densities:
               1          2
     1  C   -0.434622   0.001409
     2  N   -0.270080   0.010055
     3  C   -0.016448   0.015159
     4  O   -0.349112   0.003093
     5  C   -0.263804  -0.006631
     6  C    0.890954   0.089615
     7  C   -0.459347   0.118174
     8  C   -0.219476   0.011003
     9  N   -0.186224   0.254952
    10  C   -0.148177  -0.072038
    11  N   -0.184021   0.253991
    12  C   -0.081296   0.018784
    13  C   -0.465223   0.149429
    14  C   -0.481853   0.040163
    15  H    0.154824   0.000035
    16  H    0.109662   0.004991
    17  H    0.222038  -0.007207
    18  H    0.290120   0.000115
    19  H    0.104948  -0.002186
    20  H    0.179418   0.017780
    21  H    0.101348  -0.012477
    22  H    0.117244   0.065931
    23  H    0.113064   0.066324
    24  H    0.117321  -0.011526
    25  H    0.158741  -0.008938
 Sum of Mulliken charges =  -1.00000   1.00000

 Dipole moment (field-independent basis, Debye):
    X=             -7.5481    Y=              3.4678    Z=             -0.3742  Tot=              8.3150
 Quadrupole moment (field-independent basis, Debye-Ang):
   XX=           -130.4578   YY=           -100.7758   ZZ=            -88.7992
   XY=            -13.9029   XZ=              4.5771   YZ=             -4.6876

 Summary of Natural Population Analysis:

                                       Natural Population
                Natural  -----------------------------------------------
    Atom  No    Charge         Core      Valence    Rydberg      Total
 -----------------------------------------------------------------------
      C    1   -0.18412      0.99966     2.17787    0.00659     3.18412
      N    2   -0.31904      0.99966     2.81064    0.00874     3.81904
      C    3    0.35342      0.99967     1.62382    0.02308     2.64658
      O    4   -0.33041      0.99988     3.32343    0.00710     4.33041
      C    5   -0.23757      0.99956     2.23059    0.00742     3.23757
      C    6    0.00663      0.99950     1.98480    0.00906     2.99337
      C    7   -0.07950      0.99945     2.07118    0.00886     3.07950
      C    8    0.06374      0.99953     1.92188    0.01484     2.93626
      N    9   -0.16359      0.99970     2.64803    0.01586     3.66359
      C   10   -0.03546      0.99966     2.02221    0.01358     3.03546
      N   11   -0.16039      0.99970     2.64486    0.01583     3.66039
      C   12    0.06082      0.99953     1.92512    0.01453     2.93918
      C   13   -0.06173      0.99952     2.05281    0.00939     3.06173
      C   14   -0.09070      0.99954     2.08218    0.00898     3.09070
      H   15    0.08692      0.00000     0.41200    0.00108     0.41308
      H   16    0.09396      0.00000     0.40524    0.00080     0.40604
      H   17    0.11064      0.00000     0.38800    0.00137     0.38936
      H   18    0.18810      0.00000     0.30918    0.00272     0.31190
      H   19    0.09973      0.00000     0.39915    0.00112     0.40027
      H   20    0.11170      0.00000     0.38693    0.00136     0.38830
      H   21    0.08867      0.00000     0.40927    0.00205     0.41133
      H   22    0.10456      0.00000     0.39419    0.00125     0.39544
      H   23    0.10413      0.00000     0.39463    0.00124     0.39587
      H   24    0.09151      0.00000     0.40655    0.00194     0.40849
      H   25    0.09794      0.00000     0.40057    0.00148     0.40206
 =======================================================================
   * Total *   -0.00000     13.99458    35.82514    0.18028    50.00000

 Normal termination of Gaussian 16 at Thu Dec 10 11:09:08 2020.
