 Gaussian 16, Revision A.03,

 -----------------------------------------------------------
 # opt freq B3LYP/6-31G(d) empiricaldispersion=gd3bj scf=xqc
 -----------------------------------------------------------

 -------------------------------
 CID_142028772_JID_5471_neutraal
 -------------------------------
 Symbolic Z-matrix:
 Charge =  0 Multiplicity = 1

 SCF Done:  E(RB3LYP) =  -581.249235465     A.U. after   14 cycles
 SCF Done:  E(RB3LYP) =  -581.253978042     A.U. after   12 cycles
 SCF Done:  E(RB3LYP) =  -581.256550279     A.U. after   12 cycles
 SCF Done:  E(RB3LYP) =  -581.257811610     A.U. after   13 cycles
 SCF Done:  E(RB3LYP) =  -581.258679963     A.U. after   12 cycles
 SCF Done:  E(RB3LYP) =  -581.259057990     A.U. after   12 cycles
 SCF Done:  E(RB3LYP) =  -581.259190302     A.U. after   12 cycles
 SCF Done:  E(RB3LYP) =  -581.259247098     A.U. after   11 cycles
 SCF Done:  E(RB3LYP) =  -581.259289611     A.U. after   10 cycles
 SCF Done:  E(RB3LYP) =  -581.259318521     A.U. after   10 cycles
 SCF Done:  E(RB3LYP) =  -581.259324659     A.U. after   10 cycles
 SCF Done:  E(RB3LYP) =  -581.259328409     A.U. after    9 cycles
 SCF Done:  E(RB3LYP) =  -581.259329080     A.U. after    8 cycles
 Optimization completed.
    -- Stationary point found.
 Normal termination of Gaussian 16 at Thu Dec 10 16:19:26 2020.

 --------------------------------------------------------------------
 #N Geom=AllCheck Guess=TCheck SCRF=Check GenChk RB3LYP/6-31G(d) Freq
 --------------------------------------------------------------------

 Structure from the checkpoint file:  "JID_5471.chk"
 -------------------------------
 CID_142028772_JID_5471_neutraal
 -------------------------------
 Charge =  0 Multiplicity = 1

 SCF Done:  E(RB3LYP) =  -581.259329080     A.U. after    1 cycles

  Exact polarizability: 203.932   9.735 154.205   9.469  -6.173  97.812
 Approx polarizability: 289.192  16.274 257.464  22.356 -22.331 167.954

                      1                      2                      3
                      A                      A                      A
 Frequencies --     37.7467                65.6432                90.7074
 Red. masses --      3.6787                 3.7638                 4.0394
 Frc consts  --      0.0031                 0.0096                 0.0196
 IR Inten    --      0.0300                 0.1211                 0.1301

                      4                      5                      6
                      A                      A                      A
 Frequencies --    135.9198               164.5899               189.0036
 Red. masses --      1.0727                 3.0664                 3.3800
 Frc consts  --      0.0117                 0.0489                 0.0711
 IR Inten    --      0.2929                 0.2515                 0.1341

                      7                      8                      9
                      A                      A                      A
 Frequencies --    194.9803               231.2727               245.7923
 Red. masses --      2.8473                 3.5146                 1.1000
 Frc consts  --      0.0638                 0.1108                 0.0392
 IR Inten    --      0.7233                 0.1985                 0.0894

                     10                     11                     12
                      A                      A                      A
 Frequencies --    289.7321               323.5782               358.4266
 Red. masses --      3.3905                 3.6723                 2.7227
 Frc consts  --      0.1677                 0.2265                 0.2061
 IR Inten    --      0.0565                 1.0612                 0.8039

                     13                     14                     15
                      A                      A                      A
 Frequencies --    377.8780               407.0256               459.6926
 Red. masses --      3.1018                 2.7835                 3.6586
 Frc consts  --      0.2610                 0.2717                 0.4555
 IR Inten    --      0.9517                 2.7360                 2.8396

                     16                     17                     18
                      A                      A                      A
 Frequencies --    470.1878               502.5703               520.5998
 Red. masses --      3.2256                 3.6533                 3.2574
 Frc consts  --      0.4201                 0.5437                 0.5202
 IR Inten    --      1.0140                 1.2514                 5.3651

                     19                     20                     21
                      A                      A                      A
 Frequencies --    561.9541               574.4309               677.3518
 Red. masses --      3.9146                 4.7130                 2.7372
 Frc consts  --      0.7283                 0.9163                 0.7399
 IR Inten    --      0.8357                 0.0868                18.3900

                     22                     23                     24
                      A                      A                      A
 Frequencies --    686.0374               742.4527               755.6201
 Red. masses --      4.4698                 2.5483                 1.7104
 Frc consts  --      1.2395                 0.8276                 0.5754
 IR Inten    --      3.5957                 5.2680                43.9449

                     25                     26                     27
                      A                      A                      A
 Frequencies --    774.3073               794.0680               813.0655
 Red. masses --      1.5037                 2.8901                 3.3102
 Frc consts  --      0.5312                 1.0737                 1.2893
 IR Inten    --     28.5829                 0.3714                 1.4389

                     28                     29                     30
                      A                      A                      A
 Frequencies --    822.6476               848.3181               874.2432
 Red. masses --      2.7669                 1.9354                 1.5721
 Frc consts  --      1.1033                 0.8206                 0.7080
 IR Inten    --      1.6065                 7.6612                 7.2154

                     31                     32                     33
                      A                      A                      A
 Frequencies --    885.7160               929.3670               945.7596
 Red. masses --      1.3476                 3.2232                 1.8358
 Frc consts  --      0.6229                 1.6402                 0.9675
 IR Inten    --      0.5929                10.7633                 0.5587

                     34                     35                     36
                      A                      A                      A
 Frequencies --    949.8868               975.9193               983.2979
 Red. masses --      1.7693                 1.6440                 1.2560
 Frc consts  --      0.9406                 0.9225                 0.7155
 IR Inten    --      0.4935                 1.1849                 0.0359

                     37                     38                     39
                      A                      A                      A
 Frequencies --    988.1759              1002.7400              1021.7774
 Red. masses --      2.3207                 1.2757                 1.5769
 Frc consts  --      1.3352                 0.7558                 0.9700
 IR Inten    --      4.3766                 0.2004                 1.4547

                     40                     41                     42
                      A                      A                      A
 Frequencies --   1046.5022              1058.5910              1076.2900
 Red. masses --      1.9037                 1.7156                 1.5286
 Frc consts  --      1.2284                 1.1327                 1.0433
 IR Inten    --      2.5509                 2.0510                 3.8359

                     43                     44                     45
                      A                      A                      A
 Frequencies --   1083.0529              1121.5741              1146.8375
 Red. masses --      2.1102                 2.2753                 1.6859
 Frc consts  --      1.4584                 1.6864                 1.3064
 IR Inten    --      3.0821                 2.3728                 3.2804

                     46                     47                     48
                      A                      A                      A
 Frequencies --   1162.6947              1195.8447              1226.2053
 Red. masses --      1.8320                 1.0952                 2.4011
 Frc consts  --      1.4592                 0.9228                 2.1271
 IR Inten    --      0.3504                 0.3208                 0.1598

                     49                     50                     51
                      A                      A                      A
 Frequencies --   1251.5764              1262.6909              1287.5451
 Red. masses --      1.2273                 1.1493                 2.3082
 Frc consts  --      1.1327                 1.0796                 2.2544
 IR Inten    --      0.1337                 0.6667                 0.6973

                     52                     53                     54
                      A                      A                      A
 Frequencies --   1317.4033              1344.4158              1364.6372
 Red. masses --      1.5690                 5.2288                 1.4371
 Frc consts  --      1.6044                 5.5682                 1.5767
 IR Inten    --      2.9039                 0.2767                 1.5265

                     55                     56                     57
                      A                      A                      A
 Frequencies --   1374.0255              1378.7624              1421.7611
 Red. masses --      1.2946                 1.4381                 1.2818
 Frc consts  --      1.4400                 1.6107                 1.5266
 IR Inten    --      3.9871                 0.6905                 2.1515

                     58                     59                     60
                      A                      A                      A
 Frequencies --   1440.0368              1445.8297              1487.9119
 Red. masses --      1.3886                 1.2376                 1.8643
 Frc consts  --      1.6966                 1.5243                 2.4318
 IR Inten    --      5.4407                 0.8598                 0.7867

                     61                     62                     63
                      A                      A                      A
 Frequencies --   1500.2719              1512.9210              1519.4313
 Red. masses --      1.8289                 1.0990                 1.0794
 Frc consts  --      2.4253                 1.4821                 1.4683
 IR Inten    --      2.0436                 8.6709                 5.5383

                     64                     65                     66
                      A                      A                      A
 Frequencies --   1521.5569              1531.6350              1537.9367
 Red. masses --      1.2649                 1.0627                 1.9871
 Frc consts  --      1.7253                 1.4688                 2.7692
 IR Inten    --     15.4802                 1.1083                17.3710

                     67                     68                     69
                      A                      A                      A
 Frequencies --   1599.4717              1632.1699              1662.9234
 Red. masses --      7.6549                 5.6701                 5.7521
 Frc consts  --     11.5383                 8.8996                 9.3718
 IR Inten    --      0.5548                 0.2861                 1.0748

                     70                     71                     72
                      A                      A                      A
 Frequencies --   1677.8914              1698.3197              3052.1821
 Red. masses --      6.8733                 4.9969                 1.0455
 Frc consts  --     11.4010                 8.4916                 5.7383
 IR Inten    --      0.3559                 1.7389                27.8514

                     73                     74                     75
                      A                      A                      A
 Frequencies --   3052.8621              3058.5062              3109.0682
 Red. masses --      1.0364                 1.0759                 1.0995
 Frc consts  --      5.6912                 5.9297                 6.2621
 IR Inten    --     21.3327                44.1299                14.8397

                     76                     77                     78
                      A                      A                      A
 Frequencies --   3115.3255              3128.6318              3144.5941
 Red. masses --      1.1030                 1.1031                 1.0832
 Frc consts  --      6.3072                 6.3618                 6.3108
 IR Inten    --     26.4350                22.8795                 1.9115

                     79                     80                     81
                      A                      A                      A
 Frequencies --   3153.7406              3155.8966              3167.6371
 Red. masses --      1.0990                 1.0854                 1.0896
 Frc consts  --      6.4403                 6.3691                 6.4415
 IR Inten    --     13.1880                 7.7986                24.5858

                     82                     83                     84
                      A                      A                      A
 Frequencies --   3170.8969              3174.9184              3177.9162
 Red. masses --      1.0930                 1.0863                 1.0945
 Frc consts  --      6.4747                 6.4513                 6.5126
 IR Inten    --     51.8923                 8.6399                22.9538

                     85                     86                     87
                      A                      A                      A
 Frequencies --   3185.7162              3196.6247              3208.6299
 Red. masses --      1.0877                 1.0923                 1.0975
 Frc consts  --      6.5039                 6.5761                 6.6572
 IR Inten    --      6.4192                33.0760                28.9387

 - Thermochemistry -
 -------------------
 Temperature   298.150 Kelvin.  Pressure   1.00000 Atm.
 Atom     1 has atomic number  6 and mass  12.00000

 Molecular mass:   196.12520 amu.
 Principal axes and moments of inertia in atomic units:
                           1         2         3
     Eigenvalues --  1421.119184574.520345413.47432
           X            0.99993  -0.01205  -0.00138
           Y            0.01206   0.99990   0.00721
           Z            0.00129  -0.00723   0.99997
 This molecule is an asymmetric top.
 Rotational symmetry number  1.
 Warning -- assumption of classical behavior for rotation
           may cause significant error
 Rotational temperatures (Kelvin)      0.06095     0.01893     0.01600
 Rotational constants (GHZ):           1.26994     0.39452     0.33338
 Zero-point vibrational energy     698705.0 (Joules/Mol)
                                  166.99449 (Kcal/Mol)
 Warning -- explicit consideration of  20 degrees of freedom as
           vibrations may cause significant error
 Vibrational temperatures:     54.31    94.45   130.51   195.56   236.81
          (Kelvin)            271.93   280.53   332.75   353.64   416.86
                              465.56   515.70   543.68   585.62   661.40
                              676.50   723.09   749.03   808.53   826.48
                              974.56   987.05  1068.22  1087.17  1114.06
                             1142.49  1169.82  1183.61  1220.54  1257.84
                             1274.35  1337.15  1360.74  1366.68  1404.13
                             1414.75  1421.76  1442.72  1470.11  1505.68
                             1523.08  1548.54  1558.27  1613.70  1650.04
                             1672.86  1720.55  1764.24  1800.74  1816.73
                             1852.49  1895.45  1934.31  1963.41  1976.92
                             1983.73  2045.60  2071.89  2080.23  2140.77
                             2158.56  2176.76  2186.12  2189.18  2203.68
                             2212.75  2301.28  2348.33  2392.58  2414.11
                             2443.50  4391.41  4392.39  4400.51  4473.26
                             4482.26  4501.40  4524.37  4537.53  4540.63
                             4557.52  4562.21  4568.00  4572.31  4583.54
                             4599.23  4616.50

 Zero-point correction=                           0.266123 (Hartree/Particle)
 Thermal correction to Energy=                    0.279521
 Thermal correction to Enthalpy=                  0.280465
 Thermal correction to Gibbs Free Energy=         0.226204
 Sum of electronic and zero-point Energies=           -580.993206
 Sum of electronic and thermal Energies=              -580.979809
 Sum of electronic and thermal Enthalpies=            -580.978864
 Sum of electronic and thermal Free Energies=         -581.033125

                     E (Thermal)             CV                S
                      KCal/Mol        Cal/Mol-Kelvin    Cal/Mol-Kelvin
 Total                  175.402             53.266            114.201
 Electronic               0.000              0.000              0.000
 Translational            0.889              2.981             41.726
 Rotational               0.889              2.981             31.932
 Vibrational            173.624             47.304             40.543
 Vibration     1          0.594              1.982              5.374
 Vibration     2          0.597              1.971              4.280
 Vibration     3          0.602              1.956              3.645
 Vibration     4          0.614              1.917              2.861
 Vibration     5          0.623              1.886              2.496
 Vibration     6          0.633              1.855              2.238
 Vibration     7          0.636              1.847              2.180
 Vibration     8          0.653              1.793              1.869
 Vibration     9          0.660              1.770              1.761
 Vibration    10          0.686              1.693              1.476
 Vibration    11          0.708              1.628              1.292
 Vibration    12          0.733              1.558              1.129
 Vibration    13          0.748              1.517              1.048
 Vibration    14          0.772              1.455              0.937
 Vibration    15          0.818              1.339              0.767
 Vibration    16          0.827              1.316              0.737
 Vibration    17          0.858              1.244              0.652
 Vibration    18          0.876              1.204              0.609
 Vibration    19          0.918              1.114              0.520
 Vibration    20          0.931              1.087              0.496

                           ! Non-Optimized Parameters !
 Normal termination of Gaussian 16 at Thu Dec 10 16:30:17 2020.

 ----------------------------------------------------------------------
 # B3LYP/6-311++G(d,p) empiricaldispersion=gd3bj scf=xqc pop=npa geom=c
 heck
 ----------------------------------------------------------------------

 ---------------------------------------
 CID_142028772_JID_5471_Energie_neutraal
 ---------------------------------------
 Structure from the checkpoint file:  "JID_5471.chk"
 Charge =  0 Multiplicity = 1

 SCF Done:  E(RB3LYP) =  -581.408124118     A.U. after   15 cycles
 Normal termination of Gaussian 16 at Thu Dec 10 16:34:36 2020.

 ----------------------------------------------------------------------
 # B3LYP/6-311++G(d,p) empiricaldispersion=gd3bj scf=xqc pop=npa geom=c
 heck
 ----------------------------------------------------------------------

 -------------------------------------
 CID_142028772_JID_5471_Energie_kation
 -------------------------------------
 Structure from the checkpoint file:  "JID_5471.chk"
 Charge =  1 Multiplicity = 2

 SCF Done:  E(UB3LYP) =  -581.124872369     A.U. after   25 cycles
 Normal termination of Gaussian 16 at Thu Dec 10 16:45:39 2020.
 Gaussian 16:  ES64L-G16RevA.03 25-Dec-2016

 ----------------------------------------------------------------------
 # B3LYP/6-311++G(d,p) empiricaldispersion=gd3bj scf=xqc pop=npa geom=c
 heck
 ----------------------------------------------------------------------

 ------------------------------------
 CID_142028772_JID_5471_Energie_anion
 ------------------------------------
 Structure from the checkpoint file:  "JID_5471.chk"
 Charge = -1 Multiplicity = 2

                         Standard orientation:
 ---------------------------------------------------------------------
 Center     Atomic      Atomic             Coordinates (Angstroms)
 Number     Number       Type             X           Y           Z
 ---------------------------------------------------------------------
      1          6           0       -3.022658    1.822943    0.510988
      2          6           0       -2.530854    1.065397   -0.737824
      3          6           0       -3.175602   -0.294601   -0.892574
      4          6           0       -3.005228   -1.322446   -0.033076
      5          6           0       -2.060128   -1.379743    1.057307
      6          6           0       -0.872255   -0.720452    1.126777
      7          6           0       -0.304818    0.159103    0.118404
      8          6           0       -1.029922    0.888724   -0.766053
      9          6           0        1.187667    0.238563    0.063463
     10          6           0        1.813493    1.475113    0.266987
     11          6           0        3.201662    1.598833    0.229345
     12          6           0        3.982635    0.471898   -0.018215
     13          6           0        3.367475   -0.761394   -0.234177
     14          6           0        1.976385   -0.902971   -0.197907
     15          6           0        1.347133   -2.247299   -0.478009
     16          1           0       -4.109848    1.954834    0.473125
     17          1           0       -2.553374    2.811920    0.562418
     18          1           0       -2.774531    1.277745    1.424266
     19          1           0       -2.806510    1.665211   -1.612387
     20          1           0       -3.848264   -0.433475   -1.737254
     21          1           0       -3.617223   -2.212405   -0.176955
     22          1           0       -2.276482   -2.098083    1.846457
     23          1           0       -0.217776   -0.953868    1.964446
     24          1           0       -0.484828    1.413931   -1.548107
     25          1           0        1.192234    2.343173    0.468488
     26          1           0        3.666769    2.566740    0.394112
     27          1           0        5.065884    0.550300   -0.050989
     28          1           0        3.978225   -1.635527   -0.447545
     29          1           0        0.950779   -2.712317    0.431925
     30          1           0        0.505274   -2.153799   -1.172044
     31          1           0        2.079777   -2.934378   -0.912570
 ---------------------------------------------------------------------

 SCF Done:  E(UB3LYP) =  -581.402484166     A.U. after   33 cycles
 SCF Done:  E(UB3LYP) =  -581.402484166     a.u. after    1 cycles

 The electronic state is 2-A.
 Alpha  occ. eigenvalues --  -10.05836 -10.05489 -10.05277 -10.05263 -10.05156
 Alpha  occ. eigenvalues --  -10.04831 -10.04492 -10.04313 -10.02992 -10.02659
 Alpha  occ. eigenvalues --  -10.02248 -10.01600 -10.01224 -10.01131 -10.01116
 Alpha  occ. eigenvalues --   -0.74090  -0.69821  -0.65649  -0.64444  -0.63075
 Alpha  occ. eigenvalues --   -0.59986  -0.56830  -0.55740  -0.50279  -0.48987
 Alpha  occ. eigenvalues --   -0.47061  -0.45641  -0.39463  -0.37665  -0.36644
 Alpha  occ. eigenvalues --   -0.35468  -0.34384  -0.32270  -0.30634  -0.30000
 Alpha  occ. eigenvalues --   -0.29547  -0.29213  -0.28305  -0.27716  -0.26837
 Alpha  occ. eigenvalues --   -0.25455  -0.23936  -0.23848  -0.22604  -0.21969
 Alpha  occ. eigenvalues --   -0.21560  -0.20193  -0.18324  -0.16741  -0.13360
 Alpha  occ. eigenvalues --   -0.12771  -0.10946  -0.07926   0.05388
 Alpha virt. eigenvalues --    0.07084   0.08509   0.08543   0.09764   0.09844
 Alpha virt. eigenvalues --    0.09967   0.10482   0.10801   0.11428   0.11922
 Alpha virt. eigenvalues --    0.12205   0.12658   0.13222   0.13777   0.14581

  Beta  occ. eigenvalues --  -10.05794 -10.05485 -10.05263 -10.05248 -10.05107
  Beta  occ. eigenvalues --  -10.04837 -10.04495 -10.04352 -10.02982 -10.02716
  Beta  occ. eigenvalues --  -10.02328 -10.01212 -10.01009 -10.00915 -10.00718
  Beta  occ. eigenvalues --   -0.74015  -0.69450  -0.65517  -0.64334  -0.62740
  Beta  occ. eigenvalues --   -0.59720  -0.56673  -0.55489  -0.50117  -0.48553
  Beta  occ. eigenvalues --   -0.46748  -0.45515  -0.39352  -0.37347  -0.36438
  Beta  occ. eigenvalues --   -0.35299  -0.34312  -0.32187  -0.30534  -0.29877
  Beta  occ. eigenvalues --   -0.29454  -0.29140  -0.28208  -0.27420  -0.26792
  Beta  occ. eigenvalues --   -0.25335  -0.23800  -0.23634  -0.22533  -0.21729
  Beta  occ. eigenvalues --   -0.21400  -0.19942  -0.18069  -0.16055  -0.13217
  Beta  occ. eigenvalues --   -0.12461  -0.09937  -0.06263
  Beta virt. eigenvalues --    0.07502   0.08505   0.08681   0.09746   0.09908
  Beta virt. eigenvalues --    0.10040   0.10191   0.10733   0.11344   0.11676
  Beta virt. eigenvalues --    0.12096   0.12202   0.12692   0.13072   0.13711

 Mulliken charges and spin densities:
               1          2
     1  C   -0.728518  -0.031535
     2  C    0.267314   0.013135
     3  C   -0.337699   0.227713
     4  C   -0.427323  -0.009314
     5  C   -0.329163   0.205161
     6  C   -0.885958   0.105775
     7  C    1.416129  -0.008076
     8  C   -0.700757   0.278529
     9  C    0.285188   0.067275
    10  C   -0.460443   0.143455
    11  C    0.108809  -0.467733
    12  C    0.186354  -0.491000
    13  C   -0.482930   0.081642
    14  C    0.318191   0.089285
    15  C   -0.454036  -0.128055
    16  H    0.110961   0.002013
    17  H    0.088408   0.013880
    18  H    0.171566   0.002773
    19  H    0.133208   0.005732
    20  H    0.131272  -0.023230
    21  H    0.095216   0.019453
    22  H    0.117378  -0.005752
    23  H    0.141070  -0.013285
    24  H    0.149737  -0.012111
    25  H    0.165641   0.003166
    26  H   -0.156553   0.296301
    27  H   -0.346559   0.488091
    28  H    0.033595   0.082820
    29  H    0.174402  -0.008242
    30  H    0.165464  -0.006485
    31  H    0.050039   0.078619
 Sum of Mulliken charges =  -1.00000   1.00000

 Dipole moment (field-independent basis, Debye):
    X=             -0.8073    Y=             -0.6108    Z=             -0.4082  Tot=              1.0916
 Quadrupole moment (field-independent basis, Debye-Ang):
   XX=           -151.0194   YY=           -108.9294   ZZ=           -105.8208
   XY=             -7.6582   XZ=              2.4636   YZ=             -1.1498

 Summary of Natural Population Analysis:

                                       Natural Population
                Natural  -----------------------------------------------
    Atom  No    Charge         Core      Valence    Rydberg      Total
 -----------------------------------------------------------------------
      C    1   -0.27667      0.99965     2.27259    0.00443     3.27667
      C    2   -0.15019      0.99959     2.14124    0.00937     3.15019
      C    3   -0.00301      0.99954     1.99335    0.01011     3.00301
      C    4   -0.14515      0.99954     2.13564    0.00997     3.14515
      C    5   -0.07805      0.99954     2.06881    0.00970     3.07805
      C    6   -0.07639      0.99951     2.06821    0.00867     3.07639
      C    7   -0.06762      0.99945     2.05645    0.01172     3.06762
      C    8    0.01123      0.99949     1.97841    0.01087     2.98877
      C    9   -0.00591      0.99945     1.99450    0.01197     3.00591
      C   10   -0.09760      0.99952     2.08845    0.00963     3.09760
      C   11   -0.10292      0.99956     2.09289    0.01046     3.10292
      C   12   -0.11263      0.99957     2.10264    0.01043     3.11263
      C   13   -0.10446      0.99952     2.09472    0.01023     3.10446
      C   14   -0.00682      0.99947     1.99800    0.00935     3.00682
      C   15   -0.29406      0.99964     2.29016    0.00426     3.29406
      H   16    0.08975      0.00000     0.40932    0.00093     0.41025
      H   17    0.09106      0.00000     0.40808    0.00086     0.40894
      H   18    0.10574      0.00000     0.39336    0.00090     0.39426
      H   19    0.09042      0.00000     0.40756    0.00202     0.40958
      H   20    0.08197      0.00000     0.41697    0.00106     0.41803
      H   21    0.09044      0.00000     0.40767    0.00189     0.40956
      H   22    0.08518      0.00000     0.41315    0.00167     0.41482
      H   23    0.08839      0.00000     0.41019    0.00143     0.41161
      H   24    0.08630      0.00000     0.41256    0.00114     0.41370
      H   25    0.10166      0.00000     0.39701    0.00133     0.39834
      H   26    0.09609      0.00000     0.40292    0.00099     0.40391
      H   27    0.09643      0.00000     0.40245    0.00112     0.40357
      H   28    0.09371      0.00000     0.40536    0.00093     0.40629
      H   29    0.10827      0.00000     0.39072    0.00101     0.39173
      H   30    0.11175      0.00000     0.38737    0.00088     0.38825
      H   31    0.09309      0.00000     0.40597    0.00093     0.40691
 =======================================================================
   * Total *   -0.00000     14.99304    37.84671    0.16024    53.00000

 Normal termination of Gaussian 16 at Thu Dec 10 16:59:26 2020.
