 Gaussian 16, Revision A.03,

 -----------------------------------------------------------
 # opt freq B3LYP/6-31G(d) empiricaldispersion=gd3bj scf=xqc
 -----------------------------------------------------------

 --------------------------------
 CID_106337746_JID_10528_neutraal
 --------------------------------
 Symbolic Z-matrix:
 Charge =  0 Multiplicity = 1

 SCF Done:  E(RB3LYP) =  -1365.23015273     A.U. after   16 cycles
 SCF Done:  E(RB3LYP) =  -1365.24019244     A.U. after   15 cycles
 SCF Done:  E(RB3LYP) =  -1365.23789845     A.U. after   15 cycles
 SCF Done:  E(RB3LYP) =  -1365.24268945     A.U. after   15 cycles
 SCF Done:  E(RB3LYP) =  -1365.24658252     A.U. after   14 cycles
 SCF Done:  E(RB3LYP) =  -1365.24776326     A.U. after   14 cycles
 SCF Done:  E(RB3LYP) =  -1365.24829754     A.U. after   14 cycles
 SCF Done:  E(RB3LYP) =  -1365.24830429     A.U. after   13 cycles
 SCF Done:  E(RB3LYP) =  -1365.24850366     A.U. after   12 cycles
 SCF Done:  E(RB3LYP) =  -1365.24854953     A.U. after   12 cycles
 SCF Done:  E(RB3LYP) =  -1365.24890861     A.U. after   10 cycles
 SCF Done:  E(RB3LYP) =  -1365.24890958     A.U. after    9 cycles
 SCF Done:  E(RB3LYP) =  -1365.24891040     A.U. after   10 cycles
 SCF Done:  E(RB3LYP) =  -1365.24891080     A.U. after    9 cycles
 SCF Done:  E(RB3LYP) =  -1365.24891095     A.U. after    8 cycles
 SCF Done:  E(RB3LYP) =  -1365.24891098     A.U. after    7 cycles
 Optimization completed.
    -- Stationary point found.
 Normal termination of Gaussian 16 at Sat Dec 12 16:04:40 2020.

 --------------------------------------------------------------------
 #N Geom=AllCheck Guess=TCheck SCRF=Check GenChk RB3LYP/6-31G(d) Freq
 --------------------------------------------------------------------

 Structure from the checkpoint file:  "JID_10528.chk"
 --------------------------------
 CID_106337746_JID_10528_neutraal
 --------------------------------
 Charge =  0 Multiplicity = 1

 SCF Done:  E(RB3LYP) =  -1365.24891098     A.U. after    1 cycles

  Exact polarizability: 224.297  -5.442 178.392   7.409  -1.382 118.479
 Approx polarizability: 302.447  -7.508 291.875  17.025 -15.431 191.505

                      1                      2                      3
                      A                      A                      A
 Frequencies --     14.7692                23.2870                39.7730
 Red. masses --      5.3586                 4.1918                 5.5603
 Frc consts  --      0.0007                 0.0013                 0.0052
 IR Inten    --      0.2293                 1.7013                 3.2164

                      4                      5                      6
                      A                      A                      A
 Frequencies --     54.4329                70.7067                77.3212
 Red. masses --      4.4168                 5.3532                 2.6210
 Frc consts  --      0.0077                 0.0158                 0.0092
 IR Inten    --      0.4133                 0.4374                 0.1894

                      7                      8                      9
                      A                      A                      A
 Frequencies --     96.6994               110.1202               123.2672
 Red. masses --      3.4324                 3.1667                 3.3721
 Frc consts  --      0.0189                 0.0226                 0.0302
 IR Inten    --      3.2944                 1.3110                 2.8682

                     10                     11                     12
                      A                      A                      A
 Frequencies --    127.2979               158.5059               169.6882
 Red. masses --      1.4023                 2.4952                 2.6703
 Frc consts  --      0.0134                 0.0369                 0.0453
 IR Inten    --      1.3227                 0.4528                 4.6141

                     13                     14                     15
                      A                      A                      A
 Frequencies --    174.9369               200.0697               215.0061
 Red. masses --      4.7119                 1.9073                 4.5284
 Frc consts  --      0.0850                 0.0450                 0.1233
 IR Inten    --      0.5411                 2.0676                 2.7551

                     16                     17                     18
                      A                      A                      A
 Frequencies --    220.2006               233.2066               256.4128
 Red. masses --      3.9016                 1.0504                 2.8730
 Frc consts  --      0.1115                 0.0337                 0.1113
 IR Inten    --      3.0481                 0.0591                 6.4789

                     19                     20                     21
                      A                      A                      A
 Frequencies --    263.7587               272.9754               285.8364
 Red. masses --      1.2567                 3.9159                 3.3422
 Frc consts  --      0.0515                 0.1719                 0.1609
 IR Inten    --      1.2339                 3.8367                 4.3482

                     22                     23                     24
                      A                      A                      A
 Frequencies --    314.0209               336.1814               360.6408
 Red. masses --      3.9602                 3.6327                 2.7877
 Frc consts  --      0.2301                 0.2419                 0.2136
 IR Inten    --      3.9912                 4.7778                 5.1701

                     25                     26                     27
                      A                      A                      A
 Frequencies --    385.8106               403.7028               431.1932
 Red. masses --      4.1787                 3.1716                 4.6099
 Frc consts  --      0.3665                 0.3045                 0.5050
 IR Inten    --      0.5423                 8.9013                 1.1178

                     28                     29                     30
                      A                      A                      A
 Frequencies --    443.7738               451.4214               461.3979
 Red. masses --      3.9807                 4.5887                 2.1948
 Frc consts  --      0.4619                 0.5509                 0.2753
 IR Inten    --     10.5546                15.3427                47.9833

                     31                     32                     33
                      A                      A                      A
 Frequencies --    490.9574               524.7602               541.0425
 Red. masses --      4.6996                 2.6983                 2.5412
 Frc consts  --      0.6674                 0.4378                 0.4383
 IR Inten    --     15.4445                21.6573                56.3350

                     34                     35                     36
                      A                      A                      A
 Frequencies --    589.4593               638.9560               652.2791
 Red. masses --      3.4958                 4.0636                 4.7165
 Frc consts  --      0.7157                 0.9775                 1.1823
 IR Inten    --     14.0863                86.4770                 0.4685

                     37                     38                     39
                      A                      A                      A
 Frequencies --    682.4877               694.9260               727.1170
 Red. masses --      5.7919                 4.0686                 7.5312
 Frc consts  --      1.5895                 1.1576                 2.3460
 IR Inten    --      2.8927                28.6089                 1.2467

                     40                     41                     42
                      A                      A                      A
 Frequencies --    739.5221               779.5934               830.8558
 Red. masses --      5.4385                11.1406                 6.0039
 Frc consts  --      1.7524                 3.9893                 2.4419
 IR Inten    --     54.8694                12.1108                17.3465

                     43                     44                     45
                      A                      A                      A
 Frequencies --    869.2257               883.4352               895.9155
 Red. masses --      3.1595                 1.2643                 2.4602
 Frc consts  --      1.4065                 0.5813                 1.1635
 IR Inten    --     32.2728                78.7499                16.0244

                     46                     47                     48
                      A                      A                      A
 Frequencies --    936.5452               948.5581               982.1428
 Red. masses --      2.3351                 1.1714                 1.4721
 Frc consts  --      1.2067                 0.6210                 0.8366
 IR Inten    --     23.3673                 5.4547                 0.3797

                     49                     50                     51
                      A                      A                      A
 Frequencies --    997.3353              1023.7874              1047.5705
 Red. masses --      2.4450                 2.7862                 3.5959
 Frc consts  --      1.4329                 1.7206                 2.3250
 IR Inten    --      3.1711                29.9477                51.6447

                     52                     53                     54
                      A                      A                      A
 Frequencies --   1057.0884              1097.7005              1120.0799
 Red. masses --      2.3429                 2.4291                 5.0107
 Frc consts  --      1.5425                 1.7245                 3.7038
 IR Inten    --     25.9259                10.7521                90.8806

                     55                     56                     57
                      A                      A                      A
 Frequencies --   1127.8962              1142.1769              1151.0620
 Red. masses --      2.1639                 2.3629                 1.7343
 Frc consts  --      1.6219                 1.8162                 1.3538
 IR Inten    --     89.6219                 7.3734                30.3280

                     58                     59                     60
                      A                      A                      A
 Frequencies --   1158.7781              1160.9373              1164.4201
 Red. masses --      1.2966                 2.5695                 1.3296
 Frc consts  --      1.0258                 2.0404                 1.0622
 IR Inten    --      4.9022                72.2956                 1.7658

                     61                     62                     63
                      A                      A                      A
 Frequencies --   1194.1142              1212.1407              1278.6516
 Red. masses --      1.2834                 1.9206                 2.9340
 Frc consts  --      1.0782                 1.6626                 2.8263
 IR Inten    --     10.4977                 8.0612                47.8139

                     64                     65                     66
                      A                      A                      A
 Frequencies --   1284.3024              1302.5647              1322.7864
 Red. masses --      1.5601                 4.1156                 3.9024
 Frc consts  --      1.5161                 4.1141                 4.0231
 IR Inten    --      8.3468                 5.1871               138.1631

                     67                     68                     69
                      A                      A                      A
 Frequencies --   1338.7353              1346.9784              1350.8946
 Red. masses --      1.8021                 1.3851                 1.5018
 Frc consts  --      1.9029                 1.4807                 1.6147
 IR Inten    --      7.5429                25.2704                 6.2282

                     70                     71                     72
                      A                      A                      A
 Frequencies --   1410.2016              1418.7806              1420.4109
 Red. masses --      1.3241                 2.8600                 1.6393
 Frc consts  --      1.5514                 3.3919                 1.9486
 IR Inten    --     53.5463               258.4741                53.2902

                     73                     74                     75
                      A                      A                      A
 Frequencies --   1435.6449              1444.3781              1446.4136
 Red. masses --      1.3118                 1.3314                 1.7120
 Frc consts  --      1.5930                 1.6365                 2.1103
 IR Inten    --     53.8495                 9.3141                 6.9699

                     76                     77                     78
                      A                      A                      A
 Frequencies --   1465.6921              1469.6394              1474.1839
 Red. masses --      3.2315                 1.1362                 1.1136
 Frc consts  --      4.0901                 1.4458                 1.4259
 IR Inten    --     81.5394                 3.3485                 2.7656

                     79                     80                     81
                      A                      A                      A
 Frequencies --   1486.2043              1500.1637              1516.5023
 Red. masses --      1.7753                 1.2453                 1.0954
 Frc consts  --      2.3104                 1.6511                 1.4843
 IR Inten    --     66.4143                 8.0664                 7.3679

                     82                     83                     84
                      A                      A                      A
 Frequencies --   1518.0424              1518.4638              1520.4358
 Red. masses --      1.0588                 1.0574                 1.0506
 Frc consts  --      1.4376                 1.4365                 1.4310
 IR Inten    --      2.8474                11.4231                 3.9340

                     85                     86                     87
                      A                      A                      A
 Frequencies --   1531.0902              1533.7370              1540.3572
 Red. masses --      1.1431                 1.2144                 1.1836
 Frc consts  --      1.5789                 1.6831                 1.6547
 IR Inten    --      0.7136                24.0083                 3.5774

                     88                     89                     90
                      A                      A                      A
 Frequencies --   1545.1286              1549.6693              1570.4247
 Red. masses --      1.0446                 1.8570                 3.2676
 Frc consts  --      1.4694                 2.6274                 4.7480
 IR Inten    --     10.8767                 8.9883               136.9724

                     91                     92                     93
                      A                      A                      A
 Frequencies --   1597.4310              1652.9960              3048.6029
 Red. masses --      2.9422                 5.7095                 1.0422
 Frc consts  --      4.4235                 9.1916                 5.7071
 IR Inten    --    104.2763               610.2590                45.8758

                     94                     95                     96
                      A                      A                      A
 Frequencies --   3051.3210              3059.5283              3059.8474
 Red. masses --      1.0365                 1.0356                 1.0391
 Frc consts  --      5.6861                 5.7115                 5.7320
 IR Inten    --     22.9212                35.5018                39.2614

                     97                     98                     99
                      A                      A                      A
 Frequencies --   3071.6316              3078.6138              3101.4626
 Red. masses --      1.0730                 1.0832                 1.0625
 Frc consts  --      5.9646                 6.0486                 6.0216
 IR Inten    --     19.6611                 4.6547                 2.0831

                    100                    101                    102
                      A                      A                      A
 Frequencies --   3116.7376              3117.3531              3127.4764
 Red. masses --      1.0980                 1.1028                 1.1028
 Frc consts  --      6.2845                 6.3141                 6.3553
 IR Inten    --     11.4005                18.2644                39.4140

                    103                    104                    105
                      A                      A                      A
 Frequencies --   3134.6202              3135.4838              3147.0934
 Red. masses --      1.1007                 1.1018                 1.1008
 Frc consts  --      6.3723                 6.3822                 6.4237
 IR Inten    --     14.9680                31.2339                20.2058

                    106                    107                    108
                      A                      A                      A
 Frequencies --   3172.1409              3183.3377              3187.3076
 Red. masses --      1.1033                 1.1024                 1.1007
 Frc consts  --      6.5412                 6.5820                 6.5884
 IR Inten    --      0.2555                 3.2690                 1.4038

                    109                    110                    111
                      A                      A                      A
 Frequencies --   3194.3432              3482.6273              3521.2217
 Red. masses --      1.0927                 1.0744                 1.0761
 Frc consts  --      6.5690                 7.6775                 7.8609
 IR Inten    --      0.6405                14.4442               287.8917

 - Thermochemistry -
 -------------------
 Temperature   298.150 Kelvin.  Pressure   1.00000 Atm.
 Atom     1 has atomic number  6 and mass  12.00000

 Molecular mass:   305.11578 amu.
 Principal axes and moments of inertia in atomic units:
                           1         2         3
     Eigenvalues --  2795.95247********************
           X            0.99999  -0.00423  -0.00158
           Y            0.00426   0.99982   0.01861
           Z            0.00150  -0.01862   0.99983
 This molecule is an asymmetric top.
 Rotational symmetry number  1.
 Warning -- assumption of classical behavior for rotation
           may cause significant error
 Rotational temperatures (Kelvin)      0.03098     0.00755     0.00653
 Rotational constants (GHZ):           0.64548     0.15742     0.13604
 Zero-point vibrational energy     835118.7 (Joules/Mol)
                                  199.59815 (Kcal/Mol)
 Warning -- explicit consideration of  34 degrees of freedom as
           vibrations may cause significant error
 Vibrational temperatures:     21.25    33.50    57.22    78.32   101.73
          (Kelvin)            111.25   139.13   158.44   177.35   183.15
                              228.05   244.14   251.70   287.86   309.35
                              316.82   335.53   368.92   379.49   392.75
                              411.25   451.81   483.69   518.88   555.10
                              580.84   620.39   638.49   649.49   663.85
                              706.38   755.01   778.44   848.10   919.32
                              938.48   981.95   999.84  1046.16  1064.01
                             1121.66  1195.42  1250.62  1271.07  1289.02
                             1347.48  1364.76  1413.08  1434.94  1473.00
                             1507.22  1520.91  1579.35  1611.55  1622.79
                             1643.34  1656.12  1667.22  1670.33  1675.34
                             1718.06  1744.00  1839.69  1847.82  1874.10
                             1903.19  1926.14  1938.00  1943.64  2028.97
                             2041.31  2043.65  2065.57  2078.14  2081.07
                             2108.80  2114.48  2121.02  2138.32  2158.40
                             2181.91  2184.12  2184.73  2187.57  2202.90
                             2206.71  2216.23  2223.10  2229.63  2259.49
                             2298.35  2378.29  4386.26  4390.17  4401.98
                             4402.44  4419.39  4429.44  4462.31  4484.29
                             4485.18  4499.74  4510.02  4511.26  4527.97
                             4564.00  4580.11  4585.82  4595.95  5010.72
                             5066.25

 Zero-point correction=                           0.318080 (Hartree/Particle)
 Thermal correction to Energy=                    0.339929
 Thermal correction to Enthalpy=                  0.340873
 Thermal correction to Gibbs Free Energy=         0.265236
 Sum of electronic and zero-point Energies=          -1364.930831
 Sum of electronic and thermal Energies=             -1364.908982
 Sum of electronic and thermal Enthalpies=           -1364.908038
 Sum of electronic and thermal Free Energies=        -1364.983675

                     E (Thermal)             CV                S
                      KCal/Mol        Cal/Mol-Kelvin    Cal/Mol-Kelvin
 Total                  213.309             79.047            159.192
 Electronic               0.000              0.000              0.000
 Translational            0.889              2.981             43.043
 Rotational               0.889              2.981             34.408
 Vibrational            211.531             73.085             81.741
 Vibration     1          0.593              1.986              7.236
 Vibration     2          0.593              1.985              6.332
 Vibration     3          0.594              1.981              5.270
 Vibration     4          0.596              1.976              4.649
 Vibration     5          0.598              1.968              4.134
 Vibration     6          0.599              1.964              3.958
 Vibration     7          0.603              1.952              3.520
 Vibration     8          0.606              1.941              3.267
 Vibration     9          0.610              1.930              3.048
 Vibration    10          0.611              1.926              2.986
 Vibration    11          0.621              1.893              2.568
 Vibration    12          0.625              1.880              2.439
 Vibration    13          0.627              1.873              2.382
 Vibration    14          0.638              1.840              2.132
 Vibration    15          0.645              1.818              2.001
 Vibration    16          0.647              1.810              1.957
 Vibration    17          0.654              1.790              1.854
 Vibration    18          0.666              1.752              1.686
 Vibration    19          0.670              1.739              1.637
 Vibration    20          0.676              1.723              1.577
 Vibration    21          0.684              1.700              1.498
 Vibration    22          0.702              1.647              1.341
 Vibration    23          0.717              1.603              1.230
 Vibration    24          0.735              1.553              1.119
 Vibration    25          0.754              1.500              1.016
 Vibration    26          0.769              1.462              0.949
 Vibration    27          0.792              1.402              0.855
 Vibration    28          0.803              1.375              0.815
 Vibration    29          0.810              1.358              0.791
 Vibration    30          0.819              1.336              0.762
 Vibration    31          0.847              1.270              0.681
 Vibration    32          0.880              1.195              0.599
 Vibration    33          0.896              1.159              0.563
 Vibration    34          0.947              1.054              0.468

                           ! Non-Optimized Parameters !
 Normal termination of Gaussian 16 at Sat Dec 12 16:25:08 2020.

 ----------------------------------------------------------------------
 # B3LYP/6-311++G(d,p) empiricaldispersion=gd3bj scf=xqc pop=npa geom=c
 heck
 ----------------------------------------------------------------------

 ----------------------------------------
 CID_106337746_JID_10528_Energie_neutraal
 ----------------------------------------
 Structure from the checkpoint file:  "JID_10528.chk"
 Charge =  0 Multiplicity = 1

 SCF Done:  E(RB3LYP) =  -1365.55663603     A.U. after   16 cycles
 Normal termination of Gaussian 16 at Sat Dec 12 16:35:27 2020.

 ----------------------------------------------------------------------
 # B3LYP/6-311++G(d,p) empiricaldispersion=gd3bj scf=xqc pop=npa geom=c
 heck
 ----------------------------------------------------------------------

 --------------------------------------
 CID_106337746_JID_10528_Energie_kation
 --------------------------------------
 Structure from the checkpoint file:  "JID_10528.chk"
 Charge =  1 Multiplicity = 2

 SCF Done:  E(UB3LYP) =  -1365.25318377     A.U. after   29 cycles
 Normal termination of Gaussian 16 at Sat Dec 12 17:01:39 2020.
 Gaussian 16:  ES64L-G16RevA.03 25-Dec-2016

 ----------------------------------------------------------------------
 # B3LYP/6-311++G(d,p) empiricaldispersion=gd3bj scf=xqc pop=npa geom=c
 heck
 ----------------------------------------------------------------------

 -------------------------------------
 CID_106337746_JID_10528_Energie_anion
 -------------------------------------
 Structure from the checkpoint file:  "JID_10528.chk"
 Charge = -1 Multiplicity = 2

                         Standard orientation:
 ---------------------------------------------------------------------
 Center     Atomic      Atomic             Coordinates (Angstroms)
 Number     Number       Type             X           Y           Z
 ---------------------------------------------------------------------
      1          6           0        4.997369   -0.660423   -0.854062
      2          6           0        4.369020   -0.066929    0.421564
      3          6           0        5.213064    1.088696    0.970905
      4          6           0        2.951956    0.362313    0.143922
      5          7           0        2.646498    1.638674    0.012270
      6          7           0        1.304278    1.680551   -0.289870
      7          6           0        0.721642    0.455813   -0.321958
      8          6           0        1.777654   -0.444991   -0.039668
      9          7           0        1.666145   -1.826259    0.222003
     10          8           0        2.701722   -2.478422    0.408112
     11          8           0        0.530134   -2.335855    0.284122
     12          7           0       -0.604011    0.353407   -0.609877
     13          6           0       -1.298260   -0.783104   -1.188735
     14          6           0       -2.283018   -1.435712   -0.219095
     15         16           0       -3.771935   -0.450483    0.070216
     16          8           0       -4.315531   -0.008618   -1.217964
     17          8           0       -4.611758   -1.163957    1.038065
     18          7           0       -3.104907    0.968011    0.793876
     19          6           0       -4.009071    2.135036    0.716837
     20          6           0        0.661997    2.951971   -0.537388
     21          1           0        5.046586    0.097163   -1.644856
     22          1           0        4.415964   -1.512186   -1.215530
     23          1           0        6.016226   -1.005488   -0.646164
     24          1           0        4.325201   -0.868087    1.166671
     25          1           0        5.285322    1.903697    0.244277
     26          1           0        4.780271    1.500171    1.888122
     27          1           0        6.224858    0.733255    1.193283
     28          1           0       -1.221319    1.066760   -0.233039
     29          1           0       -1.837951   -0.454261   -2.084435
     30          1           0       -0.569167   -1.533875   -1.482217
     31          1           0       -2.676212   -2.372800   -0.625907
     32          1           0       -1.813991   -1.644708    0.743982
     33          1           0       -2.902948    0.733253    1.767356
     34          1           0       -4.207444    2.348801   -0.333620
     35          1           0       -4.960863    1.976567    1.237011
     36          1           0       -3.489299    2.985051    1.166024
     37          1           0        0.081257    3.290075    0.329891
     38          1           0        1.449389    3.676740   -0.742458
     39          1           0       -0.001618    2.865720   -1.403277
 ---------------------------------------------------------------------

 SCF Done:  E(UB3LYP) =  -1365.57982597     A.U. after   29 cycles

 The electronic state is 2-A.
 Alpha  occ. eigenvalues --  -88.97701 -19.03759 -19.03732 -18.95113 -18.94981
 Alpha  occ. eigenvalues --  -14.32562 -14.27004 -14.26787 -14.22185 -14.20693
 Alpha  occ. eigenvalues --  -10.13154 -10.13054 -10.11867 -10.11568 -10.11558
 Alpha  occ. eigenvalues --  -10.07939 -10.07355 -10.06524 -10.05263 -10.04706
 Alpha  occ. eigenvalues --   -8.04008  -6.00302  -6.00246  -6.00041  -1.03764
 Alpha  occ. eigenvalues --   -1.02913  -0.93489  -0.92923  -0.85523  -0.84747
 Alpha  occ. eigenvalues --   -0.83231  -0.74717  -0.71071  -0.68015  -0.66944
 Alpha  occ. eigenvalues --   -0.63070  -0.61516  -0.57636  -0.57234  -0.54679
 Alpha  occ. eigenvalues --   -0.52177  -0.49932  -0.47250  -0.45157  -0.44844
 Alpha  occ. eigenvalues --   -0.41785  -0.41485  -0.40310  -0.38724  -0.37970
 Alpha  occ. eigenvalues --   -0.37321  -0.37129  -0.36007  -0.35850  -0.35534
 Alpha  occ. eigenvalues --   -0.34143  -0.33725  -0.33193  -0.32773  -0.31603
 Alpha  occ. eigenvalues --   -0.31061  -0.30659  -0.30193  -0.28920  -0.28273
 Alpha  occ. eigenvalues --   -0.27619  -0.27248  -0.24766  -0.23988  -0.23507
 Alpha  occ. eigenvalues --   -0.23410  -0.22712  -0.22300  -0.20086  -0.19927
 Alpha  occ. eigenvalues --   -0.17908  -0.14227  -0.13396  -0.13142  -0.10927
 Alpha  occ. eigenvalues --   -0.10002   0.03035
 Alpha virt. eigenvalues --    0.04847   0.07432   0.07691   0.08101   0.08418
 Alpha virt. eigenvalues --    0.09695   0.09999   0.10381   0.10864   0.11456
 Alpha virt. eigenvalues --    0.11492   0.11918   0.12733   0.12921   0.13150

  Beta  occ. eigenvalues --  -88.97700 -19.03753 -19.03730 -18.94742 -18.94467
  Beta  occ. eigenvalues --  -14.31722 -14.26997 -14.26771 -14.22133 -14.20724
  Beta  occ. eigenvalues --  -10.13126 -10.12853 -10.11863 -10.11557 -10.11550
  Beta  occ. eigenvalues --  -10.07852 -10.07457 -10.06528 -10.05263 -10.04695
  Beta  occ. eigenvalues --   -8.04007  -6.00301  -6.00246  -6.00040  -1.03753
  Beta  occ. eigenvalues --   -1.01723  -0.93403  -0.92913  -0.84839  -0.84578
  Beta  occ. eigenvalues --   -0.83063  -0.74659  -0.70987  -0.67969  -0.66741
  Beta  occ. eigenvalues --   -0.62953  -0.61224  -0.57616  -0.57182  -0.54214
  Beta  occ. eigenvalues --   -0.52105  -0.49804  -0.47156  -0.45029  -0.44678
  Beta  occ. eigenvalues --   -0.41751  -0.41390  -0.40177  -0.38504  -0.37846
  Beta  occ. eigenvalues --   -0.37252  -0.36679  -0.35705  -0.35570  -0.34216
  Beta  occ. eigenvalues --   -0.33766  -0.33125  -0.32808  -0.32536  -0.31441
  Beta  occ. eigenvalues --   -0.30891  -0.30426  -0.30116  -0.28566  -0.28082
  Beta  occ. eigenvalues --   -0.27505  -0.27213  -0.24756  -0.23943  -0.23490
  Beta  occ. eigenvalues --   -0.23365  -0.22662  -0.22278  -0.19913  -0.19821
  Beta  occ. eigenvalues --   -0.17812  -0.13017  -0.12775  -0.11192  -0.10497
  Beta  occ. eigenvalues --   -0.09539
  Beta virt. eigenvalues --    0.05286   0.07397   0.07796   0.08075   0.08386
  Beta virt. eigenvalues --    0.09662   0.09915   0.10237   0.10748   0.10985
  Beta virt. eigenvalues --    0.11415   0.11494   0.11894   0.12660   0.12995

 Mulliken charges and spin densities:
               1          2
     1  C   -0.662184  -0.010534
     2  C    0.275527   0.002367
     3  C   -0.639658  -0.007222
     4  C    0.538086   0.096779
     5  N   -0.050467  -0.022037
     6  N    0.091151   0.009685
     7  C   -0.111619   0.118935
     8  C   -0.773098  -0.081187
     9  N   -0.411269   0.251751
    10  O   -0.165595   0.199562
    11  O   -0.161873   0.157079
    12  N   -0.166842   0.038984
    13  C   -0.248124   0.013959
    14  C   -0.685532  -0.018904
    15  S    0.328264  -0.085489
    16  O   -0.291541   0.005487
    17  O   -0.068347   0.000999
    18  N   -0.433106   0.043276
    19  C    0.054193  -0.447423
    20  C   -0.230771  -0.188200
    21  H    0.121848   0.001955
    22  H    0.150183   0.025073
    23  H    0.114155   0.000366
    24  H    0.222014   0.008125
    25  H    0.143560  -0.000097
    26  H    0.139164   0.002739
    27  H    0.131792   0.000059
    28  H    0.449509  -0.020107
    29  H    0.193259   0.002969
    30  H    0.205566   0.017321
    31  H    0.236292   0.003092
    32  H    0.266817   0.040045
    33  H    0.150658   0.136866
    34  H    0.120999   0.062067
    35  H    0.068634   0.100692
    36  H   -0.186633   0.343140
    37  H    0.011527   0.157435
    38  H    0.141435   0.024318
    39  H    0.132023   0.016071
 Sum of Mulliken charges =  -1.00000   1.00000

 Dipole moment (field-independent basis, Debye):
    X=             -2.4186    Y=              5.5466    Z=             -1.7451  Tot=              6.2976
 Quadrupole moment (field-independent basis, Debye-Ang):
   XX=           -202.6099   YY=           -165.4580   ZZ=           -140.3727
   XY=              4.9629   XZ=             -1.8443   YZ=              2.9488

 Summary of Natural Population Analysis:

                                       Natural Population
                Natural  -----------------------------------------------
    Atom  No    Charge         Core      Valence    Rydberg      Total
 -----------------------------------------------------------------------
      C    1   -0.27771      0.99965     2.27352    0.00454     3.27771
      C    2   -0.12963      0.99958     2.12251    0.00755     3.12963
      C    3   -0.28163      0.99966     2.27694    0.00503     3.28163
      C    4    0.11206      0.99956     1.87095    0.01744     2.88794
      N    5   -0.18533      0.99969     2.67464    0.01100     3.68533
      N    6   -0.12522      0.99963     2.61388    0.01172     3.62522
      C    7    0.23334      0.99949     1.75262    0.01455     2.76666
      C    8   -0.04366      0.99935     2.03265    0.01166     3.04366
      N    9    0.32903      0.99967     2.14459    0.02671     3.17097
      O   10   -0.19216      0.99990     3.18539    0.00687     4.19216
      O   11   -0.24074      0.99990     3.23294    0.00790     4.24074
      N   12   -0.32419      0.99967     2.81441    0.01011     3.82419
      C   13   -0.09677      0.99960     2.08509    0.01208     3.09677
      C   14   -0.28953      0.99957     2.27822    0.01174     3.28953
      S   15    1.07956      4.99931     1.82215    0.09898     6.92044
      O   16   -0.46629      0.99991     3.46092    0.00546     4.46629
      O   17   -0.46349      0.99991     3.45792    0.00567     4.46349
      N   18   -0.43877      0.99978     2.92564    0.01335     3.93877
      C   19   -0.18866      0.99965     2.17955    0.00946     3.18866
      C   20   -0.17840      0.99965     2.17076    0.00798     3.17840
      H   21    0.09075      0.00000     0.40840    0.00085     0.40925
      H   22    0.11356      0.00000     0.38541    0.00103     0.38644
      H   23    0.08982      0.00000     0.40930    0.00088     0.41018
      H   24    0.11490      0.00000     0.38324    0.00185     0.38510
      H   25    0.09935      0.00000     0.39976    0.00089     0.40065
      H   26    0.10027      0.00000     0.39894    0.00079     0.39973
      H   27    0.09045      0.00000     0.40875    0.00081     0.40955
      H   28    0.20224      0.00000     0.29517    0.00258     0.29776
      H   29    0.09497      0.00000     0.40399    0.00103     0.40503
      H   30    0.12713      0.00000     0.37161    0.00126     0.37287
      H   31    0.11902      0.00000     0.38020    0.00078     0.38098
      H   32    0.13387      0.00000     0.36473    0.00140     0.36613
      H   33    0.19278      0.00000     0.30530    0.00192     0.30722
      H   34    0.10705      0.00000     0.39198    0.00097     0.39295
      H   35    0.09180      0.00000     0.40711    0.00109     0.40820
      H   36    0.10212      0.00000     0.39661    0.00127     0.39788
      H   37    0.09303      0.00000     0.40535    0.00162     0.40697
      H   38    0.10739      0.00000     0.39162    0.00098     0.39261
      H   39    0.09767      0.00000     0.40127    0.00105     0.40233
 =======================================================================
   * Total *    0.00000     23.99312    56.68403    0.32285    81.00000

 Normal termination of Gaussian 16 at Sat Dec 12 17:27:36 2020.
