 Gaussian 16, Revision A.03,

 -----------------------------------------------------------
 # opt freq B3LYP/6-31G(d) empiricaldispersion=gd3bj scf=xqc
 -----------------------------------------------------------

 -------------------------------
 CID_142208487_JID_1256_neutraal
 -------------------------------
 Symbolic Z-matrix:
 Charge =  0 Multiplicity = 1

 SCF Done:  E(RB3LYP) =  -479.585213770     A.U. after   15 cycles
 SCF Done:  E(RB3LYP) =  -479.585959154     A.U. after   13 cycles
 SCF Done:  E(RB3LYP) =  -479.587065861     A.U. after   13 cycles
 SCF Done:  E(RB3LYP) =  -479.588572230     A.U. after   12 cycles
 SCF Done:  E(RB3LYP) =  -479.588603740     A.U. after   11 cycles
 SCF Done:  E(RB3LYP) =  -479.588610797     A.U. after   11 cycles
 SCF Done:  E(RB3LYP) =  -479.588614373     A.U. after   10 cycles
 SCF Done:  E(RB3LYP) =  -479.588617489     A.U. after   10 cycles
 SCF Done:  E(RB3LYP) =  -479.588620237     A.U. after   10 cycles
 SCF Done:  E(RB3LYP) =  -479.588621378     A.U. after   10 cycles
 SCF Done:  E(RB3LYP) =  -479.588648582     A.U. after    9 cycles
 SCF Done:  E(RB3LYP) =  -479.588648596     A.U. after   10 cycles
 SCF Done:  E(RB3LYP) =  -479.588649021     A.U. after    7 cycles
 SCF Done:  E(RB3LYP) =  -479.588649253     A.U. after    9 cycles
 SCF Done:  E(RB3LYP) =  -479.588649296     A.U. after    8 cycles
 Optimization completed.
    -- Stationary point found.
 Normal termination of Gaussian 16 at Tue Dec  8 19:43:51 2020.

 --------------------------------------------------------------------
 #N Geom=AllCheck Guess=TCheck SCRF=Check GenChk RB3LYP/6-31G(d) Freq
 --------------------------------------------------------------------

 Structure from the checkpoint file:  "JID_1256.chk"
 -------------------------------
 CID_142208487_JID_1256_neutraal
 -------------------------------
 Charge =  0 Multiplicity = 1

 SCF Done:  E(RB3LYP) =  -479.588649296     A.U. after    1 cycles

  Exact polarizability: 130.432  -4.743 115.236  -8.663  -7.904  58.735
 Approx polarizability: 191.564  -4.679 189.074 -16.843 -15.416  89.333

                      1                      2                      3
                      A                      A                      A
 Frequencies --     30.4266                38.0456                82.0007
 Red. masses --      1.0249                 6.5955                 4.1578
 Frc consts  --      0.0006                 0.0056                 0.0165
 IR Inten    --      0.1639                 2.9543                 1.8523

                      4                      5                      6
                      A                      A                      A
 Frequencies --    128.2456               145.2764               259.4974
 Red. masses --      2.7352                 3.5188                 3.3482
 Frc consts  --      0.0265                 0.0438                 0.1328
 IR Inten    --      4.5714                 2.1075                 1.3083

                      7                      8                      9
                      A                      A                      A
 Frequencies --    272.0890               282.4401               330.3823
 Red. masses --      1.1934                 2.4211                 2.9848
 Frc consts  --      0.0521                 0.1138                 0.1920
 IR Inten    --     28.2218                 1.1781                 2.4887

                     10                     11                     12
                      A                      A                      A
 Frequencies --    358.4264               430.5480               475.8615
 Red. masses --      3.2472                 3.1976                 2.9338
 Frc consts  --      0.2458                 0.3492                 0.3914
 IR Inten    --     13.5284                 0.9372                24.5887

                     13                     14                     15
                      A                      A                      A
 Frequencies --    481.9848               487.5118               567.1992
 Red. masses --      4.1800                 3.4698                 3.0264
 Frc consts  --      0.5721                 0.4859                 0.5737
 IR Inten    --      0.3484                 6.2685                 4.2067

                     16                     17                     18
                      A                      A                      A
 Frequencies --    614.0865               679.7923               725.2484
 Red. masses --      3.3448                 1.5682                 3.9398
 Frc consts  --      0.7431                 0.4270                 1.2209
 IR Inten    --      3.3269               238.6953                 1.7651

                     19                     20                     21
                      A                      A                      A
 Frequencies --    755.0991               796.2013               813.4255
 Red. masses --      2.9243                 3.0252                 2.0195
 Frc consts  --      0.9824                 1.1299                 0.7873
 IR Inten    --     33.8375                 4.0002                 1.4764

                     22                     23                     24
                      A                      A                      A
 Frequencies --    825.7305               903.2537               938.8662
 Red. masses --      1.5435                 1.3183                 1.2896
 Frc consts  --      0.6200                 0.6337                 0.6698
 IR Inten    --     51.1006                 1.7416                 0.2347

                     25                     26                     27
                      A                      A                      A
 Frequencies --    954.7677              1015.2091              1047.8699
 Red. masses --      3.2661                 1.6769                 1.6740
 Frc consts  --      1.7542                 1.0183                 1.0830
 IR Inten    --      1.1625                 4.2355                16.6003

                     28                     29                     30
                      A                      A                      A
 Frequencies --   1059.2025              1076.3215              1101.1967
 Red. masses --      2.8115                 1.4848                 1.6260
 Frc consts  --      1.8584                 1.0134                 1.1617
 IR Inten    --     30.6499                 7.4831                 4.9477

                     31                     32                     33
                      A                      A                      A
 Frequencies --   1182.4435              1192.8179              1205.0193
 Red. masses --      1.8563                 1.3255                 1.2204
 Frc consts  --      1.5292                 1.1112                 1.0441
 IR Inten    --      5.0941                 5.2450                 8.3928

                     34                     35                     36
                      A                      A                      A
 Frequencies --   1268.4788              1301.5012              1321.1551
 Red. masses --      2.3352                 1.6367                 3.7392
 Frc consts  --      2.2138                 1.6335                 3.8454
 IR Inten    --      2.8844                 4.4641                32.7587

                     37                     38                     39
                      A                      A                      A
 Frequencies --   1343.9498              1371.8832              1437.2391
 Red. masses --      1.4213                 3.8929                 1.1866
 Frc consts  --      1.5125                 4.3167                 1.4441
 IR Inten    --      6.0885                 8.5719                 6.5213

                     40                     41                     42
                      A                      A                      A
 Frequencies --   1444.6922              1470.6212              1498.3329
 Red. masses --      1.2458                 2.7729                 1.1297
 Frc consts  --      1.5320                 3.5333                 1.4942
 IR Inten    --      1.2814                 5.2488                 6.5718

                     43                     44                     45
                      A                      A                      A
 Frequencies --   1517.8210              1528.9817              1560.1085
 Red. masses --      1.0473                 1.1541                 2.8096
 Frc consts  --      1.4215                 1.5896                 4.0291
 IR Inten    --      5.2416                11.4283                77.3248

                     46                     47                     48
                      A                      A                      A
 Frequencies --   1641.3451              1676.3709              1699.5031
 Red. masses --      5.9012                 2.9509                 1.4075
 Frc consts  --      9.3668                 4.8859                 2.3952
 IR Inten    --      1.9090                 3.1632                86.7041

                     49                     50                     51
                      A                      A                      A
 Frequencies --   1829.8785              2949.4114              3003.7580
 Red. masses --      9.4794                 1.0855                 1.0709
 Frc consts  --     18.7015                 5.5637                 5.6927
 IR Inten    --    223.5518                63.4687                30.3964

                     52                     53                     54
                      A                      A                      A
 Frequencies --   3037.8334              3093.8403              3122.1824
 Red. masses --      1.0413                 1.0952                 1.0914
 Frc consts  --      5.6616                 6.1767                 6.2682
 IR Inten    --     43.4428                23.5483                 7.3125

                     55                     56                     57
                      A                      A                      A
 Frequencies --   3122.7226              3168.4545              3172.5813
 Red. masses --      1.1022                 1.0869                 1.0898
 Frc consts  --      6.3323                 6.4288                 6.4626
 IR Inten    --     17.6204                18.6256                15.0723

                     58                     59                     60
                      A                      A                      A
 Frequencies --   3188.1615              3531.9139              3628.1610
 Red. masses --      1.0942                 1.0482                 1.0968
 Frc consts  --      6.5527                 7.7042                 8.5062
 IR Inten    --     23.2733                 4.6215                 5.9968

 - Thermochemistry -
 -------------------
 Temperature   298.150 Kelvin.  Pressure   1.00000 Atm.
 Atom     1 has atomic number  6 and mass  12.00000

 Molecular mass:   149.08406 amu.
 Principal axes and moments of inertia in atomic units:
                           1         2         3
     Eigenvalues --  1088.501752325.726113176.29914
           X            0.99863  -0.05093  -0.01214
           Y            0.05078   0.99863  -0.01251
           Z            0.01276   0.01188   0.99985
 This molecule is an asymmetric top.
 Rotational symmetry number  1.
 Warning -- assumption of classical behavior for rotation
           may cause significant error
 Rotational temperatures (Kelvin)      0.07957     0.03724     0.02727
 Rotational constants (GHZ):           1.65800     0.77599     0.56819
 Zero-point vibrational energy     479627.0 (Joules/Mol)
                                  114.63360 (Kcal/Mol)
 Warning -- explicit consideration of  16 degrees of freedom as
           vibrations may cause significant error
 Vibrational temperatures:     43.78    54.74   117.98   184.52   209.02
          (Kelvin)            373.36   391.48   406.37   475.35   515.70
                              619.46   684.66   693.47   701.42   816.07
                              883.53   978.07  1043.47  1086.42  1145.56
                             1170.34  1188.04  1299.58  1350.82  1373.70
                             1460.66  1507.65  1523.96  1548.59  1584.38
                             1701.27  1716.20  1733.75  1825.06  1872.57
                             1900.85  1933.64  1973.83  2067.87  2078.59
                             2115.90  2155.77  2183.81  2199.86  2244.65
                             2361.53  2411.92  2445.21  2632.79  4243.55
                             4321.74  4370.76  4451.35  4492.12  4492.90
                             4558.70  4564.64  4587.05  5081.64  5220.11

 Zero-point correction=                           0.182680 (Hartree/Particle)
 Thermal correction to Energy=                    0.193766
 Thermal correction to Enthalpy=                  0.194711
 Thermal correction to Gibbs Free Energy=         0.144493
 Sum of electronic and zero-point Energies=           -479.405969
 Sum of electronic and thermal Energies=              -479.394883
 Sum of electronic and thermal Enthalpies=            -479.393939
 Sum of electronic and thermal Free Energies=         -479.444156

                     E (Thermal)             CV                S
                      KCal/Mol        Cal/Mol-Kelvin    Cal/Mol-Kelvin
 Total                  121.590             40.691            105.692
 Electronic               0.000              0.000              0.000
 Translational            0.889              2.981             40.908
 Rotational               0.889              2.981             30.465
 Vibrational            119.813             34.730             34.319
 Vibration     1          0.594              1.984              5.801
 Vibration     2          0.594              1.982              5.358
 Vibration     3          0.600              1.961              3.842
 Vibration     4          0.611              1.925              2.972
 Vibration     5          0.617              1.908              2.733
 Vibration     6          0.668              1.747              1.665
 Vibration     7          0.675              1.725              1.583
 Vibration     8          0.681              1.706              1.519
 Vibration     9          0.713              1.615              1.258
 Vibration    10          0.733              1.558              1.129
 Vibration    11          0.792              1.404              0.857
 Vibration    12          0.833              1.304              0.721
 Vibration    13          0.838              1.290              0.705
 Vibration    14          0.843              1.278              0.690
 Vibration    15          0.923              1.102              0.510
 Vibration    16          0.973              1.002              0.426

                           ! Non-Optimized Parameters !
 Normal termination of Gaussian 16 at Tue Dec  8 19:47:50 2020.

 ----------------------------------------------------------------------
 # B3LYP/6-311++G(d,p) empiricaldispersion=gd3bj scf=xqc pop=npa geom=c
 heck
 ----------------------------------------------------------------------

 ---------------------------------------
 CID_142208487_JID_1256_Energie_neutraal
 ---------------------------------------
 Structure from the checkpoint file:  "JID_1256.chk"
 Charge =  0 Multiplicity = 1

 SCF Done:  E(RB3LYP) =  -479.729236769     A.U. after   15 cycles
 Normal termination of Gaussian 16 at Tue Dec  8 19:49:21 2020.

 ----------------------------------------------------------------------
 # B3LYP/6-311++G(d,p) empiricaldispersion=gd3bj scf=xqc pop=npa geom=c
 heck
 ----------------------------------------------------------------------

 -------------------------------------
 CID_142208487_JID_1256_Energie_kation
 -------------------------------------
 Structure from the checkpoint file:  "JID_1256.chk"
 Charge =  1 Multiplicity = 2

 SCF Done:  E(UB3LYP) =  -479.445200986     A.U. after   23 cycles
 Normal termination of Gaussian 16 at Tue Dec  8 19:53:01 2020.
 Gaussian 16:  ES64L-G16RevA.03 25-Dec-2016

 ----------------------------------------------------------------------
 # B3LYP/6-311++G(d,p) empiricaldispersion=gd3bj scf=xqc pop=npa geom=c
 heck
 ----------------------------------------------------------------------

 ------------------------------------
 CID_142208487_JID_1256_Energie_anion
 ------------------------------------
 Structure from the checkpoint file:  "JID_1256.chk"
 Charge = -1 Multiplicity = 2

                         Standard orientation:
 ---------------------------------------------------------------------
 Center     Atomic      Atomic             Coordinates (Angstroms)
 Number     Number       Type             X           Y           Z
 ---------------------------------------------------------------------
      1          6           0        3.094625   -1.657283   -0.043731
      2          6           0        1.996011   -0.622706   -0.019531
      3          6           0        0.698770   -0.951304    0.380745
      4          6           0       -0.332925   -0.010668    0.442458
      5          6           0       -0.062020    1.326035    0.084865
      6          6           0        1.236317    1.666235   -0.320361
      7          6           0        2.241948    0.707867   -0.376798
      8          7           0       -1.085991    2.289141    0.065092
      9          6           0       -1.731005   -0.453596    0.814457
     10          6           0       -2.593923   -0.614146   -0.430494
     11          8           0       -3.247476   -1.603754   -0.674099
     12          1           0        2.686599   -2.669968   -0.125920
     13          1           0        3.774474   -1.499487   -0.888296
     14          1           0        3.701663   -1.623181    0.870972
     15          1           0        0.473134   -1.980195    0.653668
     16          1           0        1.451290    2.694893   -0.601712
     17          1           0        3.237915    1.002338   -0.699182
     18          1           0       -1.776552    2.186012    0.800094
     19          1           0       -0.739370    3.241435    0.044256
     20          1           0       -1.719526   -1.411243    1.341760
     21          1           0       -2.224499    0.273542    1.479423
     22          1           0       -2.570168    0.249285   -1.127578
 ---------------------------------------------------------------------

 SCF Done:  E(UB3LYP) =  -479.719840558     A.U. after   33 cycles
 SCF Done:  E(UB3LYP) =  -479.719840558     a.u. after    1 cycles

 The electronic state is 2-A.
 Alpha  occ. eigenvalues --  -18.99601 -14.20045 -10.12923 -10.10024 -10.07140
 Alpha  occ. eigenvalues --  -10.06886 -10.06766 -10.06682 -10.06004 -10.05989
 Alpha  occ. eigenvalues --  -10.05594  -0.92685  -0.80648  -0.73707  -0.67820
 Alpha  occ. eigenvalues --   -0.64853  -0.60050  -0.57070  -0.50063  -0.47958
 Alpha  occ. eigenvalues --   -0.45069  -0.40658  -0.40350  -0.36008  -0.33943
 Alpha  occ. eigenvalues --   -0.33820  -0.32655  -0.32227  -0.31664  -0.31483
 Alpha  occ. eigenvalues --   -0.28699  -0.27471  -0.26678  -0.25801  -0.23973
 Alpha  occ. eigenvalues --   -0.22937  -0.19636  -0.15274  -0.13016  -0.09478
 Alpha  occ. eigenvalues --    0.04769
 Alpha virt. eigenvalues --    0.06962   0.07307   0.08181   0.09396   0.09625
 Alpha virt. eigenvalues --    0.09736   0.09951   0.11631   0.12193   0.12408
 Alpha virt. eigenvalues --    0.12423   0.13826   0.15510   0.15821   0.16028

  Beta  occ. eigenvalues --  -18.99454 -14.19971 -10.12755 -10.10026 -10.07131
  Beta  occ. eigenvalues --  -10.06867 -10.06764 -10.06697 -10.05966 -10.05945
  Beta  occ. eigenvalues --  -10.05556  -0.92392  -0.80548  -0.73636  -0.67723
  Beta  occ. eigenvalues --   -0.64792  -0.59917  -0.56991  -0.49963  -0.47756
  Beta  occ. eigenvalues --   -0.44868  -0.40559  -0.40277  -0.35893  -0.33811
  Beta  occ. eigenvalues --   -0.33697  -0.32505  -0.32184  -0.31523  -0.31382
  Beta  occ. eigenvalues --   -0.28654  -0.27363  -0.26381  -0.25576  -0.23757
  Beta  occ. eigenvalues --   -0.22772  -0.19522  -0.15097  -0.12844  -0.09378
  Beta virt. eigenvalues --    0.06880   0.08266   0.08589   0.08918   0.09491
  Beta virt. eigenvalues --    0.10033   0.10169   0.10504   0.11597   0.12280
  Beta virt. eigenvalues --    0.12789   0.12990   0.14017   0.15629   0.15981

 Mulliken charges and spin densities:
               1          2
     1  C    0.285826  -0.776301
     2  C    0.564288  -0.139933
     3  C   -1.247026   0.846245
     4  C    0.164491   1.074626
     5  C   -1.042354   0.092250
     6  C   -0.191957  -0.121525
     7  C    1.074003  -1.481167
     8  N   -0.293657   0.032644
     9  C    1.880888  -2.169061
    10  C   -0.122114   0.052546
    11  O   -0.311881   0.053617
    12  H    0.109948   0.020200
    13  H    0.023785   0.104003
    14  H    0.049097   0.096380
    15  H    0.010566   0.116706
    16  H   -0.889695   1.037818
    17  H   -0.058592   0.186044
    18  H   -0.168953   0.430652
    19  H   -0.461470   0.718776
    20  H    0.150696   0.025930
    21  H   -0.615416   0.767634
    22  H    0.089527   0.031914
 Sum of Mulliken charges =  -1.00000   1.00000

 Dipole moment (field-independent basis, Debye):
    X=              4.1556    Y=             -5.4231    Z=             -0.6983  Tot=              6.8679
 Quadrupole moment (field-independent basis, Debye-Ang):
   XX=           -112.0810   YY=           -116.4639   ZZ=            -91.6963
   XY=             -4.5548   XZ=              1.9828   YZ=             -5.1442

 Summary of Natural Population Analysis:

                                       Natural Population
                Natural  -----------------------------------------------
    Atom  No    Charge         Core      Valence    Rydberg      Total
 -----------------------------------------------------------------------
      C    1   -0.28799      0.99964     2.28359    0.00476     3.28799
      C    2   -0.04101      0.99951     2.03328    0.00822     3.04101
      C    3   -0.08504      0.99948     2.07676    0.00880     3.08504
      C    4   -0.03434      0.99946     2.02341    0.01146     3.03434
      C    5    0.08550      0.99943     1.90260    0.01247     2.91450
      C    6   -0.11283      0.99952     2.10283    0.01048     3.11283
      C    7   -0.08928      0.99952     2.07996    0.00980     3.08928
      N    8   -0.39908      0.99972     2.88834    0.01103     3.89908
      C    9   -0.24738      0.99959     2.23706    0.01072     3.24738
      C   10    0.25023      0.99973     1.73025    0.01978     2.74977
      O   11   -0.27390      0.99988     3.26737    0.00665     4.27390
      H   12    0.09858      0.00000     0.40052    0.00090     0.40142
      H   13    0.09919      0.00000     0.39972    0.00109     0.40081
      H   14    0.09841      0.00000     0.40023    0.00136     0.40159
      H   15    0.09494      0.00000     0.40405    0.00102     0.40506
      H   16    0.10063      0.00000     0.39771    0.00167     0.39937
      H   17    0.09515      0.00000     0.40394    0.00091     0.40485
      H   18    0.18830      0.00000     0.30606    0.00563     0.31170
      H   19    0.18864      0.00000     0.30340    0.00795     0.31136
      H   20    0.10748      0.00000     0.39117    0.00134     0.39252
      H   21    0.11354      0.00000     0.38289    0.00357     0.38646
      H   22    0.05025      0.00000     0.44765    0.00210     0.44975
 =======================================================================
   * Total *    0.00000     10.99548    28.86281    0.14171    40.00000

 Normal termination of Gaussian 16 at Tue Dec  8 19:57:13 2020.
