 Gaussian 16, Revision A.03,

 -----------------------------------------------------------
 # opt freq B3LYP/6-31G(d) empiricaldispersion=gd3bj scf=xqc
 -----------------------------------------------------------

 ------------------------------
 CID_81341782_JID_9595_neutraal
 ------------------------------
 Symbolic Z-matrix:
 Charge =  0 Multiplicity = 1

 SCF Done:  E(RB3LYP) =  -823.755812745     A.U. after   14 cycles
 SCF Done:  E(RB3LYP) =  -823.760364691     A.U. after   12 cycles
 SCF Done:  E(RB3LYP) =  -823.761030146     A.U. after   11 cycles
 SCF Done:  E(RB3LYP) =  -823.761254891     A.U. after   12 cycles
 SCF Done:  E(RB3LYP) =  -823.761311081     A.U. after   10 cycles
 SCF Done:  E(RB3LYP) =  -823.761346284     A.U. after   11 cycles
 SCF Done:  E(RB3LYP) =  -823.761355740     A.U. after   10 cycles
 SCF Done:  E(RB3LYP) =  -823.761360776     A.U. after    9 cycles
 SCF Done:  E(RB3LYP) =  -823.761364064     A.U. after    9 cycles
 SCF Done:  E(RB3LYP) =  -823.761365295     A.U. after    9 cycles
 SCF Done:  E(RB3LYP) =  -823.761365867     A.U. after    9 cycles
 SCF Done:  E(RB3LYP) =  -823.761366021     A.U. after    8 cycles
 SCF Done:  E(RB3LYP) =  -823.761366043     A.U. after    7 cycles
 Optimization completed.
    -- Stationary point found.
 Normal termination of Gaussian 16 at Mon Dec 14 16:46:57 2020.

 --------------------------------------------------------------------
 #N Geom=AllCheck Guess=TCheck SCRF=Check GenChk RB3LYP/6-31G(d) Freq
 --------------------------------------------------------------------

 Structure from the checkpoint file:  "JID_9595.chk"
 ------------------------------
 CID_81341782_JID_9595_neutraal
 ------------------------------
 Charge =  0 Multiplicity = 1

 SCF Done:  E(RB3LYP) =  -823.761366043     A.U. after    1 cycles

  Exact polarizability: 213.647   6.848 154.628   7.336   4.135 154.127
 Approx polarizability: 261.662  26.509 243.294  20.304  15.934 266.909

                      1                      2                      3
                      A                      A                      A
 Frequencies --     13.7996                22.6615                30.2641
 Red. masses --      4.1869                 3.9960                 2.8433
 Frc consts  --      0.0005                 0.0012                 0.0015
 IR Inten    --      0.3245                 0.5363                 0.0468

                      4                      5                      6
                      A                      A                      A
 Frequencies --     35.2720                36.8367                42.1703
 Red. masses --      1.1922                 3.7995                 3.2903
 Frc consts  --      0.0009                 0.0030                 0.0034
 IR Inten    --      0.0675                 0.8054                 0.2538

                      7                      8                      9
                      A                      A                      A
 Frequencies --     62.5499               102.7968               138.9963
 Red. masses --      3.1677                 3.4591                 2.4167
 Frc consts  --      0.0073                 0.0215                 0.0275
 IR Inten    --      0.3392                 1.4372                 2.2362

                     10                     11                     12
                      A                      A                      A
 Frequencies --    155.5138               179.4447               207.1247
 Red. masses --      3.9572                 3.5999                 2.3241
 Frc consts  --      0.0564                 0.0683                 0.0587
 IR Inten    --      1.4916                 2.9891                 0.9721

                     13                     14                     15
                      A                      A                      A
 Frequencies --    227.7545               236.1000               287.5981
 Red. masses --      3.4033                 1.9557                 3.6261
 Frc consts  --      0.1040                 0.0642                 0.1767
 IR Inten    --      2.6601                 0.8845                 2.5197

                     16                     17                     18
                      A                      A                      A
 Frequencies --    300.2157               324.6621               352.6208
 Red. masses --      1.7883                 2.5905                 3.3523
 Frc consts  --      0.0950                 0.1609                 0.2456
 IR Inten    --      1.3079                 0.7220                 7.6387

                     19                     20                     21
                      A                      A                      A
 Frequencies --    365.4588               374.3531               395.3415
 Red. masses --      3.1919                 2.9612                 2.3557
 Frc consts  --      0.2512                 0.2445                 0.2169
 IR Inten    --     14.2604                 1.2069                12.1982

                     22                     23                     24
                      A                      A                      A
 Frequencies --    417.4618               429.0261               493.0281
 Red. masses --      3.0024                 1.6529                 2.6107
 Frc consts  --      0.3083                 0.1793                 0.3739
 IR Inten    --      0.3543                27.3420                 2.5306

                     25                     26                     27
                      A                      A                      A
 Frequencies --    504.8053               584.3302               593.8004
 Red. masses --      4.3388                 3.4312                 3.8224
 Frc consts  --      0.6514                 0.6903                 0.7941
 IR Inten    --      3.4250                18.7147                 2.0515

                     28                     29                     30
                      A                      A                      A
 Frequencies --    623.3296               654.7950               658.4415
 Red. masses --      4.9955                 2.7782                 6.6260
 Frc consts  --      1.1436                 0.7018                 1.6925
 IR Inten    --      1.1811                20.5745                 0.1916

                     31                     32                     33
                      A                      A                      A
 Frequencies --    709.4748               729.6404               740.9348
 Red. masses --      4.2251                 2.1824                 3.4146
 Frc consts  --      1.2530                 0.6845                 1.1044
 IR Inten    --      0.7314                35.7386                 9.2805

                     34                     35                     36
                      A                      A                      A
 Frequencies --    750.7715               770.9000               771.9970
 Red. masses --      3.9369                 1.3934                 1.5624
 Frc consts  --      1.3074                 0.4879                 0.5486
 IR Inten    --     19.1283                28.2150                30.7441

                     37                     38                     39
                      A                      A                      A
 Frequencies --    804.2537               844.8224               860.3332
 Red. masses --      1.3637                 2.0677                 1.7590
 Frc consts  --      0.5197                 0.8695                 0.7671
 IR Inten    --     81.5156                16.7770                 7.3201

                     40                     41                     42
                      A                      A                      A
 Frequencies --    866.2189               882.1583               921.9320
 Red. masses --      1.9016                 2.1052                 1.5714
 Frc consts  --      0.8407                 0.9652                 0.7869
 IR Inten    --      9.9746                25.1860                 7.4516

                     43                     44                     45
                      A                      A                      A
 Frequencies --    945.5575               956.4867               978.4333
 Red. masses --      1.5594                 1.3419                 1.3308
 Frc consts  --      0.8215                 0.7233                 0.7506
 IR Inten    --     15.9379                 1.0132                 0.2411

                     46                     47                     48
                      A                      A                      A
 Frequencies --    994.3544              1009.3028              1026.4054
 Red. masses --      2.3405                 1.9910                 1.5007
 Frc consts  --      1.3635                 1.1950                 0.9315
 IR Inten    --     19.8510                 9.6925                 6.2974

                     49                     50                     51
                      A                      A                      A
 Frequencies --   1041.6174              1049.8660              1055.7647
 Red. masses --      2.6362                 2.1581                 3.8881
 Frc consts  --      1.6852                 1.4015                 2.5534
 IR Inten    --      7.4989                 4.7744                 2.7559

                     52                     53                     54
                      A                      A                      A
 Frequencies --   1069.9310              1074.8063              1104.1903
 Red. masses --      2.7060                 1.4497                 4.7489
 Frc consts  --      1.8251                 0.9867                 3.4114
 IR Inten    --      4.3320                 3.5491                68.8838

                     55                     56                     57
                      A                      A                      A
 Frequencies --   1135.1066              1141.8224              1159.7898
 Red. masses --      1.9076                 2.3731                 1.5541
 Frc consts  --      1.4482                 1.8229                 1.2316
 IR Inten    --      2.4724                53.3365                 1.4048

                     58                     59                     60
                      A                      A                      A
 Frequencies --   1174.2323              1185.0262              1209.1733
 Red. masses --      1.7234                 1.7164                 3.8165
 Frc consts  --      1.4001                 1.4201                 3.2877
 IR Inten    --      5.5736                 6.1081                75.0573

                     61                     62                     63
                      A                      A                      A
 Frequencies --   1213.0651              1229.2812              1239.3146
 Red. masses --      1.2472                 3.7958                 2.2304
 Frc consts  --      1.0814                 3.3796                 2.0183
 IR Inten    --      5.1278                 1.6783                14.4207

                     64                     65                     66
                      A                      A                      A
 Frequencies --   1250.8447              1296.8667              1304.5340
 Red. masses --      1.3366                 1.4199                 1.2393
 Frc consts  --      1.2321                 1.4071                 1.2426
 IR Inten    --      0.9244                 6.9598                 2.8044

                     67                     68                     69
                      A                      A                      A
 Frequencies --   1327.1630              1342.1455              1349.1715
 Red. masses --      1.8234                 1.3717                 1.6611
 Frc consts  --      1.8922                 1.4558                 1.7815
 IR Inten    --     60.2363                 5.9535                10.5911

                     70                     71                     72
                      A                      A                      A
 Frequencies --   1372.2773              1380.2346              1396.1229
 Red. masses --      1.7823                 1.2774                 1.3761
 Frc consts  --      1.9775                 1.4338                 1.5803
 IR Inten    --      0.8308                28.5258                 2.2961

                     73                     74                     75
                      A                      A                      A
 Frequencies --   1409.2152              1420.7808              1436.1573
 Red. masses --      1.5467                 1.3727                 1.7140
 Frc consts  --      1.8097                 1.6326                 2.0829
 IR Inten    --     82.6797                 1.8469                 4.4539

                     76                     77                     78
                      A                      A                      A
 Frequencies --   1443.8372              1454.8758              1468.3972
 Red. masses --      1.2683                 1.8170                 2.5430
 Frc consts  --      1.5578                 2.2660                 3.2306
 IR Inten    --      7.5029                 0.7400                35.0018

                     79                     80                     81
                      A                      A                      A
 Frequencies --   1487.7156              1501.3436              1510.2602
 Red. masses --      2.5526                 1.0997                 1.0844
 Frc consts  --      3.3287                 1.4605                 1.4573
 IR Inten    --     55.8302                 3.5486                 1.3288

                     82                     83                     84
                      A                      A                      A
 Frequencies --   1512.3634              1513.4301              1517.7273
 Red. masses --      1.2321                 1.0681                 1.1515
 Frc consts  --      1.6604                 1.4414                 1.5628
 IR Inten    --     21.5279                10.2500                22.3814

                     85                     86                     87
                      A                      A                      A
 Frequencies --   1531.0754              1539.1950              1543.7071
 Red. masses --      1.0747                 1.4205                 1.0818
 Frc consts  --      1.4844                 1.9828                 1.5189
 IR Inten    --     18.1256                28.7981                 9.4832

                     88                     89                     90
                      A                      A                      A
 Frequencies --   1547.3704              1552.8424              1563.7956
 Red. masses --      1.0648                 3.2225                 2.4166
 Frc consts  --      1.5022                 4.5782                 3.4819
 IR Inten    --      5.1020               149.2395                 6.5840

                     91                     92                     93
                      A                      A                      A
 Frequencies --   1632.1875              1637.4433              1676.4002
 Red. masses --      4.7981                 5.8569                 5.7617
 Frc consts  --      7.5311                 9.2523                 9.5401
 IR Inten    --    123.8890                18.1614                 0.3722

                     94                     95                     96
                      A                      A                      A
 Frequencies --   2957.7069              3030.4549              3040.7070
 Red. masses --      1.0714                 1.0659                 1.0660
 Frc consts  --      5.5223                 5.7676                 5.8072
 IR Inten    --     47.7246                41.9771                14.4801

                     97                     98                     99
                      A                      A                      A
 Frequencies --   3042.7902              3043.8606              3046.0678
 Red. masses --      1.0392                 1.0397                 1.0596
 Frc consts  --      5.6688                 5.6754                 5.7924
 IR Inten    --     20.5188                34.8854                43.7669

                    100                    101                    102
                      A                      A                      A
 Frequencies --   3055.3548              3081.3821              3089.4850
 Red. masses --      1.0811                 1.1015                 1.1060
 Frc consts  --      5.9464                 6.1622                 6.2200
 IR Inten    --     61.6617                 8.0681                22.2909

                    103                    104                    105
                      A                      A                      A
 Frequencies --   3093.4500              3093.8083              3109.8043
 Red. masses --      1.0983                 1.1011                 1.1031
 Frc consts  --      6.1925                 6.2097                 6.2855
 IR Inten    --     22.9806                18.0131                58.4275

                    106                    107                    108
                      A                      A                      A
 Frequencies --   3114.0503              3143.3398              3161.9975
 Red. masses --      1.1009                 1.0983                 1.0862
 Frc consts  --      6.2900                 6.3938                 6.3986
 IR Inten    --     49.4946                10.0660                13.5254

                    109                    110                    111
                      A                      A                      A
 Frequencies --   3178.9020              3180.8040              3213.8709
 Red. masses --      1.0911                 1.0917                 1.0924
 Frc consts  --      6.4963                 6.5078                 6.6481
 IR Inten    --     33.4164                 5.4105                 4.7061

                    112                    113                    114
                      A                      A                      A
 Frequencies --   3294.7305              3486.5591              3670.8783
 Red. masses --      1.0971                 1.0730                 1.0810
 Frc consts  --      7.0165                 7.6853                 8.5828
 IR Inten    --      0.5673                 1.0074                76.0011

 - Thermochemistry -
 -------------------
 Temperature   298.150 Kelvin.  Pressure   1.00000 Atm.
 Atom     1 has atomic number  6 and mass  12.00000

 Molecular mass:   259.16846 amu.
 Principal axes and moments of inertia in atomic units:
                           1         2         3
     Eigenvalues --  2022.01853********************
           X            0.99990  -0.01371  -0.00400
           Y            0.01365   0.99982  -0.01318
           Z            0.00418   0.01313   0.99991
 This molecule is an asymmetric top.
 Rotational symmetry number  1.
 Warning -- assumption of classical behavior for rotation
           may cause significant error
 Rotational temperatures (Kelvin)      0.04284     0.00667     0.00634
 Rotational constants (GHZ):           0.89254     0.13899     0.13212
 Zero-point vibrational energy     906452.4 (Joules/Mol)
                                  216.64732 (Kcal/Mol)
 Warning -- explicit consideration of  27 degrees of freedom as
           vibrations may cause significant error
 Vibrational temperatures:     19.85    32.60    43.54    50.75    53.00
          (Kelvin)             60.67    90.00   147.90   199.98   223.75
                              258.18   298.01   327.69   339.70   413.79
                              431.94   467.12   507.34   525.81   538.61
                              568.81   600.63   617.27   709.36   726.30
                              840.72   854.35   896.83   942.10   947.35
                             1020.78  1049.79  1066.04  1080.19  1109.15
                             1110.73  1157.14  1215.51  1237.83  1246.30
                             1269.23  1326.45  1360.45  1376.17  1407.75
                             1430.65  1452.16  1476.77  1498.66  1510.52
                             1519.01  1539.39  1546.41  1588.68  1633.17
                             1642.83  1668.68  1689.46  1704.99  1739.73
                             1745.33  1768.66  1783.10  1799.69  1865.90
                             1876.93  1909.49  1931.05  1941.16  1974.40
                             1985.85  2008.71  2027.55  2044.19  2066.31
                             2077.36  2093.24  2112.70  2140.49  2160.10
                             2172.93  2175.95  2177.49  2183.67  2202.88
                             2214.56  2221.05  2226.32  2234.19  2249.95
                             2348.35  2355.92  2411.97  4255.48  4360.15
                             4374.90  4377.90  4379.44  4382.61  4395.97
                             4433.42  4445.08  4450.78  4451.30  4474.31
                             4480.42  4522.56  4549.41  4573.73  4576.47
                             4624.04  4740.38  5016.38  5281.58

 Zero-point correction=                           0.345249 (Hartree/Particle)
 Thermal correction to Energy=                    0.364419
 Thermal correction to Enthalpy=                  0.365363
 Thermal correction to Gibbs Free Energy=         0.293227
 Sum of electronic and zero-point Energies=           -823.416117
 Sum of electronic and thermal Energies=              -823.396947
 Sum of electronic and thermal Enthalpies=            -823.396003
 Sum of electronic and thermal Free Energies=         -823.468139

                     E (Thermal)             CV                S
                      KCal/Mol        Cal/Mol-Kelvin    Cal/Mol-Kelvin
 Total                  228.676             70.920            151.823
 Electronic               0.000              0.000              0.000
 Translational            0.889              2.981             42.557
 Rotational               0.889              2.981             34.238
 Vibrational            226.899             64.959             75.028
 Vibration     1          0.593              1.986              7.371
 Vibration     2          0.593              1.985              6.386
 Vibration     3          0.594              1.984              5.812
 Vibration     4          0.594              1.982              5.508
 Vibration     5          0.594              1.982              5.422
 Vibration     6          0.595              1.980              5.154
 Vibration     7          0.597              1.972              4.375
 Vibration     8          0.605              1.947              3.401
 Vibration     9          0.615              1.914              2.818
 Vibration    10          0.620              1.897              2.604
 Vibration    11          0.629              1.868              2.334
 Vibration    12          0.641              1.830              2.069
 Vibration    13          0.651              1.799              1.897
 Vibration    14          0.655              1.786              1.832
 Vibration    15          0.685              1.697              1.488
 Vibration    16          0.693              1.673              1.416
 Vibration    17          0.709              1.626              1.287
 Vibration    18          0.729              1.570              1.154
 Vibration    19          0.739              1.543              1.099
 Vibration    20          0.745              1.525              1.062
 Vibration    21          0.762              1.480              0.980
 Vibration    22          0.780              1.432              0.901
 Vibration    23          0.790              1.407              0.862
 Vibration    24          0.849              1.265              0.676
 Vibration    25          0.860              1.239              0.646
 Vibration    26          0.941              1.065              0.477
 Vibration    27          0.951              1.045              0.460

                           ! Non-Optimized Parameters !
 Normal termination of Gaussian 16 at Mon Dec 14 17:05:46 2020.

 ----------------------------------------------------------------------
 # B3LYP/6-311++G(d,p) empiricaldispersion=gd3bj scf=xqc pop=npa geom=c
 heck
 ----------------------------------------------------------------------

 --------------------------------------
 CID_81341782_JID_9595_Energie_neutraal
 --------------------------------------
 Structure from the checkpoint file:  "JID_9595.chk"
 Charge =  0 Multiplicity = 1

 SCF Done:  E(RB3LYP) =  -823.988325321     A.U. after   14 cycles
 Normal termination of Gaussian 16 at Mon Dec 14 17:14:10 2020.

 ----------------------------------------------------------------------
 # B3LYP/6-311++G(d,p) empiricaldispersion=gd3bj scf=xqc pop=npa geom=c
 heck
 ----------------------------------------------------------------------

 ------------------------------------
 CID_81341782_JID_9595_Energie_kation
 ------------------------------------
 Structure from the checkpoint file:  "JID_9595.chk"
 Charge =  1 Multiplicity = 2

 SCF Done:  E(UB3LYP) =  -823.707671843     A.U. after   33 cycles
 SCF Done:  E(UB3LYP) =  -823.707674709     a.u. after    2 cycles
 Normal termination of Gaussian 16 at Mon Dec 14 18:11:20 2020.
 Gaussian 16:  ES64L-G16RevA.03 25-Dec-2016

 ----------------------------------------------------------------------
 # B3LYP/6-311++G(d,p) empiricaldispersion=gd3bj scf=xqc pop=npa geom=c
 heck
 ----------------------------------------------------------------------

 -----------------------------------
 CID_81341782_JID_9595_Energie_anion
 -----------------------------------
 Structure from the checkpoint file:  "JID_9595.chk"
 Charge = -1 Multiplicity = 2

                         Standard orientation:
 ---------------------------------------------------------------------
 Center     Atomic      Atomic             Coordinates (Angstroms)
 Number     Number       Type             X           Y           Z
 ---------------------------------------------------------------------
      1          6           0        6.105260   -1.066290    0.498435
      2          6           0        5.843943   -0.370850   -0.841757
      3          6           0        4.423042    0.179706   -0.979696
      4          7           0        4.170022    1.251150   -0.016475
      5          6           0        2.842829    1.867628   -0.141492
      6          6           0        1.673835    0.933503    0.110833
      7          6           0        1.008223    0.293845   -0.941419
      8          6           0       -0.017904   -0.616952   -0.697685
      9          6           0       -0.409373   -0.904770    0.612298
     10          6           0        0.242904   -0.262407    1.669173
     11          6           0        1.274598    0.640356    1.420268
     12          6           0       -1.501653   -1.915344    0.890246
     13          8           0       -2.479813   -2.001622   -0.140267
     14          6           0       -3.343299   -0.956006   -0.229056
     15          7           0       -4.336794   -1.050092   -1.104224
     16          7           0       -5.001741    0.127671   -0.950773
     17          6           0       -4.461296    0.947396   -0.012167
     18          6           0       -3.361546    0.269199    0.488692
     19          6           0       -5.033766    2.285671    0.326512
     20          1           0        6.052323   -0.362482    1.337413
     21          1           0        7.102883   -1.518132    0.520939
     22          1           0        5.372752   -1.863045    0.679279
     23          1           0        6.556091    0.452051   -0.978048
     24          1           0        6.014941   -1.084479   -1.658223
     25          1           0        4.295577    0.609029   -1.982528
     26          1           0        3.700270   -0.653217   -0.902234
     27          1           0        4.257181    0.873913    0.926118
     28          1           0        2.804647    2.706322    0.564093
     29          1           0        2.769694    2.291564   -1.150407
     30          1           0        1.295900    0.517096   -1.966134
     31          1           0       -0.534277   -1.098274   -1.522220
     32          1           0       -0.064918   -0.463024    2.693463
     33          1           0        1.767723    1.137089    2.253843
     34          1           0       -1.082400   -2.925495    0.945579
     35          1           0       -1.984006   -1.701499    1.854363
     36          1           0       -5.817168    0.294039   -1.519468
     37          1           0       -2.663966    0.627385    1.228868
     38          1           0       -5.184213    2.900600   -0.569117
     39          1           0       -6.001467    2.199046    0.836832
     40          1           0       -4.354257    2.825268    0.990922
 ---------------------------------------------------------------------

 SCF Done:  E(UB3LYP) =  -823.979732053     A.U. after   33 cycles
 SCF Done:  E(UB3LYP) =  -823.979732053     a.u. after    1 cycles

 The electronic state is 2-A.
 Alpha  occ. eigenvalues --  -19.06250 -14.28353 -14.22504 -14.21527 -10.15033
 Alpha  occ. eigenvalues --  -10.14612 -10.12241 -10.11151 -10.10814 -10.09354
 Alpha  occ. eigenvalues --  -10.08933 -10.08883 -10.08812 -10.08745 -10.08671
 Alpha  occ. eigenvalues --  -10.08594 -10.08582 -10.08314 -10.06803  -0.98811
 Alpha  occ. eigenvalues --   -0.94102  -0.82640  -0.77347  -0.73508  -0.70513
 Alpha  occ. eigenvalues --   -0.69555  -0.68211  -0.66122  -0.62887  -0.61671
 Alpha  occ. eigenvalues --   -0.59722  -0.56146  -0.52903  -0.51366  -0.50581
 Alpha  occ. eigenvalues --   -0.49918  -0.47701  -0.43359  -0.42634  -0.41135
 Alpha  occ. eigenvalues --   -0.40326  -0.38969  -0.37583  -0.37175  -0.36508
 Alpha  occ. eigenvalues --   -0.36345  -0.34872  -0.34542  -0.34374  -0.33578
 Alpha  occ. eigenvalues --   -0.33177  -0.32294  -0.32144  -0.31294  -0.30204
 Alpha  occ. eigenvalues --   -0.29171  -0.28564  -0.27455  -0.26466  -0.26094
 Alpha  occ. eigenvalues --   -0.25993  -0.25289  -0.24777  -0.24201  -0.20200
 Alpha  occ. eigenvalues --   -0.17157  -0.16438  -0.15133  -0.14338  -0.13311
 Alpha  occ. eigenvalues --    0.03640
 Alpha virt. eigenvalues --    0.04947   0.05856   0.06245   0.06752   0.06870
 Alpha virt. eigenvalues --    0.07412   0.07713   0.08273   0.08648   0.08815
 Alpha virt. eigenvalues --    0.09233   0.09436   0.10043   0.10390   0.10816

  Beta  occ. eigenvalues --  -19.06246 -14.28320 -14.22500 -14.21510 -10.15032
  Beta  occ. eigenvalues --  -10.14610 -10.12241 -10.11145 -10.10811 -10.09309
  Beta  occ. eigenvalues --  -10.08895 -10.08876 -10.08791 -10.08732 -10.08654
  Beta  occ. eigenvalues --  -10.08595 -10.08527 -10.08290 -10.06793  -0.98800
  Beta  occ. eigenvalues --   -0.94078  -0.82606  -0.77290  -0.73476  -0.70472
  Beta  occ. eigenvalues --   -0.69520  -0.68152  -0.66075  -0.62846  -0.61607
  Beta  occ. eigenvalues --   -0.59685  -0.56103  -0.52867  -0.51316  -0.50525
  Beta  occ. eigenvalues --   -0.49883  -0.47666  -0.43315  -0.42595  -0.41112
  Beta  occ. eigenvalues --   -0.40297  -0.38940  -0.37532  -0.37138  -0.36470
  Beta  occ. eigenvalues --   -0.36311  -0.34837  -0.34509  -0.34342  -0.33548
  Beta  occ. eigenvalues --   -0.33145  -0.32256  -0.32100  -0.31251  -0.30153
  Beta  occ. eigenvalues --   -0.29147  -0.28525  -0.27365  -0.26441  -0.26069
  Beta  occ. eigenvalues --   -0.25970  -0.25260  -0.24750  -0.24169  -0.20188
  Beta  occ. eigenvalues --   -0.17067  -0.16253  -0.15110  -0.14279  -0.13290
  Beta virt. eigenvalues --    0.05336   0.06078   0.06391   0.06565   0.06814
  Beta virt. eigenvalues --    0.07016   0.07710   0.08223   0.08544   0.08839
  Beta virt. eigenvalues --    0.09282   0.09316   0.09669   0.09983   0.10789

 Mulliken charges and spin densities:
               1          2
     1  C    0.095955  -0.606095
     2  C   -0.357381  -0.063253
     3  C   -0.197286  -0.080173
     4  N    0.046825  -0.002286
     5  C   -0.140097  -0.660002
     6  C    0.911217  -0.130817
     7  C   -0.849204   0.433924
     8  C   -0.668779   0.250285
     9  C    1.285280  -0.418805
    10  C   -0.583121   0.157203
    11  C   -0.252998  -0.164403
    12  C    0.107153  -0.561225
    13  O   -0.110585   0.000901
    14  C   -0.195833  -0.059572
    15  N   -0.291708   0.144864
    16  N   -0.112686  -0.011470
    17  C   -0.966798   1.132593
    18  C    0.535336  -0.514164
    19  C    1.609328  -2.255667
    20  H   -0.176017   0.314835
    21  H   -0.121036   0.263396
    22  H    0.058977   0.079124
    23  H    0.089283   0.062068
    24  H    0.037159   0.087744
    25  H    0.090209   0.057540
    26  H    0.197686  -0.049596
    27  H    0.300313  -0.116329
    28  H   -0.061957   0.250929
    29  H    0.087990   0.064368
    30  H    0.040276   0.111720
    31  H    0.130577   0.057664
    32  H   -0.296102   0.459687
    33  H   -0.478555   0.658742
    34  H    0.216482  -0.005583
    35  H    0.086352   0.082912
    36  H   -0.077415   0.398267
    37  H    0.127367   0.018253
    38  H   -0.348206   0.503406
    39  H   -0.408792   0.579060
    40  H   -0.359206   0.529953
 Sum of Mulliken charges =  -1.00000   1.00000

 Dipole moment (field-independent basis, Debye):
    X=              5.2485    Y=             -3.5361    Z=             -1.3717  Tot=              6.4755
 Quadrupole moment (field-independent basis, Debye-Ang):
   XX=           -256.4811   YY=           -158.5680   ZZ=           -148.0758
   XY=             10.1596   XZ=            -11.9715   YZ=             -7.4371

 Summary of Natural Population Analysis:

                                       Natural Population
                Natural  -----------------------------------------------
    Atom  No    Charge         Core      Valence    Rydberg      Total
 -----------------------------------------------------------------------
      C    1   -0.28845      0.99967     2.28440    0.00439     3.28845
      C    2   -0.19233      0.99964     2.18512    0.00757     3.19233
      C    3   -0.08815      0.99962     2.07922    0.00931     3.08815
      N    4   -0.33484      0.99975     2.82357    0.01152     3.83484
      C    5   -0.09464      0.99959     2.08193    0.01312     3.09464
      C    6   -0.02373      0.99950     2.01433    0.00990     3.02373
      C    7   -0.09219      0.99951     2.08441    0.00826     3.09219
      C    8   -0.09846      0.99951     2.08940    0.00954     3.09846
      C    9   -0.03049      0.99950     2.02170    0.00929     3.03049
      C   10   -0.09677      0.99951     2.08721    0.01004     3.09677
      C   11   -0.09792      0.99951     2.08751    0.01090     3.09792
      C   12   -0.01514      0.99953     2.00314    0.01248     3.01514
      O   13   -0.27171      0.99985     3.26406    0.00780     4.27171
      C   14    0.23288      0.99946     1.74912    0.01854     2.76712
      N   15   -0.17967      0.99969     2.66692    0.01305     3.67967
      N   16   -0.17435      0.99965     2.66142    0.01328     3.67435
      C   17    0.09023      0.99957     1.89882    0.01137     2.90977
      C   18   -0.19687      0.99945     2.18878    0.00865     3.19687
      C   19   -0.30301      0.99963     2.29777    0.00560     3.30301
      H   20    0.09698      0.00000     0.40182    0.00120     0.40302
      H   21    0.09869      0.00000     0.40020    0.00110     0.40131
      H   22    0.09630      0.00000     0.40238    0.00132     0.40370
      H   23    0.09653      0.00000     0.40197    0.00150     0.40347
      H   24    0.09345      0.00000     0.40531    0.00124     0.40655
      H   25    0.08973      0.00000     0.40901    0.00126     0.41027
      H   26    0.08304      0.00000     0.41522    0.00174     0.41696
      H   27    0.17078      0.00000     0.32535    0.00387     0.32922
      H   28    0.09956      0.00000     0.39942    0.00102     0.40044
      H   29    0.09314      0.00000     0.40576    0.00110     0.40686
      H   30    0.09852      0.00000     0.40052    0.00096     0.40148
      H   31    0.10702      0.00000     0.39153    0.00146     0.39298
      H   32    0.10026      0.00000     0.39851    0.00123     0.39974
      H   33    0.10067      0.00000     0.39782    0.00150     0.39933
      H   34    0.09668      0.00000     0.40228    0.00104     0.40332
      H   35    0.08938      0.00000     0.40939    0.00123     0.41062
      H   36    0.19901      0.00000     0.29755    0.00344     0.30099
      H   37    0.11585      0.00000     0.38273    0.00142     0.38415
      H   38    0.10851      0.00000     0.38983    0.00166     0.39149
      H   39    0.10926      0.00000     0.38885    0.00189     0.39074
      H   40    0.11224      0.00000     0.38645    0.00131     0.38776
 =======================================================================
   * Total *    0.00000     18.99215    50.78075    0.22710    70.00000

 Normal termination of Gaussian 16 at Mon Dec 14 18:39:35 2020.
