 Gaussian 16, Revision A.03,

 -----------------------------------------------------------
 # opt freq B3LYP/6-31G(d) empiricaldispersion=gd3bj scf=xqc
 -----------------------------------------------------------

 ------------------------------
 CID_61525346_JID_5230_neutraal
 ------------------------------
 Symbolic Z-matrix:
 Charge =  0 Multiplicity = 1

 SCF Done:  E(RB3LYP) =  -670.287183010     A.U. after   15 cycles
 SCF Done:  E(RB3LYP) =  -670.290573049     A.U. after   13 cycles
 SCF Done:  E(RB3LYP) =  -670.289781472     A.U. after   14 cycles
 SCF Done:  E(RB3LYP) =  -670.291298905     A.U. after   12 cycles
 SCF Done:  E(RB3LYP) =  -670.291396224     A.U. after   11 cycles
 SCF Done:  E(RB3LYP) =  -670.291511328     A.U. after   13 cycles
 SCF Done:  E(RB3LYP) =  -670.291657149     A.U. after   11 cycles
 SCF Done:  E(RB3LYP) =  -670.291744526     A.U. after   12 cycles
 SCF Done:  E(RB3LYP) =  -670.291813672     A.U. after   11 cycles
 SCF Done:  E(RB3LYP) =  -670.292003714     A.U. after   13 cycles
 SCF Done:  E(RB3LYP) =  -670.292723161     A.U. after    9 cycles
 SCF Done:  E(RB3LYP) =  -670.292721487     A.U. after   11 cycles
 SCF Done:  E(RB3LYP) =  -670.292723159     A.U. after   10 cycles
 SCF Done:  E(RB3LYP) =  -670.292723872     A.U. after   10 cycles
 SCF Done:  E(RB3LYP) =  -670.292723596     A.U. after    9 cycles
 SCF Done:  E(RB3LYP) =  -670.292723648     A.U. after    8 cycles
 Optimization completed.
    -- Stationary point found.
 Normal termination of Gaussian 16 at Thu Dec 10 15:05:43 2020.

 --------------------------------------------------------------------
 #N Geom=AllCheck Guess=TCheck SCRF=Check GenChk RB3LYP/6-31G(d) Freq
 --------------------------------------------------------------------

 Structure from the checkpoint file:  "JID_5230.chk"
 ------------------------------
 CID_61525346_JID_5230_neutraal
 ------------------------------
 Charge =  0 Multiplicity = 1

 SCF Done:  E(RB3LYP) =  -670.292723648     A.U. after    1 cycles

  Exact polarizability: 219.744  16.180 115.965   1.732  13.272  90.086
 Approx polarizability: 312.877  38.757 185.306   5.285  32.249 136.149

                      1                      2                      3
                      A                      A                      A
 Frequencies --      8.4346                16.1097                46.3997
 Red. masses --      5.0350                 3.3788                 7.0945
 Frc consts  --      0.0002                 0.0005                 0.0090
 IR Inten    --      2.4662                 2.6728                 1.9626

                      4                      5                      6
                      A                      A                      A
 Frequencies --     60.6973                65.1010                77.2432
 Red. masses --      4.7833                 3.4996                 3.6516
 Frc consts  --      0.0104                 0.0087                 0.0128
 IR Inten    --      0.6537                 0.2989                 1.1686

                      7                      8                      9
                      A                      A                      A
 Frequencies --    145.7207               155.3944               190.8866
 Red. masses --      1.0607                 4.3040                 4.2464
 Frc consts  --      0.0133                 0.0612                 0.0912
 IR Inten    --      0.2459                 2.1613                 1.0735

                     10                     11                     12
                      A                      A                      A
 Frequencies --    216.2917               261.5932               289.5393
 Red. masses --      3.7910                 3.5211                 2.2110
 Frc consts  --      0.1045                 0.1420                 0.1092
 IR Inten    --      6.3042                20.7452                 5.0110

                     13                     14                     15
                      A                      A                      A
 Frequencies --    316.0822               332.5651               380.0161
 Red. masses --      4.7693                 1.6067                 3.3617
 Frc consts  --      0.2807                 0.1047                 0.2860
 IR Inten    --      7.2767               110.8420                38.7143

                     16                     17                     18
                      A                      A                      A
 Frequencies --    407.3389               448.1890               473.7029
 Red. masses --      5.5591                 2.9637                 2.4814
 Frc consts  --      0.5435                 0.3508                 0.3281
 IR Inten    --      1.2683                 2.1154                 8.3772

                     19                     20                     21
                      A                      A                      A
 Frequencies --    522.2976               532.8713               551.9396
 Red. masses --      4.8731                 1.8509                 4.9648
 Frc consts  --      0.7832                 0.3097                 0.8911
 IR Inten    --      8.2148                36.7419                32.4416

                     22                     23                     24
                      A                      A                      A
 Frequencies --    585.2967               594.7469               628.8043
 Red. masses --      5.0834                 5.6699                 2.0034
 Frc consts  --      1.0260                 1.1816                 0.4667
 IR Inten    --      0.3673                 6.3106                83.0548

                     25                     26                     27
                      A                      A                      A
 Frequencies --    657.9008               707.8350               722.5316
 Red. masses --      3.7414                 2.4724                 5.4507
 Frc consts  --      0.9541                 0.7299                 1.6765
 IR Inten    --      9.9355                 8.6566                 6.4818

                     28                     29                     30
                      A                      A                      A
 Frequencies --    799.4881               816.8516               857.0318
 Red. masses --      1.7874                 2.5221                 4.5376
 Frc consts  --      0.6731                 0.9915                 1.9637
 IR Inten    --     14.3705                11.2043                 4.1715

                     31                     32                     33
                      A                      A                      A
 Frequencies --    897.1532               929.8851               971.8707
 Red. masses --      1.3538                 1.3783                 1.6304
 Frc consts  --      0.6420                 0.7022                 0.9073
 IR Inten    --      0.6902                 3.2159                14.9139

                     34                     35                     36
                      A                      A                      A
 Frequencies --    986.2363               990.0940              1016.2154
 Red. masses --      1.8421                 1.3364                 2.7347
 Frc consts  --      1.0557                 0.7718                 1.6639
 IR Inten    --     36.0304                10.9119                12.6336

                     37                     38                     39
                      A                      A                      A
 Frequencies --   1020.3351              1053.9479              1060.9961
 Red. masses --      6.0716                 1.7007                 5.4496
 Frc consts  --      3.7243                 1.1130                 3.6145
 IR Inten    --      0.1384                13.2893               106.5978

                     40                     41                     42
                      A                      A                      A
 Frequencies --   1068.3681              1125.3253              1150.0873
 Red. masses --      1.7362                 1.6698                 2.4013
 Frc consts  --      1.1676                 1.2459                 1.8713
 IR Inten    --      7.6292                 5.8172                 8.2973

                     43                     44                     45
                      A                      A                      A
 Frequencies --   1196.9886              1206.0291              1224.0535
 Red. masses --      1.9390                 1.1188                 1.0850
 Frc consts  --      1.6368                 0.9588                 0.9578
 IR Inten    --      1.1439                 1.7676                17.2925

                     46                     47                     48
                      A                      A                      A
 Frequencies --   1294.4505              1311.5525              1318.8658
 Red. masses --      1.4042                 3.8746                 2.1938
 Frc consts  --      1.3863                 3.9269                 2.2483
 IR Inten    --     43.4369                 3.8573                29.4879

                     49                     50                     51
                      A                      A                      A
 Frequencies --   1351.1914              1362.2697              1372.0707
 Red. masses --      1.6816                 2.4142                 1.2200
 Frc consts  --      1.8089                 2.6397                 1.3532
 IR Inten    --    126.9926                 2.5189                 3.6675

                     52                     53                     54
                      A                      A                      A
 Frequencies --   1397.8538              1428.0989              1431.9616
 Red. masses --      1.4923                 1.5361                 1.2455
 Frc consts  --      1.7181                 1.8458                 1.5047
 IR Inten    --     10.8384                74.5148               151.6832

                     55                     56                     57
                      A                      A                      A
 Frequencies --   1473.2271              1490.6221              1496.7535
 Red. masses --      2.6768                 1.6638                 1.0706
 Frc consts  --      3.4230                 2.1781                 1.4131
 IR Inten    --     15.8224                54.2877                21.5192

                     58                     59                     60
                      A                      A                      A
 Frequencies --   1514.8452              1519.1416              1520.7077
 Red. masses --      1.0724                 1.1254                 1.0806
 Frc consts  --      1.4500                 1.5302                 1.4723
 IR Inten    --      2.5213                15.0127                 1.4302

                     61                     62                     63
                      A                      A                      A
 Frequencies --   1537.1309              1639.3889              1660.7158
 Red. masses --      2.3745                 5.1834                 5.7155
 Frc consts  --      3.3056                 8.2078                 9.2875
 IR Inten    --     26.1329                 7.1832                13.5475

                     64                     65                     66
                      A                      A                      A
 Frequencies --   1802.7914              2344.3809              2995.6767
 Red. masses --      7.9977                11.9131                 1.0716
 Frc consts  --     15.3146                38.5772                 5.6659
 IR Inten    --    397.3116                 8.9758                62.9572

                     67                     68                     69
                      A                      A                      A
 Frequencies --   3057.1321              3060.6912              3087.4424
 Red. masses --      1.0574                 1.0425                 1.0900
 Frc consts  --      5.8223                 5.7539                 6.1217
 IR Inten    --     15.4064                 9.9532                20.9857

                     70                     71                     72
                      A                      A                      A
 Frequencies --   3092.3740              3122.0953              3182.0542
 Red. masses --      1.1038                 1.0999                 1.1007
 Frc consts  --      6.2191                 6.3169                 6.5667
 IR Inten    --     14.2402                 8.3762                 7.7877

                     73                     74                     75
                      A                      A                      A
 Frequencies --   3190.1903              3194.8562              3212.7217
 Red. masses --      1.0905                 1.0869                 1.0907
 Frc consts  --      6.5390                 6.5367                 6.6326
 IR Inten    --      8.1509                 4.5933                 5.8611

                     76                     77                     78
                      A                      A                      A
 Frequencies --   3220.2873              3601.0396              3740.7754
 Red. masses --      1.0959                 1.0764                 1.0663
 Frc consts  --      6.6962                 8.2236                 8.7911
 IR Inten    --     12.8300                22.0068                14.7242

 - Thermochemistry -
 -------------------
 Temperature   298.150 Kelvin.  Pressure   1.00000 Atm.
 Atom     1 has atomic number  6 and mass  12.00000

 Molecular mass:   203.09463 amu.
 Principal axes and moments of inertia in atomic units:
                           1         2         3
     Eigenvalues --  1293.353988489.024999066.70259
           X            0.99999  -0.00413   0.00029
           Y            0.00413   0.99997   0.00592
           Z           -0.00032  -0.00592   0.99998
 This molecule is an asymmetric top.
 Rotational symmetry number  1.
 Warning -- assumption of classical behavior for rotation
           may cause significant error
 Rotational temperatures (Kelvin)      0.06697     0.01020     0.00955
 Rotational constants (GHZ):           1.39540     0.21260     0.19905
 Zero-point vibrational energy     596887.8 (Joules/Mol)
                                  142.65960 (Kcal/Mol)
 Warning -- explicit consideration of  23 degrees of freedom as
           vibrations may cause significant error
 Vibrational temperatures:     12.14    23.18    66.76    87.33    93.67
          (Kelvin)            111.14   209.66   223.58   274.64   311.20
                              376.37   416.58   454.77   478.49   546.76
                              586.07   644.84   681.55   751.47   766.68
                              794.12   842.11   855.71   904.71   946.57
                             1018.42  1039.56  1150.29  1175.27  1233.08
                             1290.80  1337.90  1398.31  1418.97  1424.52
                             1462.11  1468.03  1516.40  1526.54  1537.14
                             1619.09  1654.72  1722.20  1735.21  1761.14
                             1862.43  1887.03  1897.55  1944.06  1960.00
                             1974.10  2011.20  2054.72  2060.27  2119.65
                             2144.67  2153.49  2179.52  2185.71  2187.96
                             2211.59  2358.71  2389.40  2593.81  3373.04
                             4310.11  4398.53  4403.65  4442.14  4449.24
                             4492.00  4578.27  4589.97  4596.69  4622.39
                             4633.28  5181.09  5382.14

 Zero-point correction=                           0.227343 (Hartree/Particle)
 Thermal correction to Energy=                    0.242689
 Thermal correction to Enthalpy=                  0.243633
 Thermal correction to Gibbs Free Energy=         0.180604
 Sum of electronic and zero-point Energies=           -670.065381
 Sum of electronic and thermal Energies=              -670.050035
 Sum of electronic and thermal Enthalpies=            -670.049090
 Sum of electronic and thermal Free Energies=         -670.112119

                     E (Thermal)             CV                S
                      KCal/Mol        Cal/Mol-Kelvin    Cal/Mol-Kelvin
 Total                  152.290             55.196            132.656
 Electronic               0.000              0.000              0.000
 Translational            0.889              2.981             41.830
 Rotational               0.889              2.981             32.965
 Vibrational            150.512             49.235             57.861
 Vibration     1          0.593              1.987              8.349
 Vibration     2          0.593              1.986              7.064
 Vibration     3          0.595              1.979              4.965
 Vibration     4          0.597              1.973              4.434
 Vibration     5          0.597              1.971              4.296
 Vibration     6          0.599              1.964              3.960
 Vibration     7          0.617              1.907              2.727
 Vibration     8          0.620              1.897              2.605
 Vibration     9          0.634              1.852              2.219
 Vibration    10          0.645              1.816              1.990
 Vibration    11          0.669              1.743              1.651
 Vibration    12          0.686              1.693              1.477
 Vibration    13          0.703              1.643              1.330
 Vibration    14          0.715              1.610              1.248
 Vibration    15          0.750              1.513              1.039
 Vibration    16          0.772              1.454              0.936
 Vibration    17          0.807              1.365              0.801
 Vibration    18          0.830              1.308              0.727
 Vibration    19          0.877              1.201              0.605
 Vibration    20          0.888              1.177              0.581
 Vibration    21          0.907              1.135              0.540
 Vibration    22          0.942              1.063              0.476
 Vibration    23          0.952              1.043              0.459

                           ! Non-Optimized Parameters !
 Normal termination of Gaussian 16 at Thu Dec 10 15:13:42 2020.

 ----------------------------------------------------------------------
 # B3LYP/6-311++G(d,p) empiricaldispersion=gd3bj scf=xqc pop=npa geom=c
 heck
 ----------------------------------------------------------------------

 --------------------------------------
 CID_61525346_JID_5230_Energie_neutraal
 --------------------------------------
 Structure from the checkpoint file:  "JID_5230.chk"
 Charge =  0 Multiplicity = 1

 SCF Done:  E(RB3LYP) =  -670.494633250     A.U. after   15 cycles
 Normal termination of Gaussian 16 at Thu Dec 10 15:17:39 2020.

 ----------------------------------------------------------------------
 # B3LYP/6-311++G(d,p) empiricaldispersion=gd3bj scf=xqc pop=npa geom=c
 heck
 ----------------------------------------------------------------------

 ------------------------------------
 CID_61525346_JID_5230_Energie_kation
 ------------------------------------
 Structure from the checkpoint file:  "JID_5230.chk"
 Charge =  1 Multiplicity = 2

 SCF Done:  E(UB3LYP) =  -670.184191583     A.U. after   30 cycles
 Normal termination of Gaussian 16 at Thu Dec 10 15:28:01 2020.
 Gaussian 16:  ES64L-G16RevA.03 25-Dec-2016

 ----------------------------------------------------------------------
 # B3LYP/6-311++G(d,p) empiricaldispersion=gd3bj scf=xqc pop=npa geom=c
 heck
 ----------------------------------------------------------------------

 -----------------------------------
 CID_61525346_JID_5230_Energie_anion
 -----------------------------------
 Structure from the checkpoint file:  "JID_5230.chk"
 Charge = -1 Multiplicity = 2

                         Standard orientation:
 ---------------------------------------------------------------------
 Center     Atomic      Atomic             Coordinates (Angstroms)
 Number     Number       Type             X           Y           Z
 ---------------------------------------------------------------------
      1          6           0        3.217564   -1.495544    1.298246
      2          6           0        3.970932   -0.655258    0.281726
      3          8           0        5.085620   -0.198918    0.492348
      4          7           0        3.336871   -0.444487   -0.922288
      5          6           0        1.949692   -0.733577   -1.228621
      6          6           0        0.924789    0.210363   -0.609839
      7          6           0       -0.424688   -0.145154   -0.639372
      8          6           0       -1.408757    0.700743   -0.101918
      9          6           0       -1.017712    1.922497    0.477986
     10          6           0        0.326546    2.274748    0.510513
     11          6           0        1.295825    1.425942   -0.029400
     12          6           0       -2.783718    0.319039   -0.137588
     13          6           0       -3.950717   -0.006147   -0.190770
     14          6           0       -5.355086   -0.426220   -0.173298
     15          8           0       -5.578137   -1.614417    0.580863
     16          1           0        3.832358   -1.572668    2.195066
     17          1           0        3.020054   -2.501622    0.910176
     18          1           0        2.253814   -1.041586    1.552693
     19          1           0        3.847035    0.172976   -1.541219
     20          1           0        1.848664   -0.714261   -2.319994
     21          1           0        1.719414   -1.761543   -0.927387
     22          1           0       -0.730988   -1.090112   -1.080432
     23          1           0       -1.774451    2.576650    0.898266
     24          1           0        0.627008    3.215902    0.961757
     25          1           0        2.344047    1.704448    0.008786
     26          1           0       -5.695830   -0.655552   -1.188872
     27          1           0       -5.978769    0.405017    0.193905
     28          1           0       -5.198334   -1.468139    1.461582
 ---------------------------------------------------------------------

 SCF Done:  E(UB3LYP) =  -670.498222136     A.U. after   31 cycles

 The electronic state is 2-A.
 Alpha  occ. eigenvalues --  -19.00793 -18.99371 -14.23842 -10.17995 -10.12095
 Alpha  occ. eigenvalues --  -10.11435 -10.08176 -10.05851 -10.05066 -10.04668
 Alpha  occ. eigenvalues --  -10.04308 -10.04204 -10.03373 -10.03238 -10.02572
 Alpha  occ. eigenvalues --   -0.94464  -0.91008  -0.82842  -0.73368  -0.66268
 Alpha  occ. eigenvalues --   -0.64950  -0.64155  -0.62078  -0.58218  -0.56269
 Alpha  occ. eigenvalues --   -0.49566  -0.48495  -0.47054  -0.42099  -0.40415
 Alpha  occ. eigenvalues --   -0.38981  -0.38854  -0.36059  -0.35477  -0.34509
 Alpha  occ. eigenvalues --   -0.33134  -0.32951  -0.31997  -0.31127  -0.30849
 Alpha  occ. eigenvalues --   -0.30244  -0.29681  -0.27111  -0.24844  -0.24621
 Alpha  occ. eigenvalues --   -0.23411  -0.22544  -0.18425  -0.17226  -0.16702
 Alpha  occ. eigenvalues --   -0.16039  -0.13513  -0.13029  -0.10739   0.04459
 Alpha virt. eigenvalues --    0.06928   0.07875   0.08240   0.08955   0.09809
 Alpha virt. eigenvalues --    0.09935   0.10288   0.10503   0.11111   0.11725
 Alpha virt. eigenvalues --    0.12391   0.12688   0.13128   0.13973   0.14438

  Beta  occ. eigenvalues --  -19.00689 -18.99360 -14.23830 -10.17985 -10.12097
  Beta  occ. eigenvalues --  -10.11428 -10.08175 -10.05889 -10.04822 -10.04674
  Beta  occ. eigenvalues --  -10.04228 -10.04074 -10.03193 -10.03075 -10.02405
  Beta  occ. eigenvalues --   -0.94443  -0.90752  -0.82819  -0.73032  -0.65993
  Beta  occ. eigenvalues --   -0.64826  -0.63955  -0.61673  -0.58035  -0.56081
  Beta  occ. eigenvalues --   -0.49224  -0.48285  -0.46915  -0.41927  -0.40279
  Beta  occ. eigenvalues --   -0.38912  -0.38831  -0.35891  -0.35377  -0.34306
  Beta  occ. eigenvalues --   -0.32928  -0.32803  -0.31955  -0.31026  -0.30807
  Beta  occ. eigenvalues --   -0.30194  -0.29589  -0.27065  -0.24464  -0.23861
  Beta  occ. eigenvalues --   -0.23252  -0.22417  -0.17844  -0.16794  -0.16399
  Beta  occ. eigenvalues --   -0.15995  -0.13396  -0.12293  -0.09413
  Beta virt. eigenvalues --    0.06918   0.07862   0.08149   0.08889   0.09232
  Beta virt. eigenvalues --    0.09791   0.10217   0.10541   0.10747   0.11193
  Beta virt. eigenvalues --    0.11744   0.12335   0.12622   0.13080   0.13864

 Mulliken charges and spin densities:
               1          2
     1  C   -0.332805  -0.146454
     2  C    0.045808   0.065355
     3  O   -0.363756   0.006867
     4  N   -0.167244   0.017627
     5  C   -0.273720  -0.355970
     6  C    0.656542   0.083322
     7  C   -0.461857   0.208684
     8  C    0.230856   0.145624
     9  C   -0.681986   0.113310
    10  C   -0.496095   0.017050
    11  C   -0.432421   0.235363
    12  C    0.206029  -0.031982
    13  C   -0.234637   0.479115
    14  C    0.298989  -0.690991
    15  O   -0.206967  -0.048669
    16  H    0.164058   0.001757
    17  H    0.121262   0.024269
    18  H    0.152700   0.025082
    19  H    0.180565   0.122880
    20  H    0.031510   0.135267
    21  H    0.113001   0.044863
    22  H    0.123075  -0.003314
    23  H    0.074050   0.027563
    24  H    0.114356   0.014667
    25  H    0.085715   0.028026
    26  H    0.048333   0.105748
    27  H    0.030572   0.112007
    28  H   -0.025934   0.262933
 Sum of Mulliken charges =  -1.00000   1.00000

 Dipole moment (field-independent basis, Debye):
    X=              3.9153    Y=             -0.1099    Z=             -1.1529  Tot=              4.0830
 Quadrupole moment (field-independent basis, Debye-Ang):
   XX=           -193.3692   YY=           -105.7903   ZZ=            -99.9766
   XY=            -17.5527   XZ=              1.1386   YZ=              2.6547

 Summary of Natural Population Analysis:

                                       Natural Population
                Natural  -----------------------------------------------
    Atom  No    Charge         Core      Valence    Rydberg      Total
 -----------------------------------------------------------------------
      C    1   -0.33838      0.99962     2.33440    0.00436     3.33838
      C    2    0.34459      0.99971     1.63307    0.02264     2.65541
      O    3   -0.32687      0.99988     3.32083    0.00616     4.32687
      N    4   -0.32049      0.99968     2.81078    0.01004     3.82049
      C    5   -0.09244      0.99958     2.08241    0.01044     3.09244
      C    6   -0.04280      0.99949     2.03500    0.00831     3.04280
      C    7   -0.06166      0.99949     2.05398    0.00820     3.06166
      C    8   -0.02619      0.99948     2.01798    0.00874     3.02619
      C    9   -0.07140      0.99954     2.06295    0.00891     3.07140
      C   10   -0.10840      0.99957     2.09829    0.01054     3.10840
      C   11   -0.06039      0.99952     2.05236    0.00852     3.06039
      C   12    0.00588      0.99927     1.98673    0.00812     2.99412
      C   13   -0.00721      0.99925     2.00211    0.00586     3.00721
      C   14   -0.04471      0.99955     2.03068    0.01448     3.04471
      O   15   -0.36279      0.99990     3.35561    0.00728     4.36279
      H   16    0.10921      0.00000     0.38966    0.00113     0.39079
      H   17    0.10535      0.00000     0.39351    0.00114     0.39465
      H   18    0.12012      0.00000     0.37885    0.00104     0.37988
      H   19    0.19310      0.00000     0.30393    0.00297     0.30690
      H   20    0.10187      0.00000     0.39676    0.00137     0.39813
      H   21    0.09748      0.00000     0.40113    0.00139     0.40252
      H   22    0.09499      0.00000     0.40403    0.00099     0.40501
      H   23    0.09638      0.00000     0.40281    0.00081     0.40362
      H   24    0.09340      0.00000     0.40576    0.00084     0.40660
      H   25    0.09457      0.00000     0.40403    0.00140     0.40543
      H   26    0.09376      0.00000     0.40473    0.00151     0.40624
      H   27    0.08333      0.00000     0.41517    0.00150     0.41667
      H   28    0.22972      0.00000     0.26525    0.00503     0.27028
 =======================================================================
   * Total *   -0.00000     14.99352    38.84279    0.16370    54.00000

 Normal termination of Gaussian 16 at Thu Dec 10 15:39:04 2020.
