 Gaussian 16, Revision A.03,

 -----------------------------------------------------------
 # opt freq B3LYP/6-31G(d) empiricaldispersion=gd3bj scf=xqc
 -----------------------------------------------------------

 -------------------------------
 CID_142940900_JID_4298_neutraal
 -------------------------------
 Symbolic Z-matrix:
 Charge =  0 Multiplicity = 1

 SCF Done:  E(RB3LYP) =  -939.124848301     A.U. after   15 cycles
 SCF Done:  E(RB3LYP) =  -939.128849291     A.U. after   12 cycles
 SCF Done:  E(RB3LYP) =  -939.129509714     A.U. after   12 cycles
 SCF Done:  E(RB3LYP) =  -939.129655353     A.U. after   11 cycles
 SCF Done:  E(RB3LYP) =  -939.129732074     A.U. after   11 cycles
 SCF Done:  E(RB3LYP) =  -939.129834840     A.U. after   12 cycles
 SCF Done:  E(RB3LYP) =  -939.129887728     A.U. after   12 cycles
 SCF Done:  E(RB3LYP) =  -939.129922156     A.U. after   10 cycles
 SCF Done:  E(RB3LYP) =  -939.130013088     A.U. after   11 cycles
 SCF Done:  E(RB3LYP) =  -939.130037433     A.U. after   10 cycles
 SCF Done:  E(RB3LYP) =  -939.130046630     A.U. after    9 cycles
 SCF Done:  E(RB3LYP) =  -939.130047146     A.U. after    9 cycles
 SCF Done:  E(RB3LYP) =  -939.130047196     A.U. after    7 cycles
 SCF Done:  E(RB3LYP) =  -939.130047355     A.U. after    8 cycles
 SCF Done:  E(RB3LYP) =  -939.130047403     A.U. after    7 cycles
 Optimization completed.
    -- Stationary point found.
 Normal termination of Gaussian 16 at Thu Dec 10 09:24:31 2020.

 --------------------------------------------------------------------
 #N Geom=AllCheck Guess=TCheck SCRF=Check GenChk RB3LYP/6-31G(d) Freq
 --------------------------------------------------------------------

 Structure from the checkpoint file:  "JID_4298.chk"
 -------------------------------
 CID_142940900_JID_4298_neutraal
 -------------------------------
 Charge =  0 Multiplicity = 1

 SCF Done:  E(RB3LYP) =  -939.130047403     A.U. after    1 cycles

  Exact polarizability: 237.676  16.680 140.660 -10.924  -4.501 101.288
 Approx polarizability: 324.169  27.576 235.692 -23.649  -8.225 163.311

                      1                      2                      3
                      A                      A                      A
 Frequencies --     32.5039                47.0027                92.1051
 Red. masses --      4.2775                 4.0782                 3.4118
 Frc consts  --      0.0027                 0.0053                 0.0171
 IR Inten    --      0.5116                 0.8417                 1.7897

                      4                      5                      6
                      A                      A                      A
 Frequencies --     98.4120               119.3806               138.6231
 Red. masses --      3.9898                 1.7405                 1.4462
 Frc consts  --      0.0228                 0.0146                 0.0164
 IR Inten    --      1.4455                 0.2729                 1.0322

                      7                      8                      9
                      A                      A                      A
 Frequencies --    162.0497               189.3250               202.2571
 Red. masses --      3.2965                 2.9040                 2.0992
 Frc consts  --      0.0510                 0.0613                 0.0506
 IR Inten    --      0.6639                 6.7573                 0.5012

                     10                     11                     12
                      A                      A                      A
 Frequencies --    220.8673               246.0664               265.3739
 Red. masses --      2.5991                 2.2339                 1.3696
 Frc consts  --      0.0747                 0.0797                 0.0568
 IR Inten    --      1.2068                 1.0965                 3.0088

                     13                     14                     15
                      A                      A                      A
 Frequencies --    280.5337               290.8967               360.3460
 Red. masses --      2.5732                 2.0061                 3.2019
 Frc consts  --      0.1193                 0.1000                 0.2450
 IR Inten    --      4.0760                 3.1089                 3.3112

                     16                     17                     18
                      A                      A                      A
 Frequencies --    402.3518               424.3641               469.2938
 Red. masses --      3.8826                 3.8373                 3.3932
 Frc consts  --      0.3703                 0.4071                 0.4403
 IR Inten    --      2.1098                 6.4636                 1.4933

                     19                     20                     21
                      A                      A                      A
 Frequencies --    480.4368               529.3262               582.3252
 Red. masses --      4.2008                 5.1025                 5.2684
 Frc consts  --      0.5713                 0.8423                 1.0526
 IR Inten    --      0.3444                 1.5643                17.1983

                     22                     23                     24
                      A                      A                      A
 Frequencies --    592.3207               618.7874               666.8034
 Red. masses --      3.8179                 3.5065                 2.9467
 Frc consts  --      0.7892                 0.7911                 0.7719
 IR Inten    --      2.0244                 4.5087                10.0289

                     25                     26                     27
                      A                      A                      A
 Frequencies --    679.0662               735.3974               738.9584
 Red. masses --      1.5894                 5.0138                 4.1612
 Frc consts  --      0.4318                 1.5976                 1.3388
 IR Inten    --      7.3316                 0.7338                 1.1703

                     28                     29                     30
                      A                      A                      A
 Frequencies --    831.9730               848.7603               864.5370
 Red. masses --      1.6111                 2.0006                 1.5073
 Frc consts  --      0.6570                 0.8491                 0.6638
 IR Inten    --     26.6768                 2.0080                19.0058

                     31                     32                     33
                      A                      A                      A
 Frequencies --    890.8007               921.8251               955.7378
 Red. masses --      1.4142                 1.4218                 2.1943
 Frc consts  --      0.6612                 0.7119                 1.1809
 IR Inten    --      0.3411                41.0531                 6.3559

                     34                     35                     36
                      A                      A                      A
 Frequencies --    957.1906               977.6903               987.5310
 Red. masses --      1.3292                 1.6292                 2.0850
 Frc consts  --      0.7175                 0.9176                 1.1980
 IR Inten    --      0.6526                12.7357                 9.5295

                     37                     38                     39
                      A                      A                      A
 Frequencies --   1033.2937              1036.0041              1076.0427
 Red. masses --      1.1083                 1.5790                 1.5136
 Frc consts  --      0.6972                 0.9985                 1.0326
 IR Inten    --     10.2029                10.2186                 3.8183

                     40                     41                     42
                      A                      A                      A
 Frequencies --   1088.9426              1135.5747              1186.2551
 Red. masses --      3.9552                 1.7010                 1.2714
 Frc consts  --      2.7633                 1.2924                 1.0541
 IR Inten    --     60.7303                25.2082                 0.7367

                     43                     44                     45
                      A                      A                      A
 Frequencies --   1202.4533              1213.2956              1225.9176
 Red. masses --      1.7764                 2.1709                 1.5470
 Frc consts  --      1.5133                 1.8829                 1.3698
 IR Inten    --      8.0572                23.4975                 5.9737

                     46                     47                     48
                      A                      A                      A
 Frequencies --   1264.7983              1292.3106              1322.1185
 Red. masses --      2.8861                 2.8066                 1.2694
 Frc consts  --      2.7202                 2.7616                 1.3073
 IR Inten    --     30.7074               206.0966                40.0849

                     49                     50                     51
                      A                      A                      A
 Frequencies --   1330.3793              1345.1771              1362.2346
 Red. masses --      1.9428                 1.3575                 5.6843
 Frc consts  --      2.0260                 1.4472                 6.2148
 IR Inten    --     36.1071                 1.1228               108.0801

                     52                     53                     54
                      A                      A                      A
 Frequencies --   1444.3738              1456.7154              1470.8678
 Red. masses --      1.2336                 2.9235                 1.2976
 Frc consts  --      1.5163                 3.6552                 1.6540
 IR Inten    --      1.8788                 9.2654                 5.3216

                     55                     56                     57
                      A                      A                      A
 Frequencies --   1503.4310              1510.0999              1521.2048
 Red. masses --      1.2398                 1.0917                 1.0481
 Frc consts  --      1.6511                 1.4668                 1.4290
 IR Inten    --     14.1223                 5.8454                 5.5729

                     58                     59                     60
                      A                      A                      A
 Frequencies --   1522.5505              1535.3361              1553.9715
 Red. masses --      1.1769                 1.0766                 2.2008
 Frc consts  --      1.6074                 1.4952                 3.1313
 IR Inten    --      5.6435                66.2269                68.6269

                     61                     62                     63
                      A                      A                      A
 Frequencies --   1624.0289              1653.5432              1666.4353
 Red. masses --      7.3375                 5.7444                 5.5587
 Frc consts  --     11.4020                 9.2539                 9.0950
 IR Inten    --     11.3483                 4.8500               161.1170

                     64                     65                     66
                      A                      A                      A
 Frequencies --   1705.4881              2682.5400              3026.8541
 Red. masses --      4.4363                 1.0381                 1.0347
 Frc consts  --      7.6028                 4.4014                 5.5853
 IR Inten    --     22.1178                29.0018                59.2271

                     67                     68                     69
                      A                      A                      A
 Frequencies --   3057.2736              3085.9719              3118.3585
 Red. masses --      1.0356                 1.1066                 1.1005
 Frc consts  --      5.7029                 6.2093                 6.3053
 IR Inten    --     20.8397                41.8862                11.1446

                     70                     71                     72
                      A                      A                      A
 Frequencies --   3129.9188              3158.1159              3159.5192
 Red. masses --      1.1032                 1.0809                 1.0999
 Frc consts  --      6.3674                 6.3520                 6.4689
 IR Inten    --     22.5984                 1.1566                30.5190

                     73                     74                     75
                      A                      A                      A
 Frequencies --   3165.5316              3171.7961              3201.4235
 Red. masses --      1.0658                 1.0888                 1.0881
 Frc consts  --      6.2922                 6.4538                 6.5708
 IR Inten    --     10.8775                14.1546                 7.4062

                     76                     77                     78
                      A                      A                      A
 Frequencies --   3217.8130              3221.8144              3250.1737
 Red. masses --      1.0891                 1.0944                 1.1158
 Frc consts  --      6.6442                 6.6929                 6.9448
 IR Inten    --     13.7781                 8.1987                15.6413

 - Thermochemistry -
 -------------------
 Temperature   298.150 Kelvin.  Pressure   1.00000 Atm.
 Atom     1 has atomic number  6 and mass  12.00000

 Molecular mass:   206.07654 amu.
 Principal axes and moments of inertia in atomic units:
                           1         2         3
     Eigenvalues --  1458.277826104.419246678.61886
           X            0.99989   0.01483  -0.00024
           Y           -0.01480   0.99866   0.04953
           Z            0.00098  -0.04952   0.99877
 This molecule is an asymmetric top.
 Rotational symmetry number  1.
 Warning -- assumption of classical behavior for rotation
           may cause significant error
 Rotational temperatures (Kelvin)      0.05939     0.01419     0.01297
 Rotational constants (GHZ):           1.23758     0.29565     0.27023
 Zero-point vibrational energy     597123.0 (Joules/Mol)
                                  142.71582 (Kcal/Mol)
 Warning -- explicit consideration of  23 degrees of freedom as
           vibrations may cause significant error
 Vibrational temperatures:     46.77    67.63   132.52   141.59   171.76
          (Kelvin)            199.45   233.15   272.40   291.00   317.78
                              354.03   381.81   403.63   418.54   518.46
                              578.89   610.57   675.21   691.24   761.58
                              837.84   852.22   890.30   959.38   977.02
                             1058.07  1063.20  1197.02  1221.18  1243.88
                             1281.66  1326.30  1375.09  1377.18  1406.68
                             1420.84  1486.68  1490.58  1548.19  1566.75
                             1633.84  1706.76  1730.06  1745.66  1763.82
                             1819.76  1859.35  1902.23  1914.12  1935.41
                             1959.95  2078.13  2095.89  2116.25  2163.10
                             2172.70  2188.67  2190.61  2209.01  2235.82
                             2336.62  2379.08  2397.63  2453.82  3859.58
                             4354.97  4398.73  4440.03  4486.62  4503.26
                             4543.82  4545.84  4554.49  4563.51  4606.13
                             4629.72  4635.47  4676.27

 Zero-point correction=                           0.227432 (Hartree/Particle)
 Thermal correction to Energy=                    0.242300
 Thermal correction to Enthalpy=                  0.243244
 Thermal correction to Gibbs Free Energy=         0.184925
 Sum of electronic and zero-point Energies=           -938.902615
 Sum of electronic and thermal Energies=              -938.887747
 Sum of electronic and thermal Enthalpies=            -938.886803
 Sum of electronic and thermal Free Energies=         -938.945123

                     E (Thermal)             CV                S
                      KCal/Mol        Cal/Mol-Kelvin    Cal/Mol-Kelvin
 Total                  152.046             54.961            122.745
 Electronic               0.000              0.000              0.000
 Translational            0.889              2.981             41.873
 Rotational               0.889              2.981             32.453
 Vibrational            150.268             49.000             48.419
 Vibration     1          0.594              1.983              5.670
 Vibration     2          0.595              1.979              4.940
 Vibration     3          0.602              1.955              3.615
 Vibration     4          0.604              1.950              3.486
 Vibration     5          0.609              1.933              3.110
 Vibration     6          0.614              1.915              2.823
 Vibration     7          0.622              1.889              2.526
 Vibration     8          0.633              1.855              2.234
 Vibration     9          0.639              1.837              2.112
 Vibration    10          0.648              1.809              1.952
 Vibration    11          0.661              1.769              1.759
 Vibration    12          0.671              1.737              1.626
 Vibration    13          0.680              1.710              1.530
 Vibration    14          0.687              1.691              1.469
 Vibration    15          0.735              1.554              1.121
 Vibration    16          0.768              1.465              0.954
 Vibration    17          0.786              1.417              0.877
 Vibration    18          0.826              1.318              0.740
 Vibration    19          0.837              1.293              0.709
 Vibration    20          0.884              1.185              0.589
 Vibration    21          0.939              1.070              0.481
 Vibration    22          0.950              1.048              0.463
 Vibration    23          0.979              0.992              0.418

                           ! Non-Optimized Parameters !
 Normal termination of Gaussian 16 at Thu Dec 10 09:32:14 2020.

 ----------------------------------------------------------------------
 # B3LYP/6-311++G(d,p) empiricaldispersion=gd3bj scf=xqc pop=npa geom=c
 heck
 ----------------------------------------------------------------------

 ---------------------------------------
 CID_142940900_JID_4298_Energie_neutraal
 ---------------------------------------
 Structure from the checkpoint file:  "JID_4298.chk"
 Charge =  0 Multiplicity = 1

 SCF Done:  E(RB3LYP) =  -939.306056509     A.U. after   17 cycles
 Normal termination of Gaussian 16 at Thu Dec 10 09:36:30 2020.

 ----------------------------------------------------------------------
 # B3LYP/6-311++G(d,p) empiricaldispersion=gd3bj scf=xqc pop=npa geom=c
 heck
 ----------------------------------------------------------------------

 -------------------------------------
 CID_142940900_JID_4298_Energie_kation
 -------------------------------------
 Structure from the checkpoint file:  "JID_4298.chk"
 Charge =  1 Multiplicity = 2

 SCF Done:  E(UB3LYP) =  -939.036346274     A.U. after   25 cycles
 Normal termination of Gaussian 16 at Thu Dec 10 09:45:25 2020.
 Gaussian 16:  ES64L-G16RevA.03 25-Dec-2016

 ----------------------------------------------------------------------
 # B3LYP/6-311++G(d,p) empiricaldispersion=gd3bj scf=xqc pop=npa geom=c
 heck
 ----------------------------------------------------------------------

 ------------------------------------
 CID_142940900_JID_4298_Energie_anion
 ------------------------------------
 Structure from the checkpoint file:  "JID_4298.chk"
 Charge = -1 Multiplicity = 2

                         Standard orientation:
 ---------------------------------------------------------------------
 Center     Atomic      Atomic             Coordinates (Angstroms)
 Number     Number       Type             X           Y           Z
 ---------------------------------------------------------------------
      1          6           0        0.227074    2.005878    1.257130
      2          6           0        0.745452    0.808240    0.498191
      3          6           0       -0.122442   -0.076843   -0.171343
      4          6           0        0.417567   -1.201736   -0.817446
      5          6           0        1.781024   -1.453212   -0.822465
      6          6           0        2.644393   -0.567755   -0.166923
      7          6           0        2.121082    0.548580    0.493299
      8          8           0        3.970449   -0.880889   -0.219471
      9          6           0        4.887870   -0.010011    0.421046
     10          6           0       -1.595176    0.116898   -0.205635
     11          6           0       -2.434901   -0.768226    0.377858
     12          6           0       -3.883199   -0.795668    0.324702
     13          6           0       -4.640279   -1.647523    1.034671
     14         16           0       -2.092209    1.541198   -1.168032
     15          1           0       -0.021168    2.832180    0.582286
     16          1           0       -0.687745    1.759208    1.805362
     17          1           0        0.972998    2.363867    1.973403
     18          1           0       -0.257725   -1.879250   -1.331029
     19          1           0        2.198406   -2.318743   -1.325951
     20          1           0        2.775367    1.228332    1.027039
     21          1           0        4.845122    1.001804   -0.002757
     22          1           0        4.703723    0.045132    1.502012
     23          1           0        5.877354   -0.435000    0.244625
     24          1           0       -1.961652   -1.555728    0.962750
     25          1           0       -4.377323   -0.100204   -0.351192
     26          1           0       -5.722503   -1.652709    0.952485
     27          1           0       -4.197095   -2.367752    1.718448
     28          1           0       -3.326795    1.715064   -0.651711
 ---------------------------------------------------------------------

 SCF Done:  E(UB3LYP) =  -939.304552760     A.U. after   33 cycles
 SCF Done:  E(UB3LYP) =  -939.304552760     a.u. after    1 cycles

 The electronic state is 2-A.
 Alpha  occ. eigenvalues --  -88.72661 -19.05024 -10.12567 -10.11963 -10.06900
 Alpha  occ. eigenvalues --  -10.06402 -10.06023 -10.05935 -10.05803 -10.05684
 Alpha  occ. eigenvalues --  -10.05369 -10.03937 -10.03297 -10.02316  -7.81336
 Alpha  occ. eigenvalues --   -5.77702  -5.77317  -5.76772  -0.96678  -0.75048
 Alpha  occ. eigenvalues --   -0.69754  -0.66624  -0.64637  -0.63065  -0.60049
 Alpha  occ. eigenvalues --   -0.58065  -0.55958  -0.49703  -0.48630  -0.45033
 Alpha  occ. eigenvalues --   -0.42180  -0.40915  -0.38426  -0.37157  -0.36461
 Alpha  occ. eigenvalues --   -0.34214  -0.33659  -0.31732  -0.30852  -0.30440
 Alpha  occ. eigenvalues --   -0.29486  -0.28029  -0.27809  -0.26791  -0.25653
 Alpha  occ. eigenvalues --   -0.24396  -0.22858  -0.22264  -0.21113  -0.20777
 Alpha  occ. eigenvalues --   -0.19767  -0.15319  -0.14072  -0.11524  -0.08456
 Alpha  occ. eigenvalues --    0.04331
 Alpha virt. eigenvalues --    0.05723   0.08083   0.08515   0.09177   0.09439
 Alpha virt. eigenvalues --    0.09663   0.10124   0.10360   0.10919   0.11512
 Alpha virt. eigenvalues --    0.11886   0.12478   0.13097   0.13195   0.13891

  Beta  occ. eigenvalues --  -88.72651 -19.04999 -10.12533 -10.11867 -10.06795
  Beta  occ. eigenvalues --  -10.06126 -10.05984 -10.05962 -10.05807 -10.05699
  Beta  occ. eigenvalues --  -10.05373 -10.03904 -10.03205 -10.02009  -7.81322
  Beta  occ. eigenvalues --   -5.77699  -5.77307  -5.76754  -0.96611  -0.74900
  Beta  occ. eigenvalues --   -0.69406  -0.66483  -0.64371  -0.62852  -0.59993
  Beta  occ. eigenvalues --   -0.57946  -0.55720  -0.49501  -0.48407  -0.44671
  Beta  occ. eigenvalues --   -0.42110  -0.40663  -0.38338  -0.37054  -0.36301
  Beta  occ. eigenvalues --   -0.34056  -0.33555  -0.31650  -0.30712  -0.30346
  Beta  occ. eigenvalues --   -0.29393  -0.27985  -0.27582  -0.26599  -0.25524
  Beta  occ. eigenvalues --   -0.24281  -0.22641  -0.22166  -0.20913  -0.20599
  Beta  occ. eigenvalues --   -0.19000  -0.14556  -0.13891  -0.11203  -0.07287
  Beta virt. eigenvalues --    0.06471   0.07976   0.08512   0.08893   0.09350
  Beta virt. eigenvalues --    0.09488   0.09861   0.10368   0.10585   0.11099
  Beta virt. eigenvalues --    0.11762   0.11923   0.12487   0.13106   0.13196

 Mulliken charges and spin densities:
               1          2
     1  C   -0.529284  -0.109472
     2  C   -0.071765  -0.135954
     3  C    0.789531  -0.062499
     4  C   -0.156631   0.090224
     5  C   -0.482982   0.104553
     6  C   -0.837287   0.348538
     7  C    0.514098  -0.247176
     8  O   -0.196671   0.041590
     9  C    0.480434  -0.830051
    10  C    0.325437   0.157516
    11  C   -0.210704  -0.057513
    12  C   -0.050479   0.084177
    13  C   -0.601246   0.238979
    14  S   -0.274764  -0.113567
    15  H    0.024700   0.132145
    16  H    0.160326   0.006587
    17  H    0.040084   0.088353
    18  H    0.164024   0.003849
    19  H    0.155911   0.010303
    20  H    0.152972  -0.030183
    21  H   -0.169025   0.323468
    22  H   -0.048318   0.193821
    23  H   -0.419543   0.590692
    24  H    0.141366   0.001901
    25  H    0.060628   0.007735
    26  H    0.093076  -0.001277
    27  H    0.062870  -0.007870
    28  H   -0.116756   0.171132
 Sum of Mulliken charges =  -1.00000   1.00000

 Dipole moment (field-independent basis, Debye):
    X=              0.7923    Y=              0.3840    Z=             -0.0206  Tot=              0.8806
 Quadrupole moment (field-independent basis, Debye-Ang):
   XX=           -176.7759   YY=           -114.6707   ZZ=           -109.5794
   XY=             -4.9407   XZ=              2.2292   YZ=              2.8375

 Summary of Natural Population Analysis:

                                       Natural Population
                Natural  -----------------------------------------------
    Atom  No    Charge         Core      Valence    Rydberg      Total
 -----------------------------------------------------------------------
      C    1   -0.29652      0.99964     2.29200    0.00489     3.29652
      C    2    0.02313      0.99949     1.96822    0.00916     2.97687
      C    3   -0.05142      0.99943     2.04077    0.01122     3.05142
      C    4   -0.07421      0.99953     2.06665    0.00803     3.07421
      C    5   -0.13492      0.99953     2.12622    0.00918     3.13492
      C    6    0.17494      0.99938     1.81184    0.01383     2.82506
      C    7   -0.15690      0.99948     2.14955    0.00787     3.15690
      O    8   -0.27437      0.99986     3.26476    0.00976     4.27437
      C    9   -0.10080      0.99960     2.09189    0.00931     3.10080
      C   10   -0.03273      0.99937     2.02075    0.01261     3.03273
      C   11   -0.11301      0.99942     2.10332    0.01026     3.11301
      C   12   -0.11047      0.99956     2.10109    0.00982     3.11047
      C   13   -0.13430      0.99960     2.12658    0.00812     3.13430
      S   14   -0.00370      4.99955     2.98791    0.01624     8.00370
      H   15    0.11095      0.00000     0.38770    0.00135     0.38905
      H   16    0.10886      0.00000     0.39009    0.00105     0.39114
      H   17    0.09475      0.00000     0.40443    0.00082     0.40525
      H   18    0.10188      0.00000     0.39708    0.00105     0.39812
      H   19    0.10193      0.00000     0.39710    0.00097     0.39807
      H   20    0.10041      0.00000     0.39839    0.00119     0.39959
      H   21    0.08512      0.00000     0.41325    0.00163     0.41488
      H   22    0.08212      0.00000     0.41659    0.00128     0.41788
      H   23    0.09214      0.00000     0.40662    0.00125     0.40786
      H   24    0.09514      0.00000     0.40310    0.00175     0.40486
      H   25    0.08844      0.00000     0.40993    0.00163     0.41156
      H   26    0.08185      0.00000     0.41719    0.00096     0.41815
      H   27    0.08013      0.00000     0.41880    0.00107     0.41987
      H   28    0.06157      0.00000     0.43486    0.00357     0.43843
 =======================================================================
   * Total *   -0.00000     17.99343    36.84669    0.15988    55.00000

 Normal termination of Gaussian 16 at Thu Dec 10 09:57:06 2020.
