 Gaussian 16, Revision A.03,

 -----------------------------------------------------------
 # opt freq B3LYP/6-31G(d) empiricaldispersion=gd3bj scf=xqc
 -----------------------------------------------------------

 -------------------------------
 CID_130923766_JID_5743_neutraal
 -------------------------------
 Symbolic Z-matrix:
 Charge =  0 Multiplicity = 1

 SCF Done:  E(RB3LYP) =  -653.087752989     A.U. after   15 cycles
 SCF Done:  E(RB3LYP) =  -653.091424943     A.U. after   12 cycles
 SCF Done:  E(RB3LYP) =  -653.091737714     A.U. after   12 cycles
 SCF Done:  E(RB3LYP) =  -653.091519350     A.U. after   12 cycles
 SCF Done:  E(RB3LYP) =  -653.091848001     A.U. after   12 cycles
 SCF Done:  E(RB3LYP) =  -653.091937836     A.U. after   10 cycles
 SCF Done:  E(RB3LYP) =  -653.091958880     A.U. after   11 cycles
 SCF Done:  E(RB3LYP) =  -653.091976688     A.U. after    9 cycles
 SCF Done:  E(RB3LYP) =  -653.092008497     A.U. after   11 cycles
 SCF Done:  E(RB3LYP) =  -653.092025495     A.U. after   10 cycles
 SCF Done:  E(RB3LYP) =  -653.092056867     A.U. after    9 cycles
 SCF Done:  E(RB3LYP) =  -653.092057545     A.U. after    9 cycles
 SCF Done:  E(RB3LYP) =  -653.092057575     A.U. after    7 cycles
 SCF Done:  E(RB3LYP) =  -653.092057317     A.U. after    8 cycles
 SCF Done:  E(RB3LYP) =  -653.092057519     A.U. after    8 cycles
 SCF Done:  E(RB3LYP) =  -653.092057627     A.U. after    7 cycles
 Optimization completed on the basis of negligible forces.
    -- Stationary point found.
 Normal termination of Gaussian 16 at Thu Dec 10 17:06:33 2020.

 --------------------------------------------------------------------
 #N Geom=AllCheck Guess=TCheck SCRF=Check GenChk RB3LYP/6-31G(d) Freq
 --------------------------------------------------------------------

 Structure from the checkpoint file:  "JID_5743.chk"
 -------------------------------
 CID_130923766_JID_5743_neutraal
 -------------------------------
 Charge =  0 Multiplicity = 1

 SCF Done:  E(RB3LYP) =  -653.092057627     A.U. after    1 cycles

  Exact polarizability: 182.782   0.082 144.319  -1.138   2.101  84.190
 Approx polarizability: 263.862  -1.201 252.416  -7.419   5.640 131.922

                      1                      2                      3
                      A                      A                      A
 Frequencies --     23.2120                73.1225                78.0565
 Red. masses --      3.7524                 1.0256                 3.6366
 Frc consts  --      0.0012                 0.0032                 0.0131
 IR Inten    --      0.2996                 0.3480                 1.3239

                      4                      5                      6
                      A                      A                      A
 Frequencies --     86.6070                96.5354               154.0050
 Red. masses --      5.3629                 2.9674                 1.6846
 Frc consts  --      0.0237                 0.0163                 0.0235
 IR Inten    --      1.3183                 1.0032                 1.2562

                      7                      8                      9
                      A                      A                      A
 Frequencies --    181.8148               192.6712               229.2920
 Red. masses --      3.8043                 2.7798                 3.1205
 Frc consts  --      0.0741                 0.0608                 0.0967
 IR Inten    --      5.8040                 4.7080                 0.4447

                     10                     11                     12
                      A                      A                      A
 Frequencies --    258.5635               290.3732               322.0547
 Red. masses --      2.6160                 4.7795                 3.1660
 Frc consts  --      0.1030                 0.2374                 0.1935
 IR Inten    --      0.4829                 2.3490                 0.8214

                     13                     14                     15
                      A                      A                      A
 Frequencies --    364.5172               405.0411               417.9438
 Red. masses --      3.7786                 4.2493                 4.5734
 Frc consts  --      0.2958                 0.4107                 0.4707
 IR Inten    --      1.8933                 0.3009                 0.7444

                     16                     17                     18
                      A                      A                      A
 Frequencies --    470.2568               481.9657               585.1438
 Red. masses --      3.2800                 3.1458                 4.3517
 Frc consts  --      0.4274                 0.4305                 0.8779
 IR Inten    --      5.6981                 5.1189                 0.3035

                     19                     20                     21
                      A                      A                      A
 Frequencies --    619.1767               624.6192               664.8408
 Red. masses --      4.0031                 5.5636                 5.1496
 Frc consts  --      0.9042                 1.2789                 1.3411
 IR Inten    --      8.3931                19.9355                 5.1153

                     22                     23                     24
                      A                      A                      A
 Frequencies --    678.2879               701.6296               740.9886
 Red. masses --      2.1911                 6.1883                 2.3802
 Frc consts  --      0.5939                 1.7949                 0.7700
 IR Inten    --      7.7276                 9.2998                 2.6894

                     25                     26                     27
                      A                      A                      A
 Frequencies --    751.7165               780.4724               798.6850
 Red. masses --      2.3827                 1.7597                 2.7307
 Frc consts  --      0.7933                 0.6316                 1.0263
 IR Inten    --      6.0412                 9.9543                29.3293

                     28                     29                     30
                      A                      A                      A
 Frequencies --    834.8261               893.2333               918.2223
 Red. masses --      1.2762                 6.0308                 4.1306
 Frc consts  --      0.5240                 2.8350                 2.0519
 IR Inten    --     20.5981                35.1201                15.4950

                     31                     32                     33
                      A                      A                      A
 Frequencies --    949.8615               962.3529              1024.2634
 Red. masses --      1.3872                 1.3190                 1.4229
 Frc consts  --      0.7374                 0.7197                 0.8795
 IR Inten    --      4.3710                 0.0852                 7.8484

                     34                     35                     36
                      A                      A                      A
 Frequencies --   1027.6288              1033.3206              1057.3464
 Red. masses --      1.4750                 1.8033                 3.0032
 Frc consts  --      0.9177                 1.1344                 1.9782
 IR Inten    --      5.1234                 0.1219                 4.1642

                     37                     38                     39
                      A                      A                      A
 Frequencies --   1072.2012              1080.3371              1097.0146
 Red. masses --      1.5417                 1.4697                 2.6430
 Frc consts  --      1.0442                 1.0106                 1.8740
 IR Inten    --      9.0595                 2.9819                34.4030

                     40                     41                     42
                      A                      A                      A
 Frequencies --   1165.7826              1189.1741              1201.8593
 Red. masses --      1.7162                 6.0811                 2.4732
 Frc consts  --      1.3742                 5.0667                 2.1048
 IR Inten    --     21.0811                13.5846                76.8634

                     43                     44                     45
                      A                      A                      A
 Frequencies --   1228.7069              1254.2940              1265.5814
 Red. masses --      2.2742                 1.5360                 2.4201
 Frc consts  --      2.0229                 1.4238                 2.2838
 IR Inten    --      7.1538                 5.1620                30.7330

                     46                     47                     48
                      A                      A                      A
 Frequencies --   1306.9435              1339.0370              1358.8084
 Red. masses --      1.4336                 2.5583                 4.9091
 Frc consts  --      1.4427                 2.7026                 5.3403
 IR Inten    --      4.6729                 4.3334                11.7771

                     49                     50                     51
                      A                      A                      A
 Frequencies --   1383.6330              1434.3274              1440.9702
 Red. masses --      4.5872                 1.7275                 1.2677
 Frc consts  --      5.1741                 2.0940                 1.5509
 IR Inten    --      5.6954                17.8292                 3.4271

                     52                     53                     54
                      A                      A                      A
 Frequencies --   1448.6964              1467.7569              1508.7468
 Red. masses --      1.2694                 2.1943                 1.1027
 Frc consts  --      1.5696                 2.7851                 1.4789
 IR Inten    --      1.9150                 6.6021                 7.7706

                     55                     56                     57
                      A                      A                      A
 Frequencies --   1513.0517              1523.3185              1529.3673
 Red. masses --      1.0780                 1.1129                 1.1198
 Frc consts  --      1.4540                 1.5215                 1.5432
 IR Inten    --      1.6858                18.5737                 6.1481

                     58                     59                     60
                      A                      A                      A
 Frequencies --   1536.7154              1596.1792              1628.1211
 Red. masses --      2.1990                 5.1782                 5.5381
 Frc consts  --      3.0595                 7.7731                 8.6494
 IR Inten    --      2.3055                30.6076                 4.5413

                     61                     62                     63
                      A                      A                      A
 Frequencies --   1657.5264              1661.3910              1799.5239
 Red. masses --      6.3528                 6.2684                 9.7311
 Frc consts  --     10.2834                10.1942                18.5664
 IR Inten    --      9.2910                63.7443               242.2975

                     64                     65                     66
                      A                      A                      A
 Frequencies --   2903.1728              3049.4235              3053.4589
 Red. masses --      1.0835                 1.0391                 1.0388
 Frc consts  --      5.3807                 5.6933                 5.7062
 IR Inten    --    165.9491                 9.0128                35.0207

                     67                     68                     69
                      A                      A                      A
 Frequencies --   3103.9464              3110.0029              3128.0749
 Red. masses --      1.0989                 1.0961                 1.1020
 Frc consts  --      6.2381                 6.2460                 6.3532
 IR Inten    --     27.6025                11.1532                19.8244

                     70                     71                     72
                      A                      A                      A
 Frequencies --   3144.3246              3177.0811              3193.9587
 Red. masses --      1.1020                 1.0868                 1.0945
 Frc consts  --      6.4191                 6.4634                 6.5784
 IR Inten    --      9.4330                 7.1502                23.2387

                     73                     74                     75
                      A                      A                      A
 Frequencies --   3219.5549              3290.7642              3296.9058
 Red. masses --      1.0905                 1.0964                 1.1005
 Frc consts  --      6.6602                 6.9955                 7.0481
 IR Inten    --      1.2578                 1.4572                 0.3087

 - Thermochemistry -
 -------------------
 Temperature   298.150 Kelvin.  Pressure   1.00000 Atm.
 Atom     1 has atomic number  6 and mass  12.00000

 Molecular mass:   200.08373 amu.
 Principal axes and moments of inertia in atomic units:
                           1         2         3
     Eigenvalues --  1874.377384444.652585504.56354
           X            0.99992   0.00160   0.01256
           Y           -0.00164   0.99999   0.00302
           Z           -0.01256  -0.00304   0.99992
 This molecule is an asymmetric top.
 Rotational symmetry number  1.
 Warning -- assumption of classical behavior for rotation
           may cause significant error
 Rotational temperatures (Kelvin)      0.04621     0.01949     0.01573
 Rotational constants (GHZ):           0.96285     0.40605     0.32786
 Zero-point vibrational energy     569018.0 (Joules/Mol)
                                  135.99857 (Kcal/Mol)
 Warning -- explicit consideration of  19 degrees of freedom as
           vibrations may cause significant error
 Vibrational temperatures:     33.40   105.21   112.31   124.61   138.89
          (Kelvin)            221.58   261.59   277.21   329.90   372.02
                              417.78   463.36   524.46   582.76   601.33
                              676.59   693.44   841.89   890.86   898.69
                              956.56   975.91  1009.49  1066.12  1081.55
                             1122.93  1149.13  1201.13  1285.16  1321.12
                             1366.64  1384.61  1473.69  1478.53  1486.72
                             1521.29  1542.66  1554.36  1578.36  1677.30
                             1710.96  1729.21  1767.84  1804.65  1820.89
                             1880.40  1926.58  1955.02  1990.74  2063.68
                             2073.23  2084.35  2111.77  2170.75  2176.94
                             2191.72  2200.42  2210.99  2296.55  2342.50
                             2384.81  2390.37  2589.11  4177.02  4387.44
                             4393.25  4465.89  4474.60  4500.60  4523.98
                             4571.11  4595.39  4632.22  4734.68  4743.51

 Zero-point correction=                           0.216728 (Hartree/Particle)
 Thermal correction to Energy=                    0.230403
 Thermal correction to Enthalpy=                  0.231347
 Thermal correction to Gibbs Free Energy=         0.175123
 Sum of electronic and zero-point Energies=           -652.875330
 Sum of electronic and thermal Energies=              -652.861655
 Sum of electronic and thermal Enthalpies=            -652.860711
 Sum of electronic and thermal Free Energies=         -652.916935

                     E (Thermal)             CV                S
                      KCal/Mol        Cal/Mol-Kelvin    Cal/Mol-Kelvin
 Total                  144.580             51.038            118.335
 Electronic               0.000              0.000              0.000
 Translational            0.889              2.981             41.785
 Rotational               0.889              2.981             32.195
 Vibrational            142.803             45.077             44.355
 Vibration     1          0.593              1.985              6.339
 Vibration     2          0.599              1.967              4.067
 Vibration     3          0.599              1.964              3.939
 Vibration     4          0.601              1.959              3.735
 Vibration     5          0.603              1.952              3.523
 Vibration     6          0.620              1.898              2.622
 Vibration     7          0.630              1.864              2.310
 Vibration     8          0.635              1.850              2.202
 Vibration     9          0.652              1.796              1.884
 Vibration    10          0.667              1.748              1.671
 Vibration    11          0.686              1.692              1.472
 Vibration    12          0.707              1.631              1.300
 Vibration    13          0.738              1.545              1.103
 Vibration    14          0.770              1.459              0.944
 Vibration    15          0.781              1.431              0.899
 Vibration    16          0.827              1.316              0.737
 Vibration    17          0.838              1.290              0.705
 Vibration    18          0.942              1.063              0.476
 Vibration    19          0.979              0.991              0.418

 Optimization completed on the basis of negligible forces.
    -- Stationary point found.
 Normal termination of Gaussian 16 at Thu Dec 10 17:15:58 2020.

 ----------------------------------------------------------------------
 # B3LYP/6-311++G(d,p) empiricaldispersion=gd3bj scf=xqc pop=npa geom=c
 heck
 ----------------------------------------------------------------------

 ---------------------------------------
 CID_130923766_JID_5743_Energie_neutraal
 ---------------------------------------
 Structure from the checkpoint file:  "JID_5743.chk"
 Charge =  0 Multiplicity = 1

 SCF Done:  E(RB3LYP) =  -653.265841004     A.U. after   16 cycles
 Normal termination of Gaussian 16 at Thu Dec 10 17:20:15 2020.

 ----------------------------------------------------------------------
 # B3LYP/6-311++G(d,p) empiricaldispersion=gd3bj scf=xqc pop=npa geom=c
 heck
 ----------------------------------------------------------------------

 -------------------------------------
 CID_130923766_JID_5743_Energie_kation
 -------------------------------------
 Structure from the checkpoint file:  "JID_5743.chk"
 Charge =  1 Multiplicity = 2

 SCF Done:  E(UB3LYP) =  -652.963463933     A.U. after   28 cycles
 Normal termination of Gaussian 16 at Thu Dec 10 17:29:58 2020.
 Gaussian 16:  ES64L-G16RevA.03 25-Dec-2016

 ----------------------------------------------------------------------
 # B3LYP/6-311++G(d,p) empiricaldispersion=gd3bj scf=xqc pop=npa geom=c
 heck
 ----------------------------------------------------------------------

 ------------------------------------
 CID_130923766_JID_5743_Energie_anion
 ------------------------------------
 Structure from the checkpoint file:  "JID_5743.chk"
 Charge = -1 Multiplicity = 2

                         Standard orientation:
 ---------------------------------------------------------------------
 Center     Atomic      Atomic             Coordinates (Angstroms)
 Number     Number       Type             X           Y           Z
 ---------------------------------------------------------------------
      1          6           0        0.785293    2.542758   -0.646882
      2          6           0       -0.335178    1.572008   -0.373022
      3          6           0       -0.091667    0.187900   -0.199217
      4          6           0       -1.170450   -0.672636    0.014104
      5          6           0       -2.483358   -0.190888    0.070626
      6          6           0       -2.719605    1.178458   -0.086781
      7          6           0       -1.653194    2.042206   -0.309561
      8          6           0       -3.610438   -1.117167    0.296916
      9          8           0       -3.503852   -2.320437    0.442002
     10          6           0        1.273212   -0.378632   -0.255483
     11          6           0        1.730258   -1.284523   -1.168566
     12          8           0        3.016873   -1.637149   -0.899900
     13          6           0        3.386356   -0.946550    0.219963
     14          6           0        2.371011   -0.155984    0.666080
     15          6           0        2.366830    0.719827    1.881115
     16          1           0        1.176030    2.970825    0.284661
     17          1           0        1.620511    2.056551   -1.157498
     18          1           0        0.435245    3.376922   -1.262917
     19          1           0       -1.000511   -1.735885    0.148907
     20          1           0       -3.737149    1.560270   -0.042715
     21          1           0       -1.839369    3.103738   -0.451158
     22          1           0       -4.609899   -0.627696    0.328309
     23          1           0        1.279217   -1.745639   -2.033859
     24          1           0        4.386908   -1.134641    0.578961
     25          1           0        2.492690    1.778541    1.625145
     26          1           0        1.420333    0.628526    2.425136
     27          1           0        3.177402    0.448524    2.564464
 ---------------------------------------------------------------------

 SCF Done:  E(UB3LYP) =  -653.279614969     A.U. after   29 cycles

 The electronic state is 2-A.
 Alpha  occ. eigenvalues --  -19.07951 -18.91931 -10.11089 -10.10486 -10.07309
 Alpha  occ. eigenvalues --  -10.07131 -10.06172 -10.05542 -10.04260 -10.04181
 Alpha  occ. eigenvalues --  -10.02648 -10.02566 -10.02465 -10.01580 -10.00833
 Alpha  occ. eigenvalues --   -1.00372  -0.85671  -0.72726  -0.70026  -0.65235
 Alpha  occ. eigenvalues --   -0.63561  -0.60309  -0.59535  -0.55948  -0.49366
 Alpha  occ. eigenvalues --   -0.47128  -0.46203  -0.44650  -0.41739  -0.38868
 Alpha  occ. eigenvalues --   -0.35204  -0.34617  -0.33591  -0.32732  -0.32229
 Alpha  occ. eigenvalues --   -0.31293  -0.30231  -0.29213  -0.28346  -0.27604
 Alpha  occ. eigenvalues --   -0.27289  -0.26270  -0.25777  -0.24630  -0.23760
 Alpha  occ. eigenvalues --   -0.21095  -0.19841  -0.19689  -0.16013  -0.12667
 Alpha  occ. eigenvalues --   -0.10925  -0.10308  -0.08043   0.04604
 Alpha virt. eigenvalues --    0.07258   0.08614   0.09229   0.09747   0.10548
 Alpha virt. eigenvalues --    0.10710   0.11542   0.12094   0.12470   0.12861
 Alpha virt. eigenvalues --    0.13646   0.14051   0.14595   0.14785   0.15257

  Beta  occ. eigenvalues --  -19.07928 -18.91379 -10.11072 -10.10479 -10.07319
  Beta  occ. eigenvalues --  -10.07125 -10.06165 -10.05241 -10.04293 -10.04285
  Beta  occ. eigenvalues --  -10.02612 -10.02343 -10.02220 -10.01377 -10.00724
  Beta  occ. eigenvalues --   -1.00336  -0.84663  -0.72548  -0.69842  -0.65174
  Beta  occ. eigenvalues --   -0.63100  -0.60221  -0.59381  -0.55654  -0.49207
  Beta  occ. eigenvalues --   -0.46665  -0.45885  -0.44447  -0.41497  -0.38656
  Beta  occ. eigenvalues --   -0.35121  -0.34407  -0.33509  -0.32586  -0.32056
  Beta  occ. eigenvalues --   -0.31235  -0.30048  -0.28909  -0.28279  -0.27411
  Beta  occ. eigenvalues --   -0.27199  -0.26091  -0.25609  -0.24271  -0.22057
  Beta  occ. eigenvalues --   -0.20852  -0.19576  -0.18013  -0.15876  -0.12458
  Beta  occ. eigenvalues --   -0.10200  -0.08493  -0.07546
  Beta virt. eigenvalues --    0.07186   0.08554   0.09166   0.09597   0.10393
  Beta virt. eigenvalues --    0.10650   0.11192   0.11760   0.12205   0.12693
  Beta virt. eigenvalues --    0.12900   0.13599   0.14010   0.14616   0.14955

 Mulliken charges and spin densities:
               1          2
     1  C   -0.524128  -0.137066
     2  C   -0.024243   0.228555
     3  C    0.480695  -0.072443
     4  C   -0.272368   0.231036
     5  C    1.129359   0.070951
     6  C   -1.077455   0.080738
     7  C   -0.390301   0.047947
     8  C   -0.389674   0.218952
     9  O   -0.382407   0.188362
    10  C    0.247326   0.008715
    11  C   -0.339714   0.003831
    12  O   -0.010812   0.002553
    13  C   -0.230085   0.011800
    14  C    0.096659   0.067526
    15  C   -0.665560  -0.131776
    16  H    0.037121   0.109127
    17  H    0.140743   0.002544
    18  H    0.141871  -0.004951
    19  H    0.200814  -0.014952
    20  H    0.088377  -0.007513
    21  H    0.087929   0.005372
    22  H    0.024308  -0.019275
    23  H    0.153638   0.001218
    24  H    0.133114   0.010239
    25  H    0.087649   0.067548
    26  H    0.140850   0.017463
    27  H    0.116292   0.013500
 Sum of Mulliken charges =  -1.00000   1.00000

 Dipole moment (field-independent basis, Debye):
    X=              7.6923    Y=              3.7187    Z=             -0.3223  Tot=              8.5500
 Quadrupole moment (field-independent basis, Debye-Ang):
   XX=           -133.4208   YY=           -116.2371   ZZ=            -96.8155
   XY=            -16.3939   XZ=              6.1433   YZ=              2.3365

 Summary of Natural Population Analysis:

                                       Natural Population
                Natural  -----------------------------------------------
    Atom  No    Charge         Core      Valence    Rydberg      Total
 -----------------------------------------------------------------------
      C    1   -0.29688      0.99965     2.29218    0.00505     3.29688
      C    2    0.06193      0.99949     1.92880    0.00978     2.93807
      C    3   -0.06747      0.99946     2.05702    0.01099     3.06747
      C    4   -0.02734      0.99949     2.01959    0.00826     3.02734
      C    5   -0.06174      0.99948     2.05341    0.00884     3.06174
      C    6   -0.05910      0.99954     2.05091    0.00866     3.05910
      C    7   -0.12419      0.99953     2.11654    0.00812     3.12419
      C    8    0.24308      0.99968     1.73617    0.02107     2.75692
      O    9   -0.24685      0.99988     3.23907    0.00790     4.24685
      C   10   -0.05137      0.99947     2.04089    0.01100     3.05137
      C   11    0.06575      0.99945     1.92171    0.01309     2.93425
      O   12   -0.23628      0.99987     3.22773    0.00867     4.23628
      C   13    0.05047      0.99943     1.93618    0.01391     2.94953
      C   14   -0.05335      0.99948     2.04603    0.00783     3.05335
      C   15   -0.29330      0.99963     2.28905    0.00461     3.29330
      H   16    0.09933      0.00000     0.39889    0.00178     0.40067
      H   17    0.10237      0.00000     0.39669    0.00094     0.39763
      H   18    0.09702      0.00000     0.40214    0.00084     0.40298
      H   19    0.10279      0.00000     0.39536    0.00185     0.39721
      H   20    0.08837      0.00000     0.40958    0.00204     0.41163
      H   21    0.08772      0.00000     0.41094    0.00135     0.41228
      H   22    0.02447      0.00000     0.47240    0.00312     0.47553
      H   23    0.09554      0.00000     0.40355    0.00091     0.40446
      H   24    0.08833      0.00000     0.41073    0.00094     0.41167
      H   25    0.10333      0.00000     0.39503    0.00165     0.39667
      H   26    0.11037      0.00000     0.38837    0.00126     0.38963
      H   27    0.09699      0.00000     0.40199    0.00101     0.40301
 =======================================================================
   * Total *    0.00000     14.99355    37.84096    0.16549    53.00000

 Normal termination of Gaussian 16 at Thu Dec 10 17:39:19 2020.
