 Gaussian 16, Revision A.03,

 -----------------------------------------------------------
 # opt freq B3LYP/6-31G(d) empiricaldispersion=gd3bj scf=xqc
 -----------------------------------------------------------

 -------------------------------
 CID_100792195_JID_7360_neutraal
 -------------------------------
 Symbolic Z-matrix:
 Charge =  0 Multiplicity = 1

 SCF Done:  E(RB3LYP) =  -693.198607974     A.U. after   14 cycles
 SCF Done:  E(RB3LYP) =  -693.202402455     A.U. after   12 cycles
 SCF Done:  E(RB3LYP) =  -693.202958919     A.U. after   12 cycles
 SCF Done:  E(RB3LYP) =  -693.203161000     A.U. after   12 cycles
 SCF Done:  E(RB3LYP) =  -693.203307662     A.U. after   11 cycles
 SCF Done:  E(RB3LYP) =  -693.203401458     A.U. after   11 cycles
 SCF Done:  E(RB3LYP) =  -693.203430342     A.U. after   10 cycles
 SCF Done:  E(RB3LYP) =  -693.203436435     A.U. after   10 cycles
 SCF Done:  E(RB3LYP) =  -693.203438829     A.U. after    9 cycles
 SCF Done:  E(RB3LYP) =  -693.203439684     A.U. after    9 cycles
 SCF Done:  E(RB3LYP) =  -693.203440327     A.U. after    8 cycles
 SCF Done:  E(RB3LYP) =  -693.203440462     A.U. after    7 cycles
 SCF Done:  E(RB3LYP) =  -693.203440526     A.U. after    7 cycles
 Optimization completed.
    -- Stationary point found.
 Normal termination of Gaussian 16 at Fri Dec 11 12:06:19 2020.

 --------------------------------------------------------------------
 #N Geom=AllCheck Guess=TCheck SCRF=Check GenChk RB3LYP/6-31G(d) Freq
 --------------------------------------------------------------------

 Structure from the checkpoint file:  "JID_7360.chk"
 -------------------------------
 CID_100792195_JID_7360_neutraal
 -------------------------------
 Charge =  0 Multiplicity = 1

 SCF Done:  E(RB3LYP) =  -693.203440526     A.U. after    1 cycles

  Exact polarizability: 177.751 -17.425 173.586  -7.273   1.425 132.320
 Approx polarizability: 229.928 -34.060 279.671 -16.065   5.941 230.741

                      1                      2                      3
                      A                      A                      A
 Frequencies --     18.8891                32.6783                54.6566
 Red. masses --      3.7211                 4.0227                 3.8228
 Frc consts  --      0.0008                 0.0025                 0.0067
 IR Inten    --      0.1014                 0.1735                 0.1015

                      4                      5                      6
                      A                      A                      A
 Frequencies --     68.5171                86.2257                99.4495
 Red. masses --      3.6194                 3.5562                 2.7593
 Frc consts  --      0.0100                 0.0156                 0.0161
 IR Inten    --      0.0252                 0.2075                 0.0793

                      7                      8                      9
                      A                      A                      A
 Frequencies --    125.2427               168.8011               179.3140
 Red. masses --      3.5338                 3.4222                 1.1650
 Frc consts  --      0.0327                 0.0575                 0.0221
 IR Inten    --      0.9096                 0.6992                 0.1893

                     10                     11                     12
                      A                      A                      A
 Frequencies --    215.8039               216.0671               235.3451
 Red. masses --      2.3794                 1.0839                 4.3050
 Frc consts  --      0.0653                 0.0298                 0.1405
 IR Inten    --      2.8180                 0.2600                 2.2750

                     13                     14                     15
                      A                      A                      A
 Frequencies --    287.0412               332.2862               351.2412
 Red. masses --      2.5025                 3.4007                 2.2351
 Frc consts  --      0.1215                 0.2212                 0.1625
 IR Inten    --      0.2728                 0.5963                 1.1178

                     16                     17                     18
                      A                      A                      A
 Frequencies --    355.7487               381.8533               418.7790
 Red. masses --      2.5894                 2.6916                 3.0142
 Frc consts  --      0.1931                 0.2312                 0.3115
 IR Inten    --      1.1817                 2.2578                 0.1325

                     19                     20                     21
                      A                      A                      A
 Frequencies --    422.4089               481.6584               507.6535
 Red. masses --      3.2658                 2.7281                 3.9862
 Frc consts  --      0.3433                 0.3729                 0.6053
 IR Inten    --      2.7231                 0.5551                 4.0130

                     22                     23                     24
                      A                      A                      A
 Frequencies --    586.3890               613.5031               637.7597
 Red. masses --      3.3793                 3.7919                 6.2311
 Frc consts  --      0.6846                 0.8409                 1.4932
 IR Inten    --      9.7849                 4.5538                 0.0614

                     25                     26                     27
                      A                      A                      A
 Frequencies --    639.7195               670.4154               714.9456
 Red. masses --      3.8194                 3.7315                 3.2098
 Frc consts  --      0.9209                 0.9881                 0.9667
 IR Inten    --      0.6048                 6.3664                 3.1036

                     28                     29                     30
                      A                      A                      A
 Frequencies --    718.3169               750.5864               763.3104
 Red. masses --      1.8542                 1.7459                 1.9046
 Frc consts  --      0.5637                 0.5795                 0.6538
 IR Inten    --     33.3285                68.9720                33.4187

                     31                     32                     33
                      A                      A                      A
 Frequencies --    769.2680               784.4159               805.3697
 Red. masses --      1.5423                 1.8519                 1.2894
 Frc consts  --      0.5377                 0.6714                 0.4928
 IR Inten    --     16.7675                23.5269                 2.2853

                     34                     35                     36
                      A                      A                      A
 Frequencies --    836.0444               839.0845               863.0727
 Red. masses --      1.9817                 1.7988                 1.2492
 Frc consts  --      0.8161                 0.7462                 0.5483
 IR Inten    --     20.7312                17.8150                 0.3505

                     37                     38                     39
                      A                      A                      A
 Frequencies --    917.4507               933.4384               967.0529
 Red. masses --      1.7482                 1.7151                 1.3514
 Frc consts  --      0.8670                 0.8805                 0.7446
 IR Inten    --      0.6725                 6.3069                 0.2061

                     40                     41                     42
                      A                      A                      A
 Frequencies --    974.6566               988.4949               994.0300
 Red. masses --      2.0601                 2.5413                 1.2474
 Frc consts  --      1.1530                 1.4630                 0.7262
 IR Inten    --      0.9916                 2.9390                 0.8676

                     43                     44                     45
                      A                      A                      A
 Frequencies --   1001.8129              1021.8183              1025.3275
 Red. masses --      1.8732                 6.1921                 1.5879
 Frc consts  --      1.1077                 3.8092                 0.9836
 IR Inten    --     17.8683                 0.9840                 0.5464

                     46                     47                     48
                      A                      A                      A
 Frequencies --   1055.6239              1059.6966              1074.9921
 Red. masses --      1.2386                 2.2606                 1.7386
 Frc consts  --      0.8132                 1.4957                 1.1837
 IR Inten    --      6.4812                 0.7439                 8.8272

                     49                     50                     51
                      A                      A                      A
 Frequencies --   1078.0966              1112.3355              1114.8947
 Red. masses --      1.5615                 2.3055                 3.4558
 Frc consts  --      1.0693                 1.6807                 2.5308
 IR Inten    --      2.0528                21.4529                28.3998

                     52                     53                     54
                      A                      A                      A
 Frequencies --   1127.7677              1179.3718              1193.5379
 Red. masses --      1.5871                 1.8999                 1.0992
 Frc consts  --      1.1893                 1.5569                 0.9226
 IR Inten    --      4.3321                 2.4946                 0.0817

                     55                     56                     57
                      A                      A                      A
 Frequencies --   1211.7508              1214.4280              1228.2098
 Red. masses --      2.0135                 1.1541                 3.1249
 Frc consts  --      1.7419                 1.0029                 2.7774
 IR Inten    --      3.4000                 0.4889                 4.3042

                     58                     59                     60
                      A                      A                      A
 Frequencies --   1239.3448              1257.8660              1295.4006
 Red. masses --      1.6209                 1.4185                 1.4531
 Frc consts  --      1.4668                 1.3223                 1.4366
 IR Inten    --      3.2783                 2.8976                 4.4715

                     61                     62                     63
                      A                      A                      A
 Frequencies --   1317.2702              1348.4174              1364.1118
 Red. masses --      1.3154                 3.9294                 4.7711
 Frc consts  --      1.3448                 4.2094                 5.2308
 IR Inten    --      1.1372                45.5264                 0.8431

                     64                     65                     66
                      A                      A                      A
 Frequencies --   1370.2070              1377.2235              1402.1781
 Red. masses --      1.2992                 1.2672                 1.4535
 Frc consts  --      1.4371                 1.4162                 1.6837
 IR Inten    --      1.0651                12.5575                20.8847

                     67                     68                     69
                      A                      A                      A
 Frequencies --   1413.4802              1440.3504              1447.1029
 Red. masses --      1.3596                 1.2550                 2.5083
 Frc consts  --      1.6005                 1.5341                 3.0948
 IR Inten    --     11.8127                 5.4535                10.8999

                     70                     71                     72
                      A                      A                      A
 Frequencies --   1447.7006              1475.6185              1495.0546
 Red. masses --      1.3445                 2.5319                 1.1778
 Frc consts  --      1.6602                 3.2482                 1.5511
 IR Inten    --      0.7606                31.8787                24.9914

                     73                     74                     75
                      A                      A                      A
 Frequencies --   1503.0511              1511.8635              1513.0438
 Red. masses --      2.0325                 1.0823                 1.1121
 Frc consts  --      2.7054                 1.4575                 1.5000
 IR Inten    --      4.9590                 7.7893                24.2298

                     76                     77                     78
                      A                      A                      A
 Frequencies --   1515.9284              1519.4320              1531.6362
 Red. masses --      1.0708                 1.0939                 1.1615
 Frc consts  --      1.4499                 1.4879                 1.6053
 IR Inten    --     12.3197                12.5862                 3.0633

                     79                     80                     81
                      A                      A                      A
 Frequencies --   1542.3542              1545.4689              1554.7474
 Red. masses --      1.2168                 2.0983                 1.6744
 Frc consts  --      1.7055                 2.9528                 2.3846
 IR Inten    --      4.2994                 7.0770                 6.6491

                     82                     83                     84
                      A                      A                      A
 Frequencies --   1558.2760              1627.9076              1644.5502
 Red. masses --      1.8094                 5.2936                 5.4594
 Frc consts  --      2.5887                 8.2653                 8.6994
 IR Inten    --     10.3931                 0.9326                 0.8097

                     85                     86                     87
                      A                      A                      A
 Frequencies --   1664.5276              3007.4467              3024.6908
 Red. masses --      5.5639                 1.0627                 1.0410
 Frc consts  --      9.0826                 5.6630                 5.6111
 IR Inten    --      2.5386                29.2180                50.1498

                     88                     89                     90
                      A                      A                      A
 Frequencies --   3041.0646              3049.2834              3062.1511
 Red. masses --      1.0966                 1.0592                 1.0384
 Frc consts  --      5.9751                 5.8029                 5.7369
 IR Inten    --     41.8877                53.2704                 9.8250

                     91                     92                     93
                      A                      A                      A
 Frequencies --   3065.8362              3086.0727              3092.4296
 Red. masses --      1.0997                 1.0616                 1.1064
 Frc consts  --      6.0900                 5.9571                 6.2341
 IR Inten    --     31.8616                23.8310                21.5465

                     94                     95                     96
                      A                      A                      A
 Frequencies --   3120.5478              3131.1637              3132.7416
 Red. masses --      1.1017                 1.0996                 1.0997
 Frc consts  --      6.3211                 6.3516                 6.3587
 IR Inten    --      7.6084                50.2540                 2.3619

                     97                     98                     99
                      A                      A                      A
 Frequencies --   3157.5940              3169.1831              3176.6945
 Red. masses --      1.1007                 1.0873                 1.0864
 Frc consts  --      6.4659                 6.4342                 6.4595
 IR Inten    --     18.5333                 9.1717                 5.5687

                    100                    101                    102
                      A                      A                      A
 Frequencies --   3188.1642              3197.0435              3209.5085
 Red. masses --      1.0894                 1.0936                 1.0978
 Frc consts  --      6.5239                 6.5858                 6.6626
 IR Inten    --      5.7150                36.6586                20.5518

                    103                    104                    105
                      A                      A                      A
 Frequencies --   3244.8497              3261.9067              3493.6291
 Red. masses --      1.0917                 1.1001                 1.0744
 Frc consts  --      6.7726                 6.8963                 7.7261
 IR Inten    --     11.6359                 7.1036                 0.7861

 - Thermochemistry -
 -------------------
 Temperature   298.150 Kelvin.  Pressure   1.00000 Atm.
 Atom     1 has atomic number  6 and mass  12.00000

 Molecular mass:   228.16265 amu.
 Principal axes and moments of inertia in atomic units:
                           1         2         3
     Eigenvalues --  2093.540106233.600717417.34945
           X            0.99994   0.01088  -0.00223
           Y           -0.01089   0.99992  -0.00631
           Z            0.00217   0.00634   0.99998
 This molecule is an asymmetric top.
 Rotational symmetry number  1.
 Warning -- assumption of classical behavior for rotation
           may cause significant error
 Rotational temperatures (Kelvin)      0.04137     0.01389     0.01168
 Rotational constants (GHZ):           0.86205     0.28952     0.24331
 Zero-point vibrational energy     851398.8 (Joules/Mol)
                                  203.48920 (Kcal/Mol)
 Warning -- explicit consideration of  23 degrees of freedom as
           vibrations may cause significant error
 Vibrational temperatures:     27.18    47.02    78.64    98.58   124.06
          (Kelvin)            143.09   180.20   242.87   257.99   310.49
                              310.87   338.61   412.99   478.09   505.36
                              511.84   549.40   602.53   607.75   693.00
                              730.40   843.68   882.69   917.59   920.41
                              964.58  1028.65  1033.50  1079.93  1098.23
                             1106.81  1128.60  1158.75  1202.88  1207.26
                             1241.77  1320.01  1343.01  1391.37  1402.31
                             1422.22  1430.19  1441.39  1470.17  1475.22
                             1518.81  1524.67  1546.67  1551.14  1600.40
                             1604.08  1622.61  1696.85  1717.23  1743.44
                             1747.29  1767.12  1783.14  1809.79  1863.79
                             1895.26  1940.07  1962.65  1971.42  1981.52
                             2017.42  2033.68  2072.34  2082.06  2082.92
                             2123.09  2151.05  2162.56  2175.23  2176.93
                             2181.08  2186.12  2203.68  2219.10  2223.59
                             2236.93  2242.01  2342.20  2366.14  2394.88
                             4327.05  4351.86  4375.41  4387.24  4405.75
                             4411.05  4440.17  4449.32  4489.77  4505.05
                             4507.32  4543.07  4559.75  4570.55  4587.06
                             4599.83  4617.77  4668.62  4693.16  5026.55

 Zero-point correction=                           0.324281 (Hartree/Particle)
 Thermal correction to Energy=                    0.340746
 Thermal correction to Enthalpy=                  0.341690
 Thermal correction to Gibbs Free Energy=         0.278657
 Sum of electronic and zero-point Energies=           -692.879160
 Sum of electronic and thermal Energies=              -692.862694
 Sum of electronic and thermal Enthalpies=            -692.861750
 Sum of electronic and thermal Free Energies=         -692.924783

                     E (Thermal)             CV                S
                      KCal/Mol        Cal/Mol-Kelvin    Cal/Mol-Kelvin
 Total                  213.822             63.074            132.665
 Electronic               0.000              0.000              0.000
 Translational            0.889              2.981             42.177
 Rotational               0.889              2.981             32.937
 Vibrational            212.044             57.112             57.551
 Vibration     1          0.593              1.986              6.748
 Vibration     2          0.594              1.983              5.660
 Vibration     3          0.596              1.976              4.641
 Vibration     4          0.598              1.969              4.196
 Vibration     5          0.601              1.959              3.744
 Vibration     6          0.604              1.949              3.465
 Vibration     7          0.610              1.928              3.018
 Vibration     8          0.625              1.881              2.449
 Vibration     9          0.629              1.868              2.336
 Vibration    10          0.645              1.817              1.994
 Vibration    11          0.645              1.817              1.992
 Vibration    12          0.655              1.787              1.838
 Vibration    13          0.684              1.698              1.491
 Vibration    14          0.714              1.611              1.249
 Vibration    15          0.728              1.573              1.161
 Vibration    16          0.731              1.563              1.141
 Vibration    17          0.751              1.509              1.032
 Vibration    18          0.782              1.429              0.896
 Vibration    19          0.785              1.422              0.884
 Vibration    20          0.838              1.291              0.706
 Vibration    21          0.863              1.233              0.639
 Vibration    22          0.943              1.061              0.474
 Vibration    23          0.973              1.003              0.427

                           ! Non-Optimized Parameters !
 Normal termination of Gaussian 16 at Fri Dec 11 12:23:07 2020.

 ----------------------------------------------------------------------
 # B3LYP/6-311++G(d,p) empiricaldispersion=gd3bj scf=xqc pop=npa geom=c
 heck
 ----------------------------------------------------------------------

 ---------------------------------------
 CID_100792195_JID_7360_Energie_neutraal
 ---------------------------------------
 Structure from the checkpoint file:  "JID_7360.chk"
 Charge =  0 Multiplicity = 1

 SCF Done:  E(RB3LYP) =  -693.388171391     A.U. after   14 cycles
 Normal termination of Gaussian 16 at Fri Dec 11 12:31:15 2020.

 ----------------------------------------------------------------------
 # B3LYP/6-311++G(d,p) empiricaldispersion=gd3bj scf=xqc pop=npa geom=c
 heck
 ----------------------------------------------------------------------

 -------------------------------------
 CID_100792195_JID_7360_Energie_kation
 -------------------------------------
 Structure from the checkpoint file:  "JID_7360.chk"
 Charge =  1 Multiplicity = 2

 SCF Done:  E(UB3LYP) =  -693.124603029     A.U. after   23 cycles
 Normal termination of Gaussian 16 at Fri Dec 11 12:53:39 2020.
 Gaussian 16:  ES64L-G16RevA.03 25-Dec-2016

 ----------------------------------------------------------------------
 # B3LYP/6-311++G(d,p) empiricaldispersion=gd3bj scf=xqc pop=npa geom=c
 heck
 ----------------------------------------------------------------------

 ------------------------------------
 CID_100792195_JID_7360_Energie_anion
 ------------------------------------
 Structure from the checkpoint file:  "JID_7360.chk"
 Charge = -1 Multiplicity = 2

                         Standard orientation:
 ---------------------------------------------------------------------
 Center     Atomic      Atomic             Coordinates (Angstroms)
 Number     Number       Type             X           Y           Z
 ---------------------------------------------------------------------
      1          6           0        0.240095    1.831405   -0.494627
      2          6           0        1.154714    1.459929    0.672816
      3          7           0        2.072153    0.373210    0.354025
      4          6           0        3.368048    0.548952   -0.100642
      5          6           0        3.888890   -0.701142   -0.372327
      6          6           0        2.885327   -1.662348   -0.080727
      7          6           0        1.767866   -0.984704    0.363668
      8          6           0        0.421800   -1.517019    0.734488
      9          7           0       -0.283332   -2.057695   -0.440862
     10          6           0       -1.732274   -2.211793   -0.248609
     11          6           0       -2.483439   -0.900970   -0.112907
     12          6           0       -2.868897   -0.195188   -1.261098
     13          6           0       -3.457944    1.064451   -1.166014
     14          6           0       -3.669432    1.643944    0.087092
     15          6           0       -3.302272    0.948283    1.239223
     16          6           0       -2.719807   -0.316647    1.137938
     17          6           0        4.005081    1.895174   -0.225217
     18          1           0        0.829518    2.146297   -1.362368
     19          1           0       -0.431590    2.648657   -0.211161
     20          1           0       -0.381042    0.982146   -0.789178
     21          1           0        1.755312    2.321053    0.976820
     22          1           0        0.557338    1.172655    1.542733
     23          1           0        4.891178   -0.892237   -0.732724
     24          1           0        2.956254   -2.736727   -0.183717
     25          1           0        0.525799   -2.337899    1.456968
     26          1           0       -0.157001   -0.731831    1.243738
     27          1           0       -0.107698   -1.445766   -1.236054
     28          1           0       -2.121596   -2.776199   -1.104029
     29          1           0       -1.883414   -2.832071    0.643183
     30          1           0       -2.700990   -0.640662   -2.239716
     31          1           0       -3.753786    1.593752   -2.067664
     32          1           0       -4.126430    2.626455    0.164301
     33          1           0       -3.474853    1.386820    2.218390
     34          1           0       -2.452243   -0.861911    2.039785
     35          1           0        3.459435    2.562221   -0.906289
     36          1           0        4.090462    2.415122    0.739027
     37          1           0        5.017056    1.777543   -0.622531
 ---------------------------------------------------------------------

 SCF Done:  E(UB3LYP) =  -693.375968196     A.U. after   33 cycles
 SCF Done:  E(UB3LYP) =  -693.375968196     a.u. after    1 cycles

 The electronic state is 2-A.
 Alpha  occ. eigenvalues --  -14.26112 -14.21031 -10.11576 -10.10964 -10.10798
 Alpha  occ. eigenvalues --  -10.10071 -10.09658 -10.08899 -10.08366 -10.08299
 Alpha  occ. eigenvalues --  -10.08292 -10.08244 -10.08184 -10.08050 -10.06566
 Alpha  occ. eigenvalues --  -10.05754 -10.05706  -0.88813  -0.81928  -0.76409
 Alpha  occ. eigenvalues --   -0.71697  -0.68620  -0.66616  -0.65624  -0.63571
 Alpha  occ. eigenvalues --   -0.62363  -0.57104  -0.54282  -0.53975  -0.51598
 Alpha  occ. eigenvalues --   -0.49475  -0.48237  -0.43912  -0.42850  -0.41601
 Alpha  occ. eigenvalues --   -0.38331  -0.37452  -0.37254  -0.36108  -0.35735
 Alpha  occ. eigenvalues --   -0.34780  -0.33706  -0.33257  -0.33079  -0.32016
 Alpha  occ. eigenvalues --   -0.31712  -0.31032  -0.29633  -0.28494  -0.28155
 Alpha  occ. eigenvalues --   -0.27894  -0.27215  -0.26299  -0.26211  -0.25602
 Alpha  occ. eigenvalues --   -0.25587  -0.25024  -0.16680  -0.16351  -0.14509
 Alpha  occ. eigenvalues --   -0.13680  -0.11050   0.04089
 Alpha virt. eigenvalues --    0.05963   0.06543   0.06725   0.07343   0.07551
 Alpha virt. eigenvalues --    0.07899   0.08657   0.08731   0.08945   0.09150
 Alpha virt. eigenvalues --    0.10281   0.10814   0.11046   0.11554   0.12014

  Beta  occ. eigenvalues --  -14.26112 -14.21025 -10.11557 -10.10957 -10.10792
  Beta  occ. eigenvalues --  -10.10069 -10.09658 -10.08887 -10.08356 -10.08281
  Beta  occ. eigenvalues --  -10.08274 -10.08226 -10.08152 -10.08026 -10.06543
  Beta  occ. eigenvalues --  -10.05753 -10.05703  -0.88807  -0.81912  -0.76371
  Beta  occ. eigenvalues --   -0.71681  -0.68596  -0.66577  -0.65579  -0.63548
  Beta  occ. eigenvalues --   -0.62331  -0.57072  -0.54235  -0.53947  -0.51547
  Beta  occ. eigenvalues --   -0.49428  -0.48228  -0.43886  -0.42798  -0.41571
  Beta  occ. eigenvalues --   -0.38310  -0.37426  -0.37206  -0.36076  -0.35702
  Beta  occ. eigenvalues --   -0.34758  -0.33681  -0.33230  -0.33039  -0.31986
  Beta  occ. eigenvalues --   -0.31685  -0.30998  -0.29609  -0.28472  -0.28137
  Beta  occ. eigenvalues --   -0.27872  -0.27179  -0.26280  -0.26173  -0.25573
  Beta  occ. eigenvalues --   -0.25554  -0.24988  -0.16643  -0.16275  -0.14500
  Beta  occ. eigenvalues --   -0.13662  -0.11039
  Beta virt. eigenvalues --    0.06171   0.06603   0.07117   0.07261   0.07402
  Beta virt. eigenvalues --    0.07778   0.08259   0.08997   0.09201   0.09376
  Beta virt. eigenvalues --    0.09538   0.10468   0.11042   0.11138   0.11914

 Mulliken charges and spin densities:
               1          2
     1  C    0.445532  -0.757888
     2  C   -0.659824   0.262407
     3  N    0.409617   0.016159
     4  C   -1.056667   1.170065
     5  C   -0.134854   0.049849
     6  C    0.080389  -0.243016
     7  C   -0.291403   0.544054
     8  C   -0.482986  -0.549867
     9  N    0.028039   0.051565
    10  C    0.762040  -1.767202
    11  C    0.527723   0.311275
    12  C   -1.015276   0.914519
    13  C   -0.104692  -0.133919
    14  C    2.154028  -2.418327
    15  C   -0.087831  -0.246682
    16  C   -0.992718   0.785099
    17  C    1.433233  -2.253126
    18  H   -0.102198   0.253855
    19  H   -0.322463   0.444875
    20  H    0.639788  -0.404397
    21  H   -0.234750   0.395998
    22  H   -0.357980   0.526921
    23  H   -0.016434   0.152556
    24  H    0.124859   0.010598
    25  H    0.071976   0.100649
    26  H    0.443673  -0.389726
    27  H    0.150488   0.063127
    28  H    0.064963   0.103611
    29  H    0.057619   0.102371
    30  H   -0.203119   0.370156
    31  H   -0.550563   0.735148
    32  H   -0.360309   0.530710
    33  H   -0.797388   0.992388
    34  H   -0.255577   0.435113
    35  H   -0.131588   0.283640
    36  H   -0.235279   0.407437
    37  H   -0.000067   0.150003
 Sum of Mulliken charges =  -1.00000   1.00000

 Dipole moment (field-independent basis, Debye):
    X=              2.8793    Y=             -5.9033    Z=             -0.9917  Tot=              6.6425
 Quadrupole moment (field-independent basis, Debye-Ang):
   XX=           -185.3788   YY=           -159.5855   ZZ=           -144.2973
   XY=              6.5462   XZ=              1.8816   YZ=             -4.0418

 Summary of Natural Population Analysis:

                                       Natural Population
                Natural  -----------------------------------------------
    Atom  No    Charge         Core      Valence    Rydberg      Total
 -----------------------------------------------------------------------
      C    1   -0.28869      0.99965     2.28329    0.00575     3.28869
      C    2   -0.08493      0.99962     2.07460    0.01072     3.08493
      N    3   -0.20474      0.99959     2.69503    0.01012     3.70474
      C    4    0.07601      0.99953     1.91184    0.01262     2.92399
      C    5   -0.14886      0.99951     2.14085    0.00850     3.14886
      C    6   -0.13852      0.99951     2.13042    0.00859     3.13852
      C    7    0.06589      0.99952     1.92333    0.01126     2.93411
      C    8   -0.10706      0.99957     2.09783    0.00966     3.10706
      N    9   -0.33030      0.99976     2.81940    0.01114     3.83030
      C   10   -0.09475      0.99959     2.08383    0.01134     3.09475
      C   11   -0.02892      0.99949     2.01894    0.01048     3.02892
      C   12   -0.10579      0.99951     2.09529    0.01100     3.10579
      C   13   -0.09663      0.99956     2.08626    0.01082     3.09663
      C   14   -0.09917      0.99956     2.08893    0.01069     3.09917
      C   15   -0.09708      0.99956     2.08616    0.01136     3.09708
      C   16   -0.10478      0.99951     2.09422    0.01106     3.10478
      C   17   -0.30272      0.99964     2.29789    0.00519     3.30272
      H   18    0.09706      0.00000     0.40174    0.00119     0.40294
      H   19    0.10620      0.00000     0.39235    0.00145     0.39380
      H   20    0.10056      0.00000     0.39719    0.00225     0.39944
      H   21    0.10207      0.00000     0.39639    0.00154     0.39793
      H   22    0.09955      0.00000     0.39884    0.00161     0.40045
      H   23    0.10055      0.00000     0.39876    0.00069     0.39945
      H   24    0.10342      0.00000     0.39584    0.00074     0.39658
      H   25    0.09563      0.00000     0.40317    0.00120     0.40437
      H   26    0.09283      0.00000     0.40486    0.00231     0.40717
      H   27    0.17249      0.00000     0.32394    0.00357     0.32751
      H   28    0.09746      0.00000     0.40146    0.00108     0.40254
      H   29    0.09445      0.00000     0.40445    0.00111     0.40555
      H   30    0.09980      0.00000     0.39901    0.00119     0.40020
      H   31    0.10259      0.00000     0.39602    0.00139     0.39741
      H   32    0.10461      0.00000     0.39348    0.00191     0.39539
      H   33    0.10436      0.00000     0.39357    0.00207     0.39564
      H   34    0.10119      0.00000     0.39755    0.00127     0.39881
      H   35    0.10492      0.00000     0.39376    0.00132     0.39508
      H   36    0.10413      0.00000     0.39453    0.00134     0.39587
      H   37    0.10718      0.00000     0.39207    0.00074     0.39282
 =======================================================================
   * Total *    0.00000     16.99265    44.80710    0.20025    62.00000

 Normal termination of Gaussian 16 at Fri Dec 11 13:20:37 2020.
