 Gaussian 16, Revision A.03,

 -----------------------------------------------------------
 # opt freq B3LYP/6-31G(d) empiricaldispersion=gd3bj scf=xqc
 -----------------------------------------------------------

 ------------------------------
 CID_15504955_JID_6741_neutraal
 ------------------------------
 Symbolic Z-matrix:
 Charge =  0 Multiplicity = 1

 SCF Done:  E(RB3LYP) =  -673.690818385     A.U. after   14 cycles
 SCF Done:  E(RB3LYP) =  -673.695833693     A.U. after   11 cycles
 SCF Done:  E(RB3LYP) =  -673.696564458     A.U. after   12 cycles
 SCF Done:  E(RB3LYP) =  -673.696608439     A.U. after   12 cycles
 SCF Done:  E(RB3LYP) =  -673.696831715     A.U. after   10 cycles
 SCF Done:  E(RB3LYP) =  -673.696882554     A.U. after   10 cycles
 SCF Done:  E(RB3LYP) =  -673.696914239     A.U. after   11 cycles
 SCF Done:  E(RB3LYP) =  -673.696922255     A.U. after   10 cycles
 SCF Done:  E(RB3LYP) =  -673.696925533     A.U. after    9 cycles
 SCF Done:  E(RB3LYP) =  -673.696926115     A.U. after    7 cycles
 SCF Done:  E(RB3LYP) =  -673.696926282     A.U. after    7 cycles
 SCF Done:  E(RB3LYP) =  -673.696926352     A.U. after    7 cycles
 SCF Done:  E(RB3LYP) =  -673.696926375     A.U. after    6 cycles
 Optimization completed.
    -- Stationary point found.
 Normal termination of Gaussian 16 at Thu Dec 10 23:07:07 2020.

 --------------------------------------------------------------------
 #N Geom=AllCheck Guess=TCheck SCRF=Check GenChk RB3LYP/6-31G(d) Freq
 --------------------------------------------------------------------

 Structure from the checkpoint file:  "JID_6741.chk"
 ------------------------------
 CID_15504955_JID_6741_neutraal
 ------------------------------
 Charge =  0 Multiplicity = 1

 SCF Done:  E(RB3LYP) =  -673.696926375     A.U. after    1 cycles

  Exact polarizability: 232.274  -2.115 143.314  13.847   1.777  88.005
 Approx polarizability: 295.823   3.302 243.428  24.783   1.690 141.111

                      1                      2                      3
                      A                      A                      A
 Frequencies --     21.2346                24.3377                48.7690
 Red. masses --      3.6788                 3.8595                 3.6939
 Frc consts  --      0.0010                 0.0013                 0.0052
 IR Inten    --      0.3589                 0.1989                 0.1621

                      4                      5                      6
                      A                      A                      A
 Frequencies --     53.4991                89.1746               112.2545
 Red. masses --      4.2831                 3.0392                 4.3662
 Frc consts  --      0.0072                 0.0142                 0.0324
 IR Inten    --      0.0907                 4.5014                 0.4095

                      7                      8                      9
                      A                      A                      A
 Frequencies --    151.0951               178.3761               213.0597
 Red. masses --      3.8120                 3.3679                 3.7232
 Frc consts  --      0.0513                 0.0631                 0.0996
 IR Inten    --      1.0613                 0.2618                 2.3002

                     10                     11                     12
                      A                      A                      A
 Frequencies --    236.6406               257.5896               295.7290
 Red. masses --      3.2203                 1.1845                 2.1754
 Frc consts  --      0.1062                 0.0463                 0.1121
 IR Inten    --      0.8072                 0.2866                 4.1505

                     13                     14                     15
                      A                      A                      A
 Frequencies --    348.2374               391.8195               416.4547
 Red. masses --      3.2087                 3.6810                 4.2301
 Frc consts  --      0.2293                 0.3330                 0.4323
 IR Inten    --      2.1786                 4.3299                 6.9595

                     16                     17                     18
                      A                      A                      A
 Frequencies --    429.4978               487.0544               526.2319
 Red. masses --      3.2016                 3.6540                 2.6557
 Frc consts  --      0.3480                 0.5107                 0.4333
 IR Inten    --      0.1613                 1.8548                 2.0498

                     19                     20                     21
                      A                      A                      A
 Frequencies --    531.6142               569.5639               595.5561
 Red. masses --      2.7523                 2.8996                 3.1232
 Frc consts  --      0.4583                 0.5542                 0.6527
 IR Inten    --      9.9863                 1.8969                 1.3104

                     22                     23                     24
                      A                      A                      A
 Frequencies --    653.9530               708.6176               714.6420
 Red. masses --      6.8401                 1.8780                 1.3570
 Frc consts  --      1.7235                 0.5556                 0.4083
 IR Inten    --      1.4004                33.5239                 2.0563

                     25                     26                     27
                      A                      A                      A
 Frequencies --    725.2956               745.7548               765.3983
 Red. masses --      1.6619                 1.5162                 3.5689
 Frc consts  --      0.5151                 0.4968                 1.2319
 IR Inten    --     32.1974               163.0950                 2.4580

                     28                     29                     30
                      A                      A                      A
 Frequencies --    809.5014               822.2570               825.0298
 Red. masses --      3.5586                 1.4193                 4.1989
 Frc consts  --      1.3739                 0.5654                 1.6839
 IR Inten    --     13.6421                20.1917                 4.6701

                     31                     32                     33
                      A                      A                      A
 Frequencies --    846.1192               863.1346               885.2581
 Red. masses --      1.6831                 3.1675                 2.9148
 Frc consts  --      0.7100                 1.3903                 1.3459
 IR Inten    --     24.9842                 9.5313                 3.5507

                     34                     35                     36
                      A                      A                      A
 Frequencies --    935.7748               946.9174               953.2675
 Red. masses --      1.3212                 1.3170                 1.5012
 Frc consts  --      0.6817                 0.6958                 0.8037
 IR Inten    --      3.8895                 0.7741                 4.8811

                     37                     38                     39
                      A                      A                      A
 Frequencies --    954.4544               973.3530               987.4962
 Red. masses --      1.7656                 1.3223                 1.9490
 Frc consts  --      0.9477                 0.7381                 1.1198
 IR Inten    --      5.5799                 4.5626                25.1948

                     40                     41                     42
                      A                      A                      A
 Frequencies --   1012.8055              1031.8217              1035.8127
 Red. masses --      2.5638                 2.2508                 2.7107
 Frc consts  --      1.5495                 1.4119                 1.7135
 IR Inten    --     12.6521                 4.9444                 3.6983

                     43                     44                     45
                      A                      A                      A
 Frequencies --   1051.4603              1084.7279              1089.6294
 Red. masses --      1.8257                 5.5440                 1.8435
 Frc consts  --      1.1892                 3.8434                 1.2896
 IR Inten    --     31.1132                57.9959                 4.6211

                     46                     47                     48
                      A                      A                      A
 Frequencies --   1129.1655              1142.2111              1147.9562
 Red. masses --      1.1223                 1.3059                 1.2991
 Frc consts  --      0.8431                 1.0038                 1.0087
 IR Inten    --      4.5940                 7.6059                 3.0830

                     49                     50                     51
                      A                      A                      A
 Frequencies --   1177.1434              1187.1213              1204.9278
 Red. masses --      3.5837                 1.2721                 1.2322
 Frc consts  --      2.9258                 1.0562                 1.0540
 IR Inten    --    115.7098                 0.7475                 7.1907

                     52                     53                     54
                      A                      A                      A
 Frequencies --   1208.2860              1219.8876              1241.1614
 Red. masses --      1.1696                 1.3896                 2.6449
 Frc consts  --      1.0060                 1.2184                 2.4006
 IR Inten    --     19.2203                 9.9394                 0.7150

                     55                     56                     57
                      A                      A                      A
 Frequencies --   1250.0725              1284.9922              1298.2910
 Red. masses --      1.6902                 1.5172                 3.8999
 Frc consts  --      1.5561                 1.4760                 3.8730
 IR Inten    --      4.3358                13.9624               277.2764

                     58                     59                     60
                      A                      A                      A
 Frequencies --   1328.5536              1335.5997              1351.5065
 Red. masses --      1.4280                 1.4208                 1.5894
 Frc consts  --      1.4850                 1.4932                 1.7105
 IR Inten    --      1.5918                14.1901                11.0080

                     61                     62                     63
                      A                      A                      A
 Frequencies --   1371.9870              1396.7479              1418.1464
 Red. masses --      2.3032                 1.3347                 1.5854
 Frc consts  --      2.5544                 1.5342                 1.8785
 IR Inten    --     27.7109                46.6540                12.5369

                     64                     65                     66
                      A                      A                      A
 Frequencies --   1427.8862              1472.4577              1500.0143
 Red. masses --      1.8036                 2.6617                 1.1950
 Frc consts  --      2.1666                 3.4001                 1.5842
 IR Inten    --     28.6767                 1.6194                19.2209

                     67                     68                     69
                      A                      A                      A
 Frequencies --   1501.3988              1517.7838              1520.5800
 Red. masses --      1.0939                 1.2659                 1.0480
 Frc consts  --      1.4528                 1.7182                 1.4277
 IR Inten    --      2.5865                29.8506                 5.3113

                     70                     71                     72
                      A                      A                      A
 Frequencies --   1535.3717              1536.8832              1568.3647
 Red. masses --      1.0970                 1.0661                 2.4331
 Frc consts  --      1.5237                 1.4837                 3.5262
 IR Inten    --     60.7514                 7.6965               103.1952

                     73                     74                     75
                      A                      A                      A
 Frequencies --   1574.1661              1639.7944              1661.3321
 Red. masses --      6.1898                 6.4817                 5.3238
 Frc consts  --      9.0371                10.2687                 8.6573
 IR Inten    --      2.1034                16.1046                 0.4308

                     76                     77                     78
                      A                      A                      A
 Frequencies --   1679.3302              2972.5377              3003.3771
 Red. masses --      5.8432                 1.0692                 1.0810
 Frc consts  --      9.7090                 5.5661                 5.7453
 IR Inten    --     51.7509                63.6545                16.8620

                     79                     80                     81
                      A                      A                      A
 Frequencies --   3022.7527              3035.7747              3045.7515
 Red. masses --      1.0350                 1.0898                 1.0613
 Frc consts  --      5.5717                 5.9177                 5.8009
 IR Inten    --     60.7448                24.6046                40.4975

                     82                     83                     84
                      A                      A                      A
 Frequencies --   3079.9569              3096.3542              3156.8943
 Red. masses --      1.1064                 1.1044                 1.0994
 Frc consts  --      6.1840                 6.2383                 6.4556
 IR Inten    --     46.1751                25.5232                31.4793

                     85                     86                     87
                      A                      A                      A
 Frequencies --   3174.4229              3204.1639              3209.3645
 Red. masses --      1.0890                 1.0873                 1.0863
 Frc consts  --      6.4655                 6.5768                 6.5920
 IR Inten    --     17.7232                 5.7228                 3.9916

                     88                     89                     90
                      A                      A                      A
 Frequencies --   3218.9251              3220.0446              3226.2188
 Red. masses --      1.0944                 1.0901                 1.0910
 Frc consts  --      6.6811                 6.6592                 6.6907
 IR Inten    --      9.8553                20.1587                13.9808

                     91                     92                     93
                      A                      A                      A
 Frequencies --   3236.9590              3257.6797              3505.7420
 Red. masses --      1.1028                 1.0994                 1.0740
 Frc consts  --      6.8079                 6.8744                 7.7773
 IR Inten    --     24.9964                 8.7410                 0.1958

 - Thermochemistry -
 -------------------
 Temperature   298.150 Kelvin.  Pressure   1.00000 Atm.
 Atom     1 has atomic number  6 and mass  12.00000

 Molecular mass:   215.13101 amu.
 Principal axes and moments of inertia in atomic units:
                           1         2         3
     Eigenvalues --   814.18751********************
           X            0.99998  -0.00658   0.00223
           Y            0.00658   0.99998  -0.00124
           Z           -0.00223   0.00126   1.00000
 This molecule is an asymmetric top.
 Rotational symmetry number  1.
 Warning -- assumption of classical behavior for rotation
           may cause significant error
 Rotational temperatures (Kelvin)      0.10638     0.00794     0.00754
 Rotational constants (GHZ):           2.21662     0.16543     0.15713
 Zero-point vibrational energy     741064.5 (Joules/Mol)
                                  177.11867 (Kcal/Mol)
 Warning -- explicit consideration of  21 degrees of freedom as
           vibrations may cause significant error
 Vibrational temperatures:     30.55    35.02    70.17    76.97   128.30
          (Kelvin)            161.51   217.39   256.64   306.55   340.47
                              370.61   425.49   501.04   563.74   599.19
                              617.95   700.76   757.13   764.87   819.48
                              856.87   940.89  1019.54  1028.21  1043.54
                             1072.97  1101.24  1164.69  1183.04  1187.03
                             1217.38  1241.86  1273.69  1346.37  1362.40
                             1371.54  1373.25  1400.44  1420.79  1457.20
                             1484.56  1490.30  1512.82  1560.68  1567.73
                             1624.62  1643.39  1651.65  1693.65  1708.00
                             1733.62  1738.45  1755.15  1785.75  1798.58
                             1848.82  1867.95  1911.49  1921.63  1944.52
                             1973.98  2009.61  2040.40  2054.41  2118.54
                             2158.19  2160.18  2183.75  2187.78  2209.06
                             2211.23  2256.53  2264.87  2359.30  2390.29
                             2416.18  4276.82  4321.19  4349.07  4367.80
                             4382.16  4431.37  4454.96  4542.07  4567.29
                             4610.08  4617.56  4631.32  4632.93  4641.81
                             4657.26  4687.07  5043.98

 Zero-point correction=                           0.282257 (Hartree/Particle)
 Thermal correction to Energy=                    0.297217
 Thermal correction to Enthalpy=                  0.298161
 Thermal correction to Gibbs Free Energy=         0.237537
 Sum of electronic and zero-point Energies=           -673.414670
 Sum of electronic and thermal Energies=              -673.399710
 Sum of electronic and thermal Enthalpies=            -673.398765
 Sum of electronic and thermal Free Energies=         -673.459389

                     E (Thermal)             CV                S
                      KCal/Mol        Cal/Mol-Kelvin    Cal/Mol-Kelvin
 Total                  186.506             57.059            127.594
 Electronic               0.000              0.000              0.000
 Translational            0.889              2.981             42.002
 Rotational               0.889              2.981             32.989
 Vibrational            184.729             51.098             52.603
 Vibration     1          0.593              1.985              6.515
 Vibration     2          0.593              1.985              6.244
 Vibration     3          0.595              1.978              4.867
 Vibration     4          0.596              1.976              4.684
 Vibration     5          0.602              1.957              3.678
 Vibration     6          0.607              1.939              3.230
 Vibration     7          0.619              1.901              2.658
 Vibration     8          0.629              1.869              2.345
 Vibration     9          0.644              1.821              2.017
 Vibration    10          0.656              1.785              1.828
 Vibration    11          0.667              1.750              1.678
 Vibration    12          0.690              1.682              1.441
 Vibration    13          0.726              1.579              1.174
 Vibration    14          0.759              1.488              0.993
 Vibration    15          0.780              1.434              0.904
 Vibration    16          0.791              1.406              0.860
 Vibration    17          0.843              1.279              0.691
 Vibration    18          0.881              1.192              0.596
 Vibration    19          0.887              1.180              0.584
 Vibration    20          0.926              1.097              0.505
 Vibration    21          0.953              1.041              0.457

                           ! Non-Optimized Parameters !
 Normal termination of Gaussian 16 at Thu Dec 10 23:15:55 2020.

 ----------------------------------------------------------------------
 # B3LYP/6-311++G(d,p) empiricaldispersion=gd3bj scf=xqc pop=npa geom=c
 heck
 ----------------------------------------------------------------------

 --------------------------------------
 CID_15504955_JID_6741_Energie_neutraal
 --------------------------------------
 Structure from the checkpoint file:  "JID_6741.chk"
 Charge =  0 Multiplicity = 1

 SCF Done:  E(RB3LYP) =  -673.882240558     A.U. after   14 cycles
 Normal termination of Gaussian 16 at Thu Dec 10 23:20:19 2020.

 ----------------------------------------------------------------------
 # B3LYP/6-311++G(d,p) empiricaldispersion=gd3bj scf=xqc pop=npa geom=c
 heck
 ----------------------------------------------------------------------

 ------------------------------------
 CID_15504955_JID_6741_Energie_kation
 ------------------------------------
 Structure from the checkpoint file:  "JID_6741.chk"
 Charge =  1 Multiplicity = 2

 SCF Done:  E(UB3LYP) =  -673.607950518     A.U. after   25 cycles
 Normal termination of Gaussian 16 at Thu Dec 10 23:31:10 2020.
 Gaussian 16:  ES64L-G16RevA.03 25-Dec-2016

 ----------------------------------------------------------------------
 # B3LYP/6-311++G(d,p) empiricaldispersion=gd3bj scf=xqc pop=npa geom=c
 heck
 ----------------------------------------------------------------------

 -----------------------------------
 CID_15504955_JID_6741_Energie_anion
 -----------------------------------
 Structure from the checkpoint file:  "JID_6741.chk"
 Charge = -1 Multiplicity = 2

                         Standard orientation:
 ---------------------------------------------------------------------
 Center     Atomic      Atomic             Coordinates (Angstroms)
 Number     Number       Type             X           Y           Z
 ---------------------------------------------------------------------
      1          6           0        6.006974   -0.745289    0.291164
      2          8           0        5.183255    0.361988   -0.027651
      3          6           0        3.832606    0.159768   -0.069788
      4          6           0        3.058014    1.284452   -0.391615
      5          6           0        1.676438    1.183452   -0.459436
      6          6           0        1.027056   -0.035613   -0.209995
      7          6           0        1.808747   -1.141699    0.117426
      8          6           0        3.203230   -1.061071    0.187252
      9          6           0       -0.478891   -0.146978   -0.315160
     10          7           0       -1.136954    0.995733    0.307453
     11          6           0       -2.548785    1.197922    0.037541
     12          6           0       -3.574232    0.189695    0.647032
     13          6           0       -4.988362    0.676829    0.441301
     14          6           0       -5.691464   -0.246494   -0.244526
     15          6           0       -4.830174   -1.406128   -0.509686
     16          6           0       -3.605143   -1.178329    0.007090
     17          1           0        7.033216   -0.374639    0.265936
     18          1           0        5.895185   -1.555630   -0.441672
     19          1           0        5.786914   -1.136872    1.293425
     20          1           0        3.566764    2.224129   -0.582511
     21          1           0        1.075048    2.056498   -0.692321
     22          1           0        1.326608   -2.094522    0.325322
     23          1           0        3.776125   -1.943202    0.447621
     24          1           0       -0.786829   -0.151797   -1.370582
     25          1           0       -0.784693   -1.124855    0.093888
     26          1           0       -0.945913    1.010333    1.306705
     27          1           0       -2.808470    2.195216    0.413188
     28          1           0       -2.691028    1.217822   -1.049102
     29          1           0       -3.348153    0.104814    1.723070
     30          1           0       -5.336625    1.649747    0.769892
     31          1           0       -6.727822   -0.167399   -0.555831
     32          1           0       -5.149528   -2.299934   -1.035591
     33          1           0       -2.764251   -1.858845   -0.014000
 ---------------------------------------------------------------------

 SCF Done:  E(UB3LYP) =  -673.871735538     A.U. after   33 cycles
 SCF Done:  E(UB3LYP) =  -673.871735538     a.u. after    1 cycles

 The electronic state is 2-A.
 Alpha  occ. eigenvalues --  -19.06033 -14.20316 -10.14100 -10.12497 -10.10346
 Alpha  occ. eigenvalues --  -10.09850 -10.08305 -10.08079 -10.07955 -10.07934
 Alpha  occ. eigenvalues --  -10.07863 -10.07491 -10.06260 -10.06138 -10.05502
 Alpha  occ. eigenvalues --  -10.05392  -0.97629  -0.81539  -0.76274  -0.75034
 Alpha  occ. eigenvalues --   -0.67813  -0.65826  -0.63340  -0.60874  -0.60084
 Alpha  occ. eigenvalues --   -0.56682  -0.52419  -0.52010  -0.48723  -0.44540
 Alpha  occ. eigenvalues --   -0.44174  -0.43250  -0.41625  -0.40178  -0.38960
 Alpha  occ. eigenvalues --   -0.37531  -0.36226  -0.36210  -0.35020  -0.33416
 Alpha  occ. eigenvalues --   -0.32863  -0.31235  -0.30506  -0.29419  -0.28369
 Alpha  occ. eigenvalues --   -0.28126  -0.27320  -0.26582  -0.26044  -0.25169
 Alpha  occ. eigenvalues --   -0.23705  -0.23583  -0.22525  -0.20481  -0.16522
 Alpha  occ. eigenvalues --   -0.13448  -0.12430  -0.12108   0.04189
 Alpha virt. eigenvalues --    0.05257   0.06910   0.07386   0.07543   0.07693
 Alpha virt. eigenvalues --    0.08111   0.08390   0.08922   0.09215   0.09536
 Alpha virt. eigenvalues --    0.09675   0.10501   0.10917   0.11478   0.12052

  Beta  occ. eigenvalues --  -19.06023 -14.20301 -10.14100 -10.12442 -10.10339
  Beta  occ. eigenvalues --  -10.09786 -10.08300 -10.08078 -10.07938 -10.07928
  Beta  occ. eigenvalues --  -10.07860 -10.07520 -10.06228 -10.06103 -10.05344
  Beta  occ. eigenvalues --  -10.05237  -0.97607  -0.81506  -0.76247  -0.74842
  Beta  occ. eigenvalues --   -0.67783  -0.65803  -0.63253  -0.60786  -0.59808
  Beta  occ. eigenvalues --   -0.56610  -0.52337  -0.51939  -0.48693  -0.44429
  Beta  occ. eigenvalues --   -0.44018  -0.43093  -0.41533  -0.40126  -0.38906
  Beta  occ. eigenvalues --   -0.37496  -0.36191  -0.36101  -0.34986  -0.33385
  Beta  occ. eigenvalues --   -0.32820  -0.31147  -0.30441  -0.29340  -0.28271
  Beta  occ. eigenvalues --   -0.28087  -0.27250  -0.26514  -0.25982  -0.25053
  Beta  occ. eigenvalues --   -0.23674  -0.23496  -0.22496  -0.19986  -0.16500
  Beta  occ. eigenvalues --   -0.13405  -0.12387  -0.11283
  Beta virt. eigenvalues --    0.06428   0.06775   0.07281   0.07567   0.07858
  Beta virt. eigenvalues --    0.08006   0.08107   0.08680   0.09028   0.09382
  Beta virt. eigenvalues --    0.09803   0.10381   0.10586   0.11078   0.11433

 Mulliken charges and spin densities:
               1          2
     1  C    1.092759  -1.422633
     2  O   -0.220109   0.066884
     3  C   -0.952376   0.390491
     4  C   -0.692641   0.087717
     5  C   -0.337826   0.311650
     6  C    1.594085  -1.020537
     7  C    0.441583  -0.906370
     8  C   -0.313090   0.533717
     9  C   -0.280969  -0.016637
    10  N   -0.024584   0.050574
    11  C    0.133020  -0.909309
    12  C    0.531872  -0.087847
    13  C   -0.526985   0.441044
    14  C   -0.031399  -0.317247
    15  C   -0.318395   0.142783
    16  C   -0.288034   0.246584
    17  H   -0.699768   0.875948
    18  H   -0.327274   0.482543
    19  H   -0.336662   0.492983
    20  H    0.125622   0.046516
    21  H    0.089998   0.094720
    22  H   -0.309404   0.448709
    23  H   -0.152777   0.352570
    24  H    0.109005   0.045006
    25  H    0.455097  -0.360476
    26  H    0.091392   0.097463
    27  H   -0.037252   0.191766
    28  H    0.082142   0.070996
    29  H   -0.040473   0.223044
    30  H   -0.047224   0.188388
    31  H    0.094998   0.021198
    32  H    0.093530   0.031965
    33  H    0.002141   0.105799
 Sum of Mulliken charges =  -1.00000   1.00000

 Dipole moment (field-independent basis, Debye):
    X=             -6.1237    Y=              1.9353    Z=             -1.5206  Tot=              6.5998
 Quadrupole moment (field-independent basis, Debye-Ang):
   XX=           -247.9820   YY=           -125.6624   ZZ=           -120.0342
   XY=             14.9923   XZ=             -2.2035   YZ=              1.3918

 Summary of Natural Population Analysis:

                                       Natural Population
                Natural  -----------------------------------------------
    Atom  No    Charge         Core      Valence    Rydberg      Total
 -----------------------------------------------------------------------
      C    1   -0.10085      0.99960     2.09198    0.00926     3.10085
      O    2   -0.27405      0.99986     3.26411    0.01008     4.27405
      C    3    0.15800      0.99938     1.82835    0.01427     2.84200
      C    4   -0.11918      0.99953     2.11039    0.00926     3.11918
      C    5   -0.08976      0.99952     2.08186    0.00838     3.08976
      C    6   -0.03665      0.99950     2.02792    0.00923     3.03665
      C    7   -0.09109      0.99953     2.08186    0.00970     3.09109
      C    8   -0.14345      0.99952     2.13486    0.00907     3.14345
      C    9   -0.08927      0.99959     2.07966    0.01003     3.08927
      N   10   -0.33715      0.99974     2.82646    0.01095     3.83715
      C   11   -0.06976      0.99960     2.05641    0.01374     3.06976
      C   12   -0.15844      0.99958     2.14766    0.01119     3.15844
      C   13   -0.06475      0.99954     2.05596    0.00925     3.06475
      C   14   -0.11635      0.99953     2.10659    0.01022     3.11635
      C   15   -0.11575      0.99954     2.10599    0.01022     3.11575
      C   16   -0.06724      0.99954     2.05880    0.00890     3.06724
      H   17    0.09526      0.00000     0.40302    0.00172     0.40474
      H   18    0.08560      0.00000     0.41224    0.00215     0.41440
      H   19    0.08578      0.00000     0.41195    0.00226     0.41422
      H   20    0.10419      0.00000     0.39478    0.00103     0.39581
      H   21    0.10770      0.00000     0.39106    0.00124     0.39230
      H   22    0.09948      0.00000     0.39941    0.00110     0.40052
      H   23    0.10808      0.00000     0.39046    0.00146     0.39192
      H   24    0.09649      0.00000     0.40228    0.00122     0.40351
      H   25    0.08121      0.00000     0.41632    0.00248     0.41879
      H   26    0.17251      0.00000     0.32518    0.00231     0.32749
      H   27    0.09308      0.00000     0.40587    0.00105     0.40692
      H   28    0.09252      0.00000     0.40645    0.00104     0.40748
      H   29    0.11538      0.00000     0.38290    0.00172     0.38462
      H   30    0.09405      0.00000     0.40493    0.00102     0.40595
      H   31    0.09483      0.00000     0.40436    0.00081     0.40517
      H   32    0.09494      0.00000     0.40422    0.00084     0.40506
      H   33    0.09463      0.00000     0.40424    0.00113     0.40537
 =======================================================================
   * Total *    0.00000     15.99309    41.81855    0.18836    58.00000

 Normal termination of Gaussian 16 at Thu Dec 10 23:45:44 2020.
