 Gaussian 16, Revision A.03,

 -----------------------------------------------------------
 # opt freq B3LYP/6-31G(d) empiricaldispersion=gd3bj scf=xqc
 -----------------------------------------------------------

 ------------------------------
 CID_73952186_JID_9865_neutraal
 ------------------------------
 Symbolic Z-matrix:
 Charge =  0 Multiplicity = 1

 SCF Done:  E(RB3LYP) =  -967.304193643     A.U. after   16 cycles
 SCF Done:  E(RB3LYP) =  -967.312710982     A.U. after   15 cycles
 SCF Done:  E(RB3LYP) =  -967.312031704     A.U. after   15 cycles
 SCF Done:  E(RB3LYP) =  -967.312829937     A.U. after   15 cycles
 SCF Done:  E(RB3LYP) =  -967.313852277     A.U. after   14 cycles
 SCF Done:  E(RB3LYP) =  -967.314456790     A.U. after   13 cycles
 SCF Done:  E(RB3LYP) =  -967.314696400     A.U. after   14 cycles
 SCF Done:  E(RB3LYP) =  -967.314455402     A.U. after   15 cycles
 SCF Done:  E(RB3LYP) =  -967.314928111     A.U. after   14 cycles
 SCF Done:  E(RB3LYP) =  -967.314922137     A.U. after   14 cycles
 SCF Done:  E(RB3LYP) =  -967.315170173     A.U. after    8 cycles
 SCF Done:  E(RB3LYP) =  -967.315170327     A.U. after    8 cycles
 SCF Done:  E(RB3LYP) =  -967.315170417     A.U. after    8 cycles
 SCF Done:  E(RB3LYP) =  -967.315170488     A.U. after    8 cycles
 SCF Done:  E(RB3LYP) =  -967.315170540     A.U. after    8 cycles
 SCF Done:  E(RB3LYP) =  -967.315170570     A.U. after    7 cycles
 Optimization completed.
    -- Stationary point found.
 Normal termination of Gaussian 16 at Mon Dec 14 17:36:00 2020.

 --------------------------------------------------------------------
 #N Geom=AllCheck Guess=TCheck SCRF=Check GenChk RB3LYP/6-31G(d) Freq
 --------------------------------------------------------------------

 Structure from the checkpoint file:  "JID_9865.chk"
 ------------------------------
 CID_73952186_JID_9865_neutraal
 ------------------------------
 Charge =  0 Multiplicity = 1

 SCF Done:  E(RB3LYP) =  -967.315170570     A.U. after    1 cycles

  Exact polarizability: 213.047 -16.645 126.668  -6.083  -9.259 129.953
 Approx polarizability: 306.564 -28.976 180.624 -16.537 -29.404 244.189

                      1                      2                      3
                      A                      A                      A
 Frequencies --     13.5451                37.5146                46.4320
 Red. masses --      4.5717                 6.7512                 5.5030
 Frc consts  --      0.0005                 0.0056                 0.0070
 IR Inten    --      0.9462                 0.8900                 0.6713

                      4                      5                      6
                      A                      A                      A
 Frequencies --     47.6263                60.7709                67.9686
 Red. masses --      4.0332                 7.3907                 5.0427
 Frc consts  --      0.0054                 0.0161                 0.0137
 IR Inten    --      2.7160                 0.6275                 2.3982

                      7                      8                      9
                      A                      A                      A
 Frequencies --     79.3547                98.6516               125.5116
 Red. masses --      4.0862                 3.2799                 3.8479
 Frc consts  --      0.0152                 0.0188                 0.0357
 IR Inten    --      0.0554                 5.6057                 2.4512

                     10                     11                     12
                      A                      A                      A
 Frequencies --    152.4460               161.6329               186.1608
 Red. masses --      2.4339                 1.4623                 3.3998
 Frc consts  --      0.0333                 0.0225                 0.0694
 IR Inten    --      0.6197                 0.7241                 2.3037

                     13                     14                     15
                      A                      A                      A
 Frequencies --    215.3515               224.2810               240.6595
 Red. masses --      1.1328                 6.0697                 3.7345
 Frc consts  --      0.0310                 0.1799                 0.1274
 IR Inten    --      0.6141                 1.8782                 0.8411

                     16                     17                     18
                      A                      A                      A
 Frequencies --    246.0293               267.6459               280.1442
 Red. masses --      2.2361                 3.7687                 2.1777
 Frc consts  --      0.0797                 0.1591                 0.1007
 IR Inten    --      1.9379                 6.2622                 4.1648

                     19                     20                     21
                      A                      A                      A
 Frequencies --    324.8645               342.9372               373.6675
 Red. masses --      6.2205                 3.0325                 4.3457
 Frc consts  --      0.3868                 0.2101                 0.3575
 IR Inten    --      3.9779                12.8546                 8.5855

                     22                     23                     24
                      A                      A                      A
 Frequencies --    379.3178               403.8151               457.7456
 Red. masses --      4.2224                 3.8522                 9.0484
 Frc consts  --      0.3579                 0.3701                 1.1170
 IR Inten    --      2.4712                 3.0127                 2.4714

                     25                     26                     27
                      A                      A                      A
 Frequencies --    486.1829               540.2719               581.5094
 Red. masses --      4.6345                 6.1520                 3.8320
 Frc consts  --      0.6454                 1.0580                 0.7635
 IR Inten    --      3.0733                 2.1830                32.4127

                     28                     29                     30
                      A                      A                      A
 Frequencies --    605.7697               614.5702               641.4640
 Red. masses --      4.5416                 4.3803                 3.6122
 Frc consts  --      0.9819                 0.9748                 0.8757
 IR Inten    --     11.6689                 5.4758                10.3035

                     31                     32                     33
                      A                      A                      A
 Frequencies --    696.7870               728.0394               751.0702
 Red. masses --      5.6237                 6.8775                 9.9048
 Frc consts  --      1.6087                 2.1478                 3.2920
 IR Inten    --      2.0774                 6.7804                13.5120

                     34                     35                     36
                      A                      A                      A
 Frequencies --    770.7913               818.2836               821.5684
 Red. masses --      6.4675                 3.0138                 1.3315
 Frc consts  --      2.2639                 1.1890                 0.5295
 IR Inten    --      8.9079                 5.2731                 2.3380

                     37                     38                     39
                      A                      A                      A
 Frequencies --    842.0394               873.5672               886.3849
 Red. masses --     11.0103                 4.2779                 1.4177
 Frc consts  --      4.5995                 1.9234                 0.6563
 IR Inten    --     45.2912                11.7226                11.4926

                     40                     41                     42
                      A                      A                      A
 Frequencies --    897.4459               911.5445               961.3619
 Red. masses --      1.6391                 3.2629                 3.0654
 Frc consts  --      0.7778                 1.5974                 1.6692
 IR Inten    --      7.3588                 1.9690                18.4603

                     43                     44                     45
                      A                      A                      A
 Frequencies --    980.3684              1051.1033              1056.7364
 Red. masses --      3.1505                 2.7732                 1.8375
 Frc consts  --      1.7841                 1.8052                 1.2090
 IR Inten    --      4.5667                23.8878                 2.9537

                     46                     47                     48
                      A                      A                      A
 Frequencies --   1076.4657              1149.3655              1162.6176
 Red. masses --      2.3899                 2.1538                 1.3044
 Frc consts  --      1.6316                 1.6764                 1.0388
 IR Inten    --     63.3460                 8.5665                 0.3119

                     49                     50                     51
                      A                      A                      A
 Frequencies --   1169.7689              1182.7280              1191.8725
 Red. masses --      2.2938                 1.7184                 1.5305
 Frc consts  --      1.8493                 1.4163                 1.2810
 IR Inten    --      7.4139                24.5330                 3.9526

                     52                     53                     54
                      A                      A                      A
 Frequencies --   1236.1430              1267.0574              1274.4664
 Red. masses --      4.8267                 4.3380                 2.8100
 Frc consts  --      4.3455                 4.1033                 2.6892
 IR Inten    --     87.6247               350.3636               371.4640

                     55                     56                     57
                      A                      A                      A
 Frequencies --   1309.0658              1319.7190              1367.6162
 Red. masses --      1.1076                 6.2415                 3.3064
 Frc consts  --      1.1183                 6.4047                 3.6436
 IR Inten    --      2.2604               103.0664               105.6613

                     58                     59                     60
                      A                      A                      A
 Frequencies --   1392.3500              1413.9366              1417.1096
 Red. masses --      1.9016                 1.3830                 3.2625
 Frc consts  --      2.1721                 1.6290                 3.8602
 IR Inten    --     22.1214                65.7230               232.8453

                     61                     62                     63
                      A                      A                      A
 Frequencies --   1426.5697              1452.8656              1457.9294
 Red. masses --      1.8282                 1.4098                 2.2368
 Frc consts  --      2.1921                 1.7533                 2.8012
 IR Inten    --     58.0851                 9.9146                74.4798

                     64                     65                     66
                      A                      A                      A
 Frequencies --   1481.0054              1499.4976              1505.7227
 Red. masses --      4.3965                 1.0534                 1.0557
 Frc consts  --      5.6816                 1.3955                 1.4103
 IR Inten    --     28.5475                 7.7697                 7.6495

                     67                     68                     69
                      A                      A                      A
 Frequencies --   1507.0414              1515.5376              1515.9720
 Red. masses --      1.0530                 1.4729                 1.0395
 Frc consts  --      1.4091                 1.9933                 1.4076
 IR Inten    --     17.7375                45.0212                 7.6030

                     70                     71                     72
                      A                      A                      A
 Frequencies --   1526.1687              1526.7718              1543.5230
 Red. masses --      1.4827                 1.2371                 1.1056
 Frc consts  --      2.0348                 1.6990                 1.5519
 IR Inten    --     71.7227                37.1231                 1.7785

                     73                     74                     75
                      A                      A                      A
 Frequencies --   1547.4578              1619.9225              1707.2146
 Red. masses --      3.3503                11.6205                 9.0378
 Frc consts  --      4.7268                17.9664                15.5200
 IR Inten    --     26.8069               186.6336                22.3887

                     76                     77                     78
                      A                      A                      A
 Frequencies --   1788.1165              1808.2475              3058.6195
 Red. masses --     11.1980                12.1025                 1.0385
 Frc consts  --     21.0950                23.3152                 5.7243
 IR Inten    --    165.9317               207.3506                 2.3529

                     79                     80                     81
                      A                      A                      A
 Frequencies --   3065.2076              3080.7474              3116.6724
 Red. masses --      1.0353                 1.0582                 1.0328
 Frc consts  --      5.7312                 5.9175                 5.9109
 IR Inten    --     15.2486                12.3867                11.9091

                     82                     83                     84
                      A                      A                      A
 Frequencies --   3120.7247              3121.4251              3137.0840
 Red. masses --      1.0993                 1.1079                 1.1019
 Frc consts  --      6.3081                 6.3598                 6.3892
 IR Inten    --      6.2006                 3.2101                22.0369

                     85                     86                     87
                      A                      A                      A
 Frequencies --   3148.6573              3174.5027              3188.4209
 Red. masses --      1.1059                 1.1018                 1.0871
 Frc consts  --      6.4595                 6.5418                 6.5115
 IR Inten    --     30.0897                 7.8631                 2.8055

                     88                     89                     90
                      A                      A                      A
 Frequencies --   3202.2155              3221.3764              3293.3722
 Red. masses --      1.1051                 1.1063                 1.0981
 Frc consts  --      6.6763                 6.7642                 7.0176
 IR Inten    --      7.0793                 2.5052                 0.5362

 - Thermochemistry -
 -------------------
 Temperature   298.150 Kelvin.  Pressure   1.00000 Atm.
 Atom     1 has atomic number  6 and mass  12.00000

 Molecular mass:   267.08552 amu.
 Principal axes and moments of inertia in atomic units:
                           1         2         3
     Eigenvalues --  2933.811418564.522289760.86655
           X            0.99986   0.01462   0.00852
           Y           -0.01475   0.99977   0.01555
           Z           -0.00829  -0.01567   0.99984
 This molecule is an asymmetric top.
 Rotational symmetry number  1.
 Warning -- assumption of classical behavior for rotation
           may cause significant error
 Rotational temperatures (Kelvin)      0.02952     0.01011     0.00887
 Rotational constants (GHZ):           0.61515     0.21072     0.18490
 Zero-point vibrational energy     643829.0 (Joules/Mol)
                                  153.87883 (Kcal/Mol)
 Warning -- explicit consideration of  29 degrees of freedom as
           vibrations may cause significant error
 Vibrational temperatures:     19.49    53.98    66.81    68.52    87.44
          (Kelvin)             97.79   114.17   141.94   180.58   219.34
                              232.55   267.84   309.84   322.69   346.26
                              353.98   385.08   403.06   467.41   493.41
                              537.62   545.75   581.00   658.59   699.51
                              777.33   836.66   871.57   884.23   922.92
                             1002.52  1047.49  1080.62  1109.00  1177.33
                             1182.05  1211.51  1256.87  1275.31  1291.22
                             1311.51  1383.19  1410.53  1512.30  1520.41
                             1548.79  1653.68  1672.75  1683.04  1701.68
                             1714.84  1778.53  1823.01  1833.67  1883.45
                             1898.78  1967.69  2003.28  2034.34  2038.90
                             2052.52  2090.35  2097.64  2130.84  2157.44
                             2166.40  2168.30  2180.52  2181.15  2195.82
                             2196.68  2220.79  2226.45  2330.71  2456.30
                             2572.70  2601.66  4400.67  4410.15  4432.51
                             4484.20  4490.03  4491.03  4513.56  4530.22
                             4567.40  4587.43  4607.27  4634.84  4738.43

 Zero-point correction=                           0.245222 (Hartree/Particle)
 Thermal correction to Energy=                    0.264422
 Thermal correction to Enthalpy=                  0.265366
 Thermal correction to Gibbs Free Energy=         0.194644
 Sum of electronic and zero-point Energies=           -967.069949
 Sum of electronic and thermal Energies=              -967.050749
 Sum of electronic and thermal Enthalpies=            -967.049805
 Sum of electronic and thermal Free Energies=         -967.120527

                     E (Thermal)             CV                S
                      KCal/Mol        Cal/Mol-Kelvin    Cal/Mol-Kelvin
 Total                  165.927             67.605            148.847
 Electronic               0.000              0.000              0.000
 Translational            0.889              2.981             42.646
 Rotational               0.889              2.981             33.861
 Vibrational            164.150             61.644             72.340
 Vibration     1          0.593              1.986              7.408
 Vibration     2          0.594              1.982              5.386
 Vibration     3          0.595              1.979              4.964
 Vibration     4          0.595              1.978              4.914
 Vibration     5          0.597              1.973              4.432
 Vibration     6          0.598              1.969              4.211
 Vibration     7          0.600              1.963              3.907
 Vibration     8          0.604              1.950              3.481
 Vibration     9          0.610              1.928              3.014
 Vibration    10          0.619              1.900              2.641
 Vibration    11          0.622              1.889              2.531
 Vibration    12          0.632              1.859              2.266
 Vibration    13          0.645              1.818              1.998
 Vibration    14          0.649              1.804              1.924
 Vibration    15          0.658              1.778              1.798
 Vibration    16          0.660              1.769              1.759
 Vibration    17          0.673              1.733              1.611
 Vibration    18          0.680              1.710              1.533
 Vibration    19          0.709              1.626              1.286
 Vibration    20          0.722              1.590              1.198
 Vibration    21          0.745              1.526              1.065
 Vibration    22          0.749              1.514              1.042
 Vibration    23          0.769              1.462              0.949
 Vibration    24          0.816              1.344              0.773
 Vibration    25          0.842              1.281              0.694
 Vibration    26          0.895              1.161              0.565
 Vibration    27          0.938              1.071              0.483
 Vibration    28          0.964              1.020              0.440
 Vibration    29          0.974              1.001              0.425

 Optimization completed.
    -- Stationary point found.
 Normal termination of Gaussian 16 at Mon Dec 14 17:49:23 2020.

 ----------------------------------------------------------------------
 # B3LYP/6-311++G(d,p) empiricaldispersion=gd3bj scf=xqc pop=npa geom=c
 heck
 ----------------------------------------------------------------------

 --------------------------------------
 CID_73952186_JID_9865_Energie_neutraal
 --------------------------------------
 Structure from the checkpoint file:  "JID_9865.chk"
 Charge =  0 Multiplicity = 1

 SCF Done:  E(RB3LYP) =  -967.592640452     A.U. after   16 cycles
 Normal termination of Gaussian 16 at Mon Dec 14 17:55:12 2020.

 ----------------------------------------------------------------------
 # B3LYP/6-311++G(d,p) empiricaldispersion=gd3bj scf=xqc pop=npa geom=c
 heck
 ----------------------------------------------------------------------

 ------------------------------------
 CID_73952186_JID_9865_Energie_kation
 ------------------------------------
 Structure from the checkpoint file:  "JID_9865.chk"
 Charge =  1 Multiplicity = 2

 SCF Done:  E(UB3LYP) =  -967.258892148     A.U. after   32 cycles
 Normal termination of Gaussian 16 at Mon Dec 14 18:11:30 2020.
 Gaussian 16:  ES64L-G16RevA.03 25-Dec-2016

 ----------------------------------------------------------------------
 # B3LYP/6-311++G(d,p) empiricaldispersion=gd3bj scf=xqc pop=npa geom=c
 heck
 ----------------------------------------------------------------------

 -----------------------------------
 CID_73952186_JID_9865_Energie_anion
 -----------------------------------
 Structure from the checkpoint file:  "JID_9865.chk"
 Charge = -1 Multiplicity = 2

                         Standard orientation:
 ---------------------------------------------------------------------
 Center     Atomic      Atomic             Coordinates (Angstroms)
 Number     Number       Type             X           Y           Z
 ---------------------------------------------------------------------
      1          6           0        3.995070    2.965866    0.830662
      2          6           0        2.732395    2.555140    0.102051
      3          8           0        2.575435    1.126530    0.292486
      4          6           0        1.534446    0.563517   -0.327897
      5          8           0        0.703745    1.173461   -0.969006
      6          6           0        1.513182   -0.916896   -0.061350
      7          6           0        0.409192   -1.540250    0.389506
      8          6           0       -0.913000   -0.946734    0.636696
      9          7           0       -1.449081   -0.902817    1.860417
     10          6           0       -2.664166   -0.322724    1.708516
     11          6           0       -2.878484   -0.037040    0.372602
     12          7           0       -1.750101   -0.444267   -0.318759
     13          6           0       -1.542774   -0.465879   -1.769078
     14          7           0       -4.026420    0.556518   -0.219398
     15          8           0       -4.945330    0.857359    0.546688
     16          8           0       -4.037224    0.734115   -1.443797
     17          6           0        2.792586   -1.662031   -0.325919
     18          8           0        3.634885   -1.158693   -1.047434
     19          6           0        2.982893   -3.038618    0.280297
     20          1           0        3.917712    2.746292    1.900023
     21          1           0        4.158020    4.041948    0.709486
     22          1           0        4.863146    2.434904    0.428691
     23          1           0        1.841871    3.057298    0.492233
     24          1           0        2.787909    2.753915   -0.972114
     25          1           0        0.487223   -2.584161    0.683635
     26          1           0       -3.334762   -0.131781    2.532959
     27          1           0       -2.366858   -1.000822   -2.240889
     28          1           0       -1.493022    0.549594   -2.154142
     29          1           0       -0.597398   -0.969076   -1.959320
     30          1           0        2.818448   -3.021746    1.363168
     31          1           0        2.277878   -3.758833   -0.151558
     32          1           0        3.998915   -3.371849    0.063994
 ---------------------------------------------------------------------

 SCF Done:  E(UB3LYP) =  -967.649312893     A.U. after   26 cycles

 The electronic state is 2-A.
 Alpha  occ. eigenvalues --  -19.06132 -18.99991 -18.99679 -18.99503 -18.98023
 Alpha  occ. eigenvalues --  -14.38768 -14.25947 -14.18546 -10.19144 -10.13762
 Alpha  occ. eigenvalues --  -10.13383 -10.11897 -10.11810 -10.09044 -10.08801
 Alpha  occ. eigenvalues --  -10.08138 -10.07006 -10.06695 -10.06538  -1.07646
 Alpha  occ. eigenvalues --   -1.00373  -0.91999  -0.91536  -0.91145  -0.90240
 Alpha  occ. eigenvalues --   -0.77895  -0.71108  -0.69030  -0.67281  -0.63141
 Alpha  occ. eigenvalues --   -0.60449  -0.59023  -0.55803  -0.51647  -0.48380
 Alpha  occ. eigenvalues --   -0.46916  -0.44387  -0.44124  -0.41605  -0.40309
 Alpha  occ. eigenvalues --   -0.40069  -0.38169  -0.37555  -0.37025  -0.36525
 Alpha  occ. eigenvalues --   -0.34898  -0.33839  -0.33358  -0.32863  -0.32571
 Alpha  occ. eigenvalues --   -0.31979  -0.31633  -0.30061  -0.29740  -0.29002
 Alpha  occ. eigenvalues --   -0.28236  -0.27742  -0.26927  -0.25657  -0.25150
 Alpha  occ. eigenvalues --   -0.20552  -0.18605  -0.17955  -0.17697  -0.17081
 Alpha  occ. eigenvalues --   -0.16777  -0.16176  -0.14864  -0.13471  -0.12104
 Alpha  occ. eigenvalues --   -0.00003
 Alpha virt. eigenvalues --    0.03862   0.06633   0.07749   0.09258   0.09690
 Alpha virt. eigenvalues --    0.09913   0.10149   0.10698   0.10801   0.11349
 Alpha virt. eigenvalues --    0.11847   0.12858   0.13168   0.13534   0.14016

  Beta  occ. eigenvalues --  -19.06116 -18.99950 -18.99389 -18.99200 -18.97709
  Beta  occ. eigenvalues --  -14.38395 -14.25743 -14.18571 -10.19130 -10.13758
  Beta  occ. eigenvalues --  -10.13263 -10.11857 -10.11821 -10.09050 -10.08801
  Beta  occ. eigenvalues --  -10.08107 -10.07019 -10.06425 -10.06335  -1.07014
  Beta  occ. eigenvalues --   -1.00325  -0.91489  -0.91370  -0.90986  -0.89712
  Beta  occ. eigenvalues --   -0.77743  -0.70666  -0.68881  -0.66900  -0.62954
  Beta  occ. eigenvalues --   -0.60371  -0.58559  -0.55638  -0.51286  -0.48264
  Beta  occ. eigenvalues --   -0.46584  -0.44169  -0.43936  -0.41244  -0.40193
  Beta  occ. eigenvalues --   -0.38730  -0.37872  -0.37432  -0.36637  -0.36081
  Beta  occ. eigenvalues --   -0.34484  -0.33455  -0.33075  -0.32746  -0.32479
  Beta  occ. eigenvalues --   -0.31944  -0.31498  -0.29953  -0.29609  -0.28952
  Beta  occ. eigenvalues --   -0.28038  -0.27593  -0.26785  -0.25407  -0.24202
  Beta  occ. eigenvalues --   -0.20419  -0.17877  -0.17816  -0.16516  -0.16181
  Beta  occ. eigenvalues --   -0.15702  -0.15476  -0.14596  -0.13180  -0.11458
  Beta virt. eigenvalues --    0.05487   0.06617   0.06759   0.07787   0.09266
  Beta virt. eigenvalues --    0.09867   0.10155   0.10483   0.10720   0.10802
  Beta virt. eigenvalues --    0.11352   0.11918   0.12949   0.13283   0.13633

 Mulliken charges and spin densities:
               1          2
     1  C   -0.618550   0.003144
     2  C    0.093713  -0.004526
     3  O    0.087704   0.004630
     4  C   -0.812240   0.012798
     5  O   -0.225173   0.008734
     6  C    1.979505   0.061343
     7  C   -1.139046   0.264531
     8  C   -0.928921   0.060412
     9  N   -0.034545  -0.024828
    10  C    0.526012   0.053701
    11  C   -0.286932  -0.027873
    12  N    0.138197   0.061565
    13  C   -0.451443  -0.006651
    14  N   -0.397834   0.118304
    15  O   -0.112754   0.112514
    16  O   -0.115907   0.107496
    17  C   -0.139257   0.086423
    18  O   -0.292796   0.106280
    19  C   -0.458767  -0.004859
    20  H    0.147257   0.000242
    21  H    0.129954   0.000005
    22  H    0.156903   0.000726
    23  H    0.168027  -0.000245
    24  H    0.173239   0.001660
    25  H    0.205675  -0.011316
    26  H    0.206300  -0.000732
    27  H    0.181668  -0.003308
    28  H    0.233820   0.003028
    29  H    0.135553   0.003812
    30  H    0.145790   0.004853
    31  H    0.135341   0.008558
    32  H    0.169508  -0.000422
 Sum of Mulliken charges =  -1.00000   1.00000

 Dipole moment (field-independent basis, Debye):
    X=              6.4049    Y=             -0.3591    Z=              0.8335  Tot=              6.4689
 Quadrupole moment (field-independent basis, Debye-Ang):
   XX=           -191.9095   YY=           -114.9268   ZZ=           -127.0520
   XY=             18.2489   XZ=              5.3307   YZ=              4.4490

 Summary of Natural Population Analysis:

                                       Natural Population
                Natural  -----------------------------------------------
    Atom  No    Charge         Core      Valence    Rydberg      Total
 -----------------------------------------------------------------------
      C    1   -0.29398      0.99967     2.29028    0.00404     3.29398
      C    2   -0.01642      0.99960     2.00681    0.01001     3.01642
      O    3   -0.27371      0.99985     3.26461    0.00926     4.27371
      C    4    0.41405      0.99965     1.56218    0.02412     2.58595
      O    5   -0.30824      0.99987     3.30211    0.00626     4.30824
      C    6   -0.08151      0.99938     2.06639    0.01574     3.08151
      C    7   -0.01249      0.99948     2.00502    0.00799     3.01249
      C    8    0.19652      0.99960     1.78782    0.01607     2.80348
      N    9   -0.26212      0.99970     2.75182    0.01060     3.76212
      C   10   -0.00789      0.99956     1.99429    0.01404     3.00789
      C   11    0.10621      0.99943     1.88145    0.01292     2.89379
      N   12   -0.16496      0.99957     2.65466    0.01073     3.66496
      C   13   -0.17226      0.99964     2.16608    0.00654     3.17226
      N   14    0.27216      0.99969     2.20153    0.02662     3.22784
      O   15   -0.19719      0.99990     3.18953    0.00775     4.19719
      O   16   -0.20250      0.99990     3.19480    0.00779     4.20250
      C   17    0.28529      0.99966     1.69532    0.01973     2.71471
      O   18   -0.25985      0.99988     3.25283    0.00715     4.25985
      C   19   -0.33362      0.99963     2.32977    0.00421     3.33362
      H   20    0.10035      0.00000     0.39871    0.00094     0.39965
      H   21    0.09625      0.00000     0.40304    0.00071     0.40375
      H   22    0.10324      0.00000     0.39581    0.00096     0.39676
      H   23    0.08957      0.00000     0.40916    0.00127     0.41043
      H   24    0.09021      0.00000     0.40856    0.00122     0.40979
      H   25    0.09872      0.00000     0.40024    0.00104     0.40128
      H   26    0.10153      0.00000     0.39728    0.00119     0.39847
      H   27    0.09930      0.00000     0.39954    0.00116     0.40070
      H   28    0.11185      0.00000     0.38715    0.00100     0.38815
      H   29    0.10361      0.00000     0.39552    0.00087     0.39639
      H   30    0.10657      0.00000     0.39256    0.00087     0.39343
      H   31    0.10572      0.00000     0.39335    0.00093     0.39428
      H   32    0.10559      0.00000     0.39312    0.00129     0.39441
 =======================================================================
   * Total *    0.00000     18.99365    50.77134    0.23501    70.00000

 Normal termination of Gaussian 16 at Mon Dec 14 18:25:20 2020.
