 Gaussian 16, Revision A.03,

 -----------------------------------------------------------
 # opt freq B3LYP/6-31G(d) empiricaldispersion=gd3bj scf=xqc
 -----------------------------------------------------------

 -------------------------------
 CID_144314830_JID_7763_neutraal
 -------------------------------
 Symbolic Z-matrix:
 Charge =  0 Multiplicity = 1

 SCF Done:  E(RB3LYP) =  -735.260203173     A.U. after   14 cycles
 SCF Done:  E(RB3LYP) =  -735.265227567     A.U. after   12 cycles
 SCF Done:  E(RB3LYP) =  -735.265771228     A.U. after   12 cycles
 SCF Done:  E(RB3LYP) =  -735.266453082     A.U. after   12 cycles
 SCF Done:  E(RB3LYP) =  -735.266941810     A.U. after   12 cycles
 SCF Done:  E(RB3LYP) =  -735.267094958     A.U. after   12 cycles
 SCF Done:  E(RB3LYP) =  -735.267214081     A.U. after   11 cycles
 SCF Done:  E(RB3LYP) =  -735.267233346     A.U. after   11 cycles
 SCF Done:  E(RB3LYP) =  -735.267311621     A.U. after   10 cycles
 SCF Done:  E(RB3LYP) =  -735.267326634     A.U. after   10 cycles
 SCF Done:  E(RB3LYP) =  -735.267467421     A.U. after   12 cycles
 SCF Done:  E(RB3LYP) =  -735.267503729     A.U. after   11 cycles
 SCF Done:  E(RB3LYP) =  -735.267506148     A.U. after   10 cycles
 SCF Done:  E(RB3LYP) =  -735.267505941     A.U. after    9 cycles
 SCF Done:  E(RB3LYP) =  -735.267506264     A.U. after    9 cycles
 Optimization completed.
    -- Stationary point found.
 Normal termination of Gaussian 16 at Fri Dec 11 13:28:26 2020.

 --------------------------------------------------------------------
 #N Geom=AllCheck Guess=TCheck SCRF=Check GenChk RB3LYP/6-31G(d) Freq
 --------------------------------------------------------------------

 Structure from the checkpoint file:  "JID_7763.chk"
 -------------------------------
 CID_144314830_JID_7763_neutraal
 -------------------------------
 Charge =  0 Multiplicity = 1

 SCF Done:  E(RB3LYP) =  -735.267506264     A.U. after    1 cycles

  Exact polarizability: 218.497  -3.751 151.010   0.249   4.816 133.040
 Approx polarizability: 265.500  -8.555 229.785  -3.799   8.359 205.491

                      1                      2                      3
                      A                      A                      A
 Frequencies --     12.9179                25.7376                38.7179
 Red. masses --      4.1094                 4.0849                 3.2796
 Frc consts  --      0.0004                 0.0016                 0.0029
 IR Inten    --      0.2506                 0.3468                 0.1828

                      4                      5                      6
                      A                      A                      A
 Frequencies --     62.7640                72.3286                80.9866
 Red. masses --      3.6996                 2.4002                 3.5972
 Frc consts  --      0.0086                 0.0074                 0.0139
 IR Inten    --      0.2875                 0.0891                 0.3453

                      7                      8                      9
                      A                      A                      A
 Frequencies --     98.1053               131.4293               162.4443
 Red. masses --      3.1276                 3.1477                 1.9295
 Frc consts  --      0.0177                 0.0320                 0.0300
 IR Inten    --      0.2073                 0.0347                 0.9179

                     10                     11                     12
                      A                      A                      A
 Frequencies --    171.5181               184.1123               212.1487
 Red. masses --      3.1395                 2.3763                 1.5088
 Frc consts  --      0.0544                 0.0475                 0.0400
 IR Inten    --      1.7796                 1.3429                 0.3992

                     13                     14                     15
                      A                      A                      A
 Frequencies --    226.6898               238.7308               251.7940
 Red. masses --      1.4664                 2.4032                 2.2248
 Frc consts  --      0.0444                 0.0807                 0.0831
 IR Inten    --      0.7758                 0.1858                 1.2038

                     16                     17                     18
                      A                      A                      A
 Frequencies --    283.7893               297.9163               315.0548
 Red. masses --      2.9203                 2.0808                 2.2826
 Frc consts  --      0.1386                 0.1088                 0.1335
 IR Inten    --      0.1549                 0.9953                 1.8675

                     19                     20                     21
                      A                      A                      A
 Frequencies --    348.0410               389.1466               403.1312
 Red. masses --      2.4807                 2.8648                 3.3966
 Frc consts  --      0.1770                 0.2556                 0.3252
 IR Inten    --      2.4651                 0.0621                 0.9716

                     22                     23                     24
                      A                      A                      A
 Frequencies --    428.5649               455.1026               468.9486
 Red. masses --      3.7254                 2.4331                 3.0033
 Frc consts  --      0.4031                 0.2969                 0.3891
 IR Inten    --      2.3200                 8.1480                 4.1632

                     25                     26                     27
                      A                      A                      A
 Frequencies --    515.6647               537.6786               558.3211
 Red. masses --      4.1100                 2.8657                 4.0710
 Frc consts  --      0.6439                 0.4881                 0.7477
 IR Inten    --      1.8971                 0.9093                 5.8172

                     28                     29                     30
                      A                      A                      A
 Frequencies --    595.2633               653.4589               671.5562
 Red. masses --      2.3690                 3.0412                 1.9414
 Frc consts  --      0.4946                 0.7651                 0.5159
 IR Inten    --     22.2764                 1.7081                 4.1210

                     31                     32                     33
                      A                      A                      A
 Frequencies --    725.8594               772.5357               803.9239
 Red. masses --      3.5990                 1.3922                 1.5252
 Frc consts  --      1.1172                 0.4896                 0.5808
 IR Inten    --     24.0654                10.9008                 6.0926

                     34                     35                     36
                      A                      A                      A
 Frequencies --    808.6549               858.8972               866.6480
 Red. masses --      2.8202                 1.7166                 1.8851
 Frc consts  --      1.0866                 0.7461                 0.8342
 IR Inten    --      4.7740                 4.1796                 0.7847

                     37                     38                     39
                      A                      A                      A
 Frequencies --    870.0826               911.2277               933.2889
 Red. masses --      1.6282                 1.4017                 2.4762
 Frc consts  --      0.7262                 0.6857                 1.2708
 IR Inten    --     21.9003                 4.1773                 5.4252

                     40                     41                     42
                      A                      A                      A
 Frequencies --    940.6933               950.3970               953.0413
 Red. masses --      2.5361                 2.1286                 1.3665
 Frc consts  --      1.3222                 1.1328                 0.7313
 IR Inten    --     21.6117                27.4920                30.3554

                     43                     44                     45
                      A                      A                      A
 Frequencies --    976.8625              1007.7355              1010.8466
 Red. masses --      1.5459                 1.4095                 1.6798
 Frc consts  --      0.8692                 0.8434                 1.0113
 IR Inten    --      5.9339                 9.9151                11.3067

                     46                     47                     48
                      A                      A                      A
 Frequencies --   1031.5738              1032.2709              1044.7718
 Red. masses --      1.1102                 1.9975                 2.7105
 Frc consts  --      0.6960                 1.2541                 1.7432
 IR Inten    --     12.0394                 5.5943                 2.1389

                     49                     50                     51
                      A                      A                      A
 Frequencies --   1054.2013              1058.9275              1079.2392
 Red. masses --      2.5569                 2.2168                 1.5152
 Frc consts  --      1.6742                 1.4646                 1.0398
 IR Inten    --      7.7961                19.9409                 2.6179

                     52                     53                     54
                      A                      A                      A
 Frequencies --   1103.6463              1110.2510              1125.3286
 Red. masses --      1.6066                 2.2611                 1.7738
 Frc consts  --      1.1530                 1.6422                 1.3235
 IR Inten    --      8.2158                10.8972                12.0042

                     55                     56                     57
                      A                      A                      A
 Frequencies --   1161.8941              1176.5622              1196.9336
 Red. masses --      2.2098                 2.4529                 2.6743
 Frc consts  --      1.7577                 2.0006                 2.2574
 IR Inten    --     82.3996               125.6124               352.6045

                     58                     59                     60
                      A                      A                      A
 Frequencies --   1199.1953              1218.0138              1238.1937
 Red. masses --      2.0121                 2.5670                 2.0666
 Frc consts  --      1.7048                 2.2438                 1.8668
 IR Inten    --    111.9250                44.1555                46.4764

                     61                     62                     63
                      A                      A                      A
 Frequencies --   1268.7235              1280.7783              1304.2053
 Red. masses --      1.4641                 1.1557                 1.1912
 Frc consts  --      1.3885                 1.1170                 1.1938
 IR Inten    --     19.6890                 2.4071                 0.8022

                     64                     65                     66
                      A                      A                      A
 Frequencies --   1314.3208              1319.5654              1337.9612
 Red. masses --      1.2378                 1.2510                 1.2583
 Frc consts  --      1.2598                 1.2835                 1.3272
 IR Inten    --     50.1175                14.1845                 7.5030

                     67                     68                     69
                      A                      A                      A
 Frequencies --   1341.1816              1356.8342              1372.2244
 Red. masses --      1.3701                 1.2737                 1.2616
 Frc consts  --      1.4520                 1.3816                 1.3997
 IR Inten    --     10.3603                24.0493                13.3508

                     70                     71                     72
                      A                      A                      A
 Frequencies --   1393.8908              1395.7592              1402.0206
 Red. masses --      1.4750                 1.5491                 1.4700
 Frc consts  --      1.6884                 1.7781                 1.7024
 IR Inten    --      0.4622                 6.4500                 4.1809

                     73                     74                     75
                      A                      A                      A
 Frequencies --   1428.7193              1436.0143              1436.8502
 Red. masses --      1.2737                 1.2619                 1.4920
 Frc consts  --      1.5318                 1.5331                 1.8149
 IR Inten    --     17.8905                10.5221                32.4258

                     76                     77                     78
                      A                      A                      A
 Frequencies --   1466.8485              1483.7073              1507.2280
 Red. masses --      1.5794                 1.2377                 1.0824
 Frc consts  --      2.0022                 1.6054                 1.4487
 IR Inten    --     15.0362                 7.1133                 2.0546

                     79                     80                     81
                      A                      A                      A
 Frequencies --   1509.5178              1514.5906              1517.1033
 Red. masses --      1.0728                 1.0636                 1.0856
 Frc consts  --      1.4403                 1.4376                 1.4722
 IR Inten    --      9.5900                13.3210                 0.8573

                     82                     83                     84
                      A                      A                      A
 Frequencies --   1521.6314              1523.6061              1527.2296
 Red. masses --      1.0610                 1.0988                 1.0413
 Frc consts  --      1.4474                 1.5028                 1.4310
 IR Inten    --      4.8873                 5.8864                 4.8803

                     85                     86                     87
                      A                      A                      A
 Frequencies --   1536.4982              1717.2095              1728.7309
 Red. masses --      1.0670                 7.2423                 6.6740
 Frc consts  --      1.4842                12.5827                11.7514
 IR Inten    --      1.8976                 4.3348                91.7043

                     88                     89                     90
                      A                      A                      A
 Frequencies --   1740.3335              1752.3946              3005.6717
 Red. masses --      4.6770                 6.2920                 1.0717
 Frc consts  --      8.3460                11.3843                 5.7043
 IR Inten    --      1.1109                98.5716                35.0358

                     91                     92                     93
                      A                      A                      A
 Frequencies --   3007.6965              3014.0227              3017.2802
 Red. masses --      1.0642                 1.0663                 1.0755
 Frc consts  --      5.6720                 5.7071                 5.7688
 IR Inten    --      3.9807                50.4743                73.4824

                     94                     95                     96
                      A                      A                      A
 Frequencies --   3036.4104              3038.8392              3044.6710
 Red. masses --      1.0403                 1.0933                 1.1025
 Frc consts  --      5.6512                 5.9486                 6.0217
 IR Inten    --     31.0087                14.9557                33.0146

                     97                     98                     99
                      A                      A                      A
 Frequencies --   3045.1391              3061.5517              3082.2774
 Red. masses --      1.0368                 1.0665                 1.0982
 Frc consts  --      5.6646                 5.8899                 6.1470
 IR Inten    --     45.3430                38.5564                24.5083

                    100                    101                    102
                      A                      A                      A
 Frequencies --   3090.8077              3109.8534              3113.5852
 Red. masses --      1.0911                 1.1028                 1.1004
 Frc consts  --      6.1414                 6.2839                 6.2855
 IR Inten    --      0.5721                33.5985                42.5086

                    103                    104                    105
                      A                      A                      A
 Frequencies --   3119.5609              3136.4637              3151.0225
 Red. masses --      1.1028                 1.0930                 1.0896
 Frc consts  --      6.3233                 6.3348                 6.3739
 IR Inten    --     39.6472                 0.0801                15.6325

                    106                    107                    108
                      A                      A                      A
 Frequencies --   3158.1649              3160.4288              3169.1031
 Red. masses --      1.0600                 1.0876                 1.0912
 Frc consts  --      6.2294                 6.4005                 6.4571
 IR Inten    --     14.9480                18.1971                 5.0038

                    109                    110                    111
                      A                      A                      A
 Frequencies --   3170.7107              3237.1212              3241.5671
 Red. masses --      1.0927                 1.0923                 1.1156
 Frc consts  --      6.4724                 6.7440                 6.9065
 IR Inten    --     26.1189                 8.3767                17.4468

 - Thermochemistry -
 -------------------
 Temperature   298.150 Kelvin.  Pressure   1.00000 Atm.
 Atom     1 has atomic number  6 and mass  12.00000

 Molecular mass:   234.16198 amu.
 Principal axes and moments of inertia in atomic units:
                           1         2         3
     Eigenvalues --  1962.446449640.99694**********
           X            0.99997   0.00684  -0.00425
           Y           -0.00685   0.99997  -0.00199
           Z            0.00424   0.00202   0.99999
 This molecule is an asymmetric top.
 Rotational symmetry number  1.
 Warning -- assumption of classical behavior for rotation
           may cause significant error
 Rotational temperatures (Kelvin)      0.04414     0.00898     0.00841
 Rotational constants (GHZ):           0.91964     0.18719     0.17519
 Zero-point vibrational energy     895772.0 (Joules/Mol)
                                  214.09465 (Kcal/Mol)
 Warning -- explicit consideration of  28 degrees of freedom as
           vibrations may cause significant error
 Vibrational temperatures:     18.59    37.03    55.71    90.30   104.06
          (Kelvin)            116.52   141.15   189.10   233.72   246.78
                              264.90   305.23   326.16   343.48   362.28
                              408.31   428.64   453.29   500.75   559.90
                              580.02   616.61   654.79   674.71   741.93
                              773.60   803.30   856.45   940.18   966.22
                             1044.35  1111.51  1156.67  1163.47  1235.76
                             1246.91  1251.85  1311.05  1342.79  1353.45
                             1367.41  1371.21  1405.49  1449.91  1454.38
                             1484.20  1485.21  1503.19  1516.76  1523.56
                             1552.78  1587.90  1597.40  1619.10  1671.71
                             1692.81  1722.12  1725.37  1752.45  1781.48
                             1825.41  1842.75  1876.46  1891.01  1898.56
                             1925.03  1929.66  1952.18  1974.32  2005.50
                             2008.19  2017.19  2055.61  2066.10  2067.31
                             2110.47  2134.72  2168.56  2171.86  2179.16
                             2182.77  2189.29  2192.13  2197.34  2210.68
                             2470.68  2487.26  2503.95  2521.30  4324.49
                             4327.40  4336.51  4341.19  4368.72  4372.21
                             4380.60  4381.28  4404.89  4434.71  4446.98
                             4474.39  4479.75  4488.35  4512.67  4533.62
                             4543.89  4547.15  4559.63  4561.95  4657.50
                             4663.89

 Zero-point correction=                           0.341182 (Hartree/Particle)
 Thermal correction to Energy=                    0.359799
 Thermal correction to Enthalpy=                  0.360743
 Thermal correction to Gibbs Free Energy=         0.292054
 Sum of electronic and zero-point Energies=           -734.926325
 Sum of electronic and thermal Energies=              -734.907707
 Sum of electronic and thermal Enthalpies=            -734.906763
 Sum of electronic and thermal Free Energies=         -734.975453

                     E (Thermal)             CV                S
                      KCal/Mol        Cal/Mol-Kelvin    Cal/Mol-Kelvin
 Total                  225.777             68.972            144.569
 Electronic               0.000              0.000              0.000
 Translational            0.889              2.981             42.254
 Rotational               0.889              2.981             33.632
 Vibrational            224.000             63.010             68.683
 Vibration     1          0.593              1.987              7.502
 Vibration     2          0.593              1.985              6.133
 Vibration     3          0.594              1.981              5.324
 Vibration     4          0.597              1.972              4.368
 Vibration     5          0.598              1.967              4.089
 Vibration     6          0.600              1.962              3.867
 Vibration     7          0.604              1.951              3.492
 Vibration     8          0.612              1.922              2.925
 Vibration     9          0.623              1.888              2.521
 Vibration    10          0.626              1.878              2.419
 Vibration    11          0.631              1.861              2.286
 Vibration    12          0.643              1.822              2.025
 Vibration    13          0.650              1.800              1.905
 Vibration    14          0.657              1.781              1.812
 Vibration    15          0.664              1.760              1.718
 Vibration    16          0.682              1.704              1.511
 Vibration    17          0.691              1.678              1.429
 Vibration    18          0.702              1.645              1.336
 Vibration    19          0.726              1.579              1.175
 Vibration    20          0.757              1.493              1.003
 Vibration    21          0.769              1.463              0.951
 Vibration    22          0.790              1.408              0.863
 Vibration    23          0.813              1.350              0.780
 Vibration    24          0.826              1.319              0.741
 Vibration    25          0.871              1.215              0.620
 Vibration    26          0.893              1.167              0.570
 Vibration    27          0.914              1.122              0.527
 Vibration    28          0.953              1.042              0.458

 Optimization completed.
    -- Stationary point found.
 Normal termination of Gaussian 16 at Fri Dec 11 13:41:07 2020.

 ----------------------------------------------------------------------
 # B3LYP/6-311++G(d,p) empiricaldispersion=gd3bj scf=xqc pop=npa geom=c
 heck
 ----------------------------------------------------------------------

 ---------------------------------------
 CID_144314830_JID_7763_Energie_neutraal
 ---------------------------------------
 Structure from the checkpoint file:  "JID_7763.chk"
 Charge =  0 Multiplicity = 1

 SCF Done:  E(RB3LYP) =  -735.472797153     A.U. after   15 cycles
 Normal termination of Gaussian 16 at Fri Dec 11 13:48:20 2020.

 ----------------------------------------------------------------------
 # B3LYP/6-311++G(d,p) empiricaldispersion=gd3bj scf=xqc pop=npa geom=c
 heck
 ----------------------------------------------------------------------

 -------------------------------------
 CID_144314830_JID_7763_Energie_kation
 -------------------------------------
 Structure from the checkpoint file:  "JID_7763.chk"
 Charge =  1 Multiplicity = 2

 SCF Done:  E(UB3LYP) =  -735.200206469     A.U. after   22 cycles
 Normal termination of Gaussian 16 at Fri Dec 11 14:03:19 2020.
 Gaussian 16:  ES64L-G16RevA.03 25-Dec-2016

 ----------------------------------------------------------------------
 # B3LYP/6-311++G(d,p) empiricaldispersion=gd3bj scf=xqc pop=npa geom=c
 heck
 ----------------------------------------------------------------------

 ------------------------------------
 CID_144314830_JID_7763_Energie_anion
 ------------------------------------
 Structure from the checkpoint file:  "JID_7763.chk"
 Charge = -1 Multiplicity = 2

                         Standard orientation:
 ---------------------------------------------------------------------
 Center     Atomic      Atomic             Coordinates (Angstroms)
 Number     Number       Type             X           Y           Z
 ---------------------------------------------------------------------
      1          6           0        4.723970    2.509522   -0.343330
      2          6           0        4.363240    1.017711   -0.270644
      3          6           0        3.247924    0.758097    0.699923
      4          6           0        2.109836    0.084804    0.456993
      5          6           0        1.768153   -0.633361   -0.782745
      6          6           0        2.513818   -1.574705   -1.383342
      7          6           0        3.815857   -2.137218   -0.897391
      8          8           0        1.131131    0.156062    1.437104
      9          6           0        0.153330   -0.878487    1.495628
     10          6           0       -1.151478   -0.508152    0.841120
     11          6           0       -1.366100    0.714844    0.341506
     12          8           0       -2.526623    1.155250   -0.228380
     13          6           0       -3.677433    0.310102   -0.031952
     14          6           0       -3.303373   -1.163209   -0.235166
     15          6           0       -2.213589   -1.575571    0.762316
     16          6           0       -4.727636    0.774233   -0.994554
     17          6           0       -5.971065    1.096492   -0.644809
     18          1           0        3.867243    3.100439   -0.685521
     19          1           0        5.556828    2.681224   -1.034845
     20          1           0        5.019771    2.892530    0.640640
     21          1           0        4.083755    0.657915   -1.266103
     22          1           0        5.261865    0.451793    0.020567
     23          1           0        3.326750    1.233435    1.677100
     24          1           0        0.798047   -0.386000   -1.210953
     25          1           0        2.130442   -1.997883   -2.311982
     26          1           0        3.806480   -3.232714   -0.958437
     27          1           0        4.656566   -1.793404   -1.515252
     28          1           0        4.018121   -1.839702    0.134603
     29          1           0        0.547631   -1.803427    1.051403
     30          1           0       -0.004156   -1.080544    2.564967
     31          1           0       -0.609432    1.490760    0.347351
     32          1           0       -4.024558    0.450625    1.002682
     33          1           0       -4.200893   -1.780339   -0.125586
     34          1           0       -2.938944   -1.289211   -1.262221
     35          1           0       -2.654286   -1.762220    1.753565
     36          1           0       -1.765083   -2.529506    0.450369
     37          1           0       -4.416361    0.806607   -2.038093
     38          1           0       -6.715345    1.389626   -1.379604
     39          1           0       -6.293226    1.078892    0.394248
 ---------------------------------------------------------------------

 SCF Done:  E(UB3LYP) =  -735.459889093     A.U. after   33 cycles
 SCF Done:  E(UB3LYP) =  -735.459889093     a.u. after    1 cycles

 The electronic state is 2-A.
 Alpha  occ. eigenvalues --  -19.05799 -19.04918 -10.14565 -10.13407 -10.13251
 Alpha  occ. eigenvalues --  -10.12320 -10.09732 -10.09004 -10.08782 -10.08643
 Alpha  occ. eigenvalues --  -10.08548 -10.08002 -10.07956 -10.07647 -10.07432
 Alpha  occ. eigenvalues --  -10.07373 -10.06495  -0.97358  -0.96327  -0.73392
 Alpha  occ. eigenvalues --   -0.72862  -0.71799  -0.69144  -0.66856  -0.64553
 Alpha  occ. eigenvalues --   -0.60758  -0.59257  -0.56880  -0.54657  -0.51957
 Alpha  occ. eigenvalues --   -0.49684  -0.49118  -0.45784  -0.43661  -0.41872
 Alpha  occ. eigenvalues --   -0.40952  -0.38381  -0.38229  -0.37625  -0.37049
 Alpha  occ. eigenvalues --   -0.36471  -0.35347  -0.34458  -0.33842  -0.32415
 Alpha  occ. eigenvalues --   -0.32356  -0.31084  -0.31027  -0.29885  -0.29307
 Alpha  occ. eigenvalues --   -0.28999  -0.27758  -0.27531  -0.26621  -0.26066
 Alpha  occ. eigenvalues --   -0.25305  -0.24739  -0.23905  -0.22868  -0.21932
 Alpha  occ. eigenvalues --   -0.18960  -0.17786  -0.12859  -0.12310   0.03983
 Alpha virt. eigenvalues --    0.05363   0.06224   0.06465   0.06894   0.07084
 Alpha virt. eigenvalues --    0.07428   0.07933   0.08473   0.08648   0.08971
 Alpha virt. eigenvalues --    0.09694   0.09795   0.10022   0.10591   0.11117

  Beta  occ. eigenvalues --  -19.05798 -19.04920 -10.14557 -10.13393 -10.13241
  Beta  occ. eigenvalues --  -10.12313 -10.09724 -10.08985 -10.08743 -10.08617
  Beta  occ. eigenvalues --  -10.08529 -10.07994 -10.07955 -10.07647 -10.07415
  Beta  occ. eigenvalues --  -10.07348 -10.06472  -0.97354  -0.96324  -0.73361
  Beta  occ. eigenvalues --   -0.72837  -0.71768  -0.69098  -0.66830  -0.64522
  Beta  occ. eigenvalues --   -0.60724  -0.59219  -0.56839  -0.54618  -0.51909
  Beta  occ. eigenvalues --   -0.49623  -0.49074  -0.45750  -0.43633  -0.41842
  Beta  occ. eigenvalues --   -0.40918  -0.38352  -0.38204  -0.37589  -0.37011
  Beta  occ. eigenvalues --   -0.36440  -0.35319  -0.34427  -0.33815  -0.32379
  Beta  occ. eigenvalues --   -0.32313  -0.31052  -0.30997  -0.29859  -0.29273
  Beta  occ. eigenvalues --   -0.28963  -0.27727  -0.27496  -0.26588  -0.26040
  Beta  occ. eigenvalues --   -0.25287  -0.24710  -0.23874  -0.22847  -0.21912
  Beta  occ. eigenvalues --   -0.18932  -0.17726  -0.12843  -0.12209
  Beta virt. eigenvalues --    0.05854   0.06093   0.06801   0.06948   0.07074
  Beta virt. eigenvalues --    0.07231   0.07787   0.08183   0.08804   0.08996
  Beta virt. eigenvalues --    0.09184   0.09925   0.10063   0.10316   0.10768

 Mulliken charges and spin densities:
               1          2
     1  C    0.242941  -0.956766
     2  C   -0.472047   0.188359
     3  C   -0.439003   1.031530
     4  C   -0.695978  -0.284896
     5  C    0.679562  -0.182873
     6  C   -0.050256  -0.201779
     7  C    0.723494  -1.416681
     8  O   -0.007537  -0.009095
     9  C    0.519595  -0.971457
    10  C    0.268407   0.797833
    11  C   -0.359948  -0.424519
    12  O   -0.021241   0.011377
    13  C    0.459564  -1.091270
    14  C   -0.453505   0.036185
    15  C    0.503506  -1.105968
    16  C   -1.484769   2.111986
    17  C    0.702934  -1.323683
    18  H    0.104598   0.030363
    19  H   -0.157025   0.286076
    20  H    0.016591   0.119390
    21  H    0.134016   0.027410
    22  H   -0.008539   0.146579
    23  H    0.107065   0.072487
    24  H    0.449713  -0.174982
    25  H   -0.702328   0.874242
    26  H   -0.491826   0.665979
    27  H   -0.035061   0.193802
    28  H    0.076687   0.070119
    29  H    0.317050  -0.152501
    30  H   -0.055758   0.243932
    31  H    0.151073   0.043017
    32  H    0.113111   0.059070
    33  H   -0.351746   0.536365
    34  H    0.121135   0.040571
    35  H   -0.104021   0.280335
    36  H   -0.269035   0.436144
    37  H   -0.133489   0.327473
    38  H   -0.146009   0.294119
    39  H   -0.251919   0.371726
 Sum of Mulliken charges =  -1.00000   1.00000

 Dipole moment (field-independent basis, Debye):
    X=              0.3660    Y=              3.0453    Z=              1.9807  Tot=              3.6512
 Quadrupole moment (field-independent basis, Debye-Ang):
   XX=           -217.9656   YY=           -157.1195   ZZ=           -140.5715
   XY=              2.2046   XZ=              9.9204   YZ=             -4.3086

 Summary of Natural Population Analysis:

                                       Natural Population
                Natural  -----------------------------------------------
    Atom  No    Charge         Core      Valence    Rydberg      Total
 -----------------------------------------------------------------------
      C    1   -0.27930      0.99967     2.27557    0.00407     3.27930
      C    2   -0.20798      0.99963     2.19960    0.00875     3.20798
      C    3   -0.11934      0.99948     2.11039    0.00947     3.11934
      C    4    0.14547      0.99934     1.84061    0.01459     2.85453
      C    5   -0.14444      0.99948     2.13418    0.01078     3.14444
      C    6   -0.06257      0.99954     2.05256    0.01046     3.06257
      C    7   -0.31089      0.99964     2.30442    0.00683     3.31089
      O    8   -0.28708      0.99986     3.27798    0.00924     4.28708
      C    9   -0.01249      0.99951     2.00059    0.01240     3.01249
      C   10   -0.07565      0.99949     2.06630    0.00986     3.07565
      C   11    0.07771      0.99934     1.91031    0.01264     2.92229
      O   12   -0.28128      0.99987     3.27255    0.00886     4.28128
      C   13    0.04830      0.99950     1.93658    0.01562     2.95170
      C   14   -0.19590      0.99961     2.18791    0.00837     3.19590
      C   15   -0.20017      0.99959     2.19109    0.00949     3.20017
      C   16   -0.08586      0.99954     2.07437    0.01195     3.08586
      C   17   -0.18177      0.99956     2.17580    0.00640     3.18177
      H   18    0.09691      0.00000     0.40202    0.00106     0.40309
      H   19    0.09672      0.00000     0.40210    0.00119     0.40328
      H   20    0.09276      0.00000     0.40606    0.00118     0.40724
      H   21    0.10428      0.00000     0.39438    0.00133     0.39572
      H   22    0.09646      0.00000     0.40224    0.00130     0.40354
      H   23    0.09712      0.00000     0.40164    0.00124     0.40288
      H   24    0.10825      0.00000     0.38935    0.00240     0.39175
      H   25    0.09561      0.00000     0.40291    0.00148     0.40439
      H   26    0.10611      0.00000     0.39252    0.00137     0.39389
      H   27    0.10582      0.00000     0.39300    0.00118     0.39418
      H   28    0.10576      0.00000     0.39298    0.00126     0.39424
      H   29    0.09266      0.00000     0.40556    0.00178     0.40734
      H   30    0.09221      0.00000     0.40641    0.00138     0.40779
      H   31    0.09773      0.00000     0.40088    0.00138     0.40227
      H   32    0.08574      0.00000     0.41197    0.00228     0.41426
      H   33    0.10751      0.00000     0.39103    0.00145     0.39249
      H   34    0.09963      0.00000     0.39884    0.00153     0.40037
      H   35    0.10210      0.00000     0.39618    0.00172     0.39790
      H   36    0.10628      0.00000     0.39226    0.00146     0.39372
      H   37    0.09695      0.00000     0.40183    0.00122     0.40305
      H   38    0.09444      0.00000     0.40450    0.00107     0.40556
      H   39    0.09217      0.00000     0.40649    0.00134     0.40783
 =======================================================================
   * Total *    0.00000     16.99267    46.80597    0.20136    64.00000

 Normal termination of Gaussian 16 at Fri Dec 11 14:26:27 2020.
