 Gaussian 16, Revision A.03,

 -----------------------------------------------------------
 # opt freq B3LYP/6-31G(d) empiricaldispersion=gd3bj scf=xqc
 -----------------------------------------------------------

 -------------------------------
 CID_148207971_JID_1339_neutraal
 -------------------------------
 Symbolic Z-matrix:
 Charge =  0 Multiplicity = 1

 SCF Done:  E(RB3LYP) =  -521.497058273     A.U. after   13 cycles
 SCF Done:  E(RB3LYP) =  -521.500056035     A.U. after   11 cycles
 SCF Done:  E(RB3LYP) =  -521.499739732     A.U. after   11 cycles
 SCF Done:  E(RB3LYP) =  -521.500728516     A.U. after   11 cycles
 SCF Done:  E(RB3LYP) =  -521.501165293     A.U. after   11 cycles
 SCF Done:  E(RB3LYP) =  -521.501749104     A.U. after   10 cycles
 SCF Done:  E(RB3LYP) =  -521.502750575     A.U. after   13 cycles
 SCF Done:  E(RB3LYP) =  -521.503367499     A.U. after   11 cycles
 SCF Done:  E(RB3LYP) =  -521.503885103     A.U. after   10 cycles
 SCF Done:  E(RB3LYP) =  -521.504208193     A.U. after   10 cycles
 SCF Done:  E(RB3LYP) =  -521.504272227     A.U. after    9 cycles
 SCF Done:  E(RB3LYP) =  -521.504278026     A.U. after    9 cycles
 SCF Done:  E(RB3LYP) =  -521.504279485     A.U. after    7 cycles
 SCF Done:  E(RB3LYP) =  -521.504280251     A.U. after    7 cycles
 SCF Done:  E(RB3LYP) =  -521.504280430     A.U. after    7 cycles
 SCF Done:  E(RB3LYP) =  -521.504280455     A.U. after    6 cycles
 Optimization completed.
    -- Stationary point found.
 Normal termination of Gaussian 16 at Tue Dec  8 19:50:35 2020.

 --------------------------------------------------------------------
 #N Geom=AllCheck Guess=TCheck SCRF=Check GenChk RB3LYP/6-31G(d) Freq
 --------------------------------------------------------------------

 Structure from the checkpoint file:  "JID_1339.chk"
 -------------------------------
 CID_148207971_JID_1339_neutraal
 -------------------------------
 Charge =  0 Multiplicity = 1

 SCF Done:  E(RB3LYP) =  -521.504280455     A.U. after    1 cycles

  Exact polarizability: 114.661   0.236 100.366  -0.055   0.377  85.968
 Approx polarizability: 135.657  -2.339 136.562  -0.803   1.588 126.661

                      1                      2                      3
                      A                      A                      A
 Frequencies --     27.8788                55.8836                90.2117
 Red. masses --      3.2810                 3.1542                 2.6807
 Frc consts  --      0.0015                 0.0058                 0.0129
 IR Inten    --      0.5076                 2.1101                 3.8917

                      4                      5                      6
                      A                      A                      A
 Frequencies --     95.1424               121.4737               192.1711
 Red. masses --      2.8674                 2.9838                 2.3087
 Frc consts  --      0.0153                 0.0259                 0.0502
 IR Inten    --      3.8915                 2.0549                 2.8180

                      7                      8                      9
                      A                      A                      A
 Frequencies --    209.8339               222.0221               237.2231
 Red. masses --      1.4978                 1.6118                 1.3890
 Frc consts  --      0.0389                 0.0468                 0.0461
 IR Inten    --      0.8622                 0.0503                 1.6765

                     10                     11                     12
                      A                      A                      A
 Frequencies --    244.0353               274.7394               298.4404
 Red. masses --      1.6358                 2.0133                 1.8980
 Frc consts  --      0.0574                 0.0895                 0.0996
 IR Inten    --      2.6716                 1.8917                 3.8832

                     13                     14                     15
                      A                      A                      A
 Frequencies --    321.1990               349.0161               367.2340
 Red. masses --      1.9007                 1.5440                 2.2249
 Frc consts  --      0.1155                 0.1108                 0.1768
 IR Inten    --      2.2952                45.8288                21.0682

                     16                     17                     18
                      A                      A                      A
 Frequencies --    384.4752               415.7046               437.2993
 Red. masses --      1.8320                 2.5505                 2.2294
 Frc consts  --      0.1596                 0.2597                 0.2512
 IR Inten    --     23.1817                 5.2143                27.3510

                     19                     20                     21
                      A                      A                      A
 Frequencies --    495.2598               554.7664               559.9823
 Red. masses --      2.3165                 2.4297                 2.6735
 Frc consts  --      0.3348                 0.4406                 0.4939
 IR Inten    --      2.0032                 6.3760                 0.5547

                     22                     23                     24
                      A                      A                      A
 Frequencies --    721.2351               835.9572               855.0578
 Red. masses --      3.0211                 2.3369                 2.1296
 Frc consts  --      0.9259                 0.9622                 0.9174
 IR Inten    --      3.4941                 7.7163                12.3910

                     25                     26                     27
                      A                      A                      A
 Frequencies --    865.2818               920.6906               936.6002
 Red. masses --      2.1206                 1.3935                 1.7123
 Frc consts  --      0.9355                 0.6960                 0.8850
 IR Inten    --     18.9796                81.2760                 1.8953

                     28                     29                     30
                      A                      A                      A
 Frequencies --    948.0830               970.8205               978.1431
 Red. masses --      1.5028                 2.0281                 1.9396
 Frc consts  --      0.7959                 1.1262                 1.0933
 IR Inten    --      1.0864                 0.8032                29.8104

                     31                     32                     33
                      A                      A                      A
 Frequencies --   1023.2350              1054.9916              1071.0435
 Red. masses --      1.3207                 2.8027                 1.7077
 Frc consts  --      0.8147                 1.8379                 1.1542
 IR Inten    --      3.9063                41.4306                11.1600

                     34                     35                     36
                      A                      A                      A
 Frequencies --   1119.2470              1130.6786              1137.7656
 Red. masses --      3.5776                 2.1971                 1.8131
 Frc consts  --      2.6405                 1.6550                 1.3829
 IR Inten    --    101.3704                35.4114                13.8449

                     37                     38                     39
                      A                      A                      A
 Frequencies --   1161.2815              1180.2538              1197.3577
 Red. masses --      1.6831                 3.0548                 1.3949
 Frc consts  --      1.3373                 2.5072                 1.1782
 IR Inten    --     47.9151                85.8334                10.5880

                     40                     41                     42
                      A                      A                      A
 Frequencies --   1202.4803              1238.5964              1244.9719
 Red. masses --      1.6822                 1.6330                 2.0972
 Frc consts  --      1.4331                 1.4760                 1.9152
 IR Inten    --     58.6300                21.5402                24.9753

                     43                     44                     45
                      A                      A                      A
 Frequencies --   1265.2964              1286.7728              1314.2008
 Red. masses --      1.5933                 1.2917                 1.7999
 Frc consts  --      1.5029                 1.2602                 1.8315
 IR Inten    --     22.5664                23.1799                16.0419

                     46                     47                     48
                      A                      A                      A
 Frequencies --   1328.6018              1371.4161              1400.6775
 Red. masses --      1.1613                 1.2436                 1.4411
 Frc consts  --      1.2078                 1.3780                 1.6658
 IR Inten    --     15.7416                 3.8581                 0.4037

                     49                     50                     51
                      A                      A                      A
 Frequencies --   1416.3573              1427.3988              1445.0461
 Red. masses --      1.2747                 1.2895                 1.2357
 Frc consts  --      1.5067                 1.5479                 1.5203
 IR Inten    --     21.7482                 8.0946                14.6422

                     52                     53                     54
                      A                      A                      A
 Frequencies --   1449.2527              1455.1668              1499.5517
 Red. masses --      1.4603                 1.4405                 1.0789
 Frc consts  --      1.8071                 1.7972                 1.4294
 IR Inten    --      7.1934                13.3032                 3.7313

                     55                     56                     57
                      A                      A                      A
 Frequencies --   1502.1961              1511.7354              1513.6093
 Red. masses --      1.1606                 1.0624                 1.0589
 Frc consts  --      1.5431                 1.4305                 1.4294
 IR Inten    --      5.1603                 3.1408                 1.7288

                     58                     59                     60
                      A                      A                      A
 Frequencies --   1514.8287              1523.1818              1528.1978
 Red. masses --      1.0493                 1.0669                 1.0682
 Frc consts  --      1.4186                 1.4584                 1.4698
 IR Inten    --      6.0809                 0.9688                11.3827

                     61                     62                     63
                      A                      A                      A
 Frequencies --   1532.8967              1546.0648              1550.2675
 Red. masses --      1.0605                 1.0731                 1.0911
 Frc consts  --      1.4682                 1.5112                 1.5450
 IR Inten    --      2.1744                 5.9931                 0.3109

                     64                     65                     66
                      A                      A                      A
 Frequencies --   1555.5015              1684.0161              2959.4337
 Red. masses --      1.0736                 1.0873                 1.0739
 Frc consts  --      1.5304                 1.8168                 5.5417
 IR Inten    --      5.7928                41.0438                78.8941

                     67                     68                     69
                      A                      A                      A
 Frequencies --   2971.1119              2988.1933              3012.5338
 Red. masses --      1.0554                 1.0426                 1.0992
 Frc consts  --      5.4894                 5.4849                 5.8777
 IR Inten    --     37.9281                99.6052                53.5124

                     70                     71                     72
                      A                      A                      A
 Frequencies --   3028.6879              3042.2145              3051.9790
 Red. masses --      1.1045                 1.0640                 1.0601
 Frc consts  --      5.9695                 5.8020                 5.8177
 IR Inten    --     61.3034                13.0403                31.0898

                     73                     74                     75
                      A                      A                      A
 Frequencies --   3058.5760              3060.3511              3065.3235
 Red. masses --      1.0499                 1.0677                 1.0417
 Frc consts  --      5.7866                 5.8919                 5.7671
 IR Inten    --     21.3988                63.3129                12.0109

                     76                     77                     78
                      A                      A                      A
 Frequencies --   3086.0747              3104.9373              3123.6643
 Red. masses --      1.1014                 1.1015                 1.1004
 Frc consts  --      6.1804                 6.2568                 6.3259
 IR Inten    --     36.0112                26.4634                38.2211

                     79                     80                     81
                      A                      A                      A
 Frequencies --   3133.4326              3134.3870              3138.2380
 Red. masses --      1.1028                 1.0963                 1.1022
 Frc consts  --      6.3795                 6.3460                 6.3959
 IR Inten    --     23.6058                31.2036                30.2743

                     82                     83                     84
                      A                      A                      A
 Frequencies --   3151.6241              3469.8768              3560.5617
 Red. masses --      1.1021                 1.0496                 1.0930
 Frc consts  --      6.4499                 7.4459                 8.1638
 IR Inten    --     20.5109                14.3487                 3.3626

 - Thermochemistry -
 -------------------
 Temperature   298.150 Kelvin.  Pressure   1.00000 Atm.
 Atom     1 has atomic number  6 and mass  12.00000

 Molecular mass:   161.14158 amu.
 Principal axes and moments of inertia in atomic units:
                           1         2         3
     Eigenvalues --  1000.657263047.543473540.56045
           X            0.99997  -0.00742  -0.00147
           Y            0.00743   0.99997   0.00300
           Z            0.00144  -0.00301   0.99999
 This molecule is an asymmetric top.
 Rotational symmetry number  1.
 Warning -- assumption of classical behavior for rotation
           may cause significant error
 Rotational temperatures (Kelvin)      0.08656     0.02842     0.02446
 Rotational constants (GHZ):           1.80356     0.59220     0.50973
 Zero-point vibrational energy     720817.0 (Joules/Mol)
                                  172.27941 (Kcal/Mol)
 Warning -- explicit consideration of  21 degrees of freedom as
           vibrations may cause significant error
 Vibrational temperatures:     40.11    80.40   129.79   136.89   174.77
          (Kelvin)            276.49   301.90   319.44   341.31   351.11
                              395.29   429.39   462.13   502.16   528.37
                              553.17   598.11   629.18   712.57   798.19
                              805.69  1037.70  1202.76  1230.24  1244.95
                             1324.67  1347.56  1364.08  1396.79  1407.33
                             1472.21  1517.90  1540.99  1610.35  1626.79
                             1636.99  1670.83  1698.12  1722.73  1730.10
                             1782.06  1791.24  1820.48  1851.38  1890.84
                             1911.56  1973.16  2015.26  2037.82  2053.71
                             2079.10  2085.15  2093.66  2157.52  2161.33
                             2175.05  2177.75  2179.50  2191.52  2198.74
                             2205.50  2224.44  2230.49  2238.02  2422.92
                             4257.96  4274.77  4299.34  4334.36  4357.61
                             4377.07  4391.12  4400.61  4403.16  4410.32
                             4440.17  4467.31  4494.26  4508.31  4509.68
                             4515.22  4534.48  4992.38  5122.85

 Zero-point correction=                           0.274545 (Hartree/Particle)
 Thermal correction to Energy=                    0.288308
 Thermal correction to Enthalpy=                  0.289252
 Thermal correction to Gibbs Free Energy=         0.234163
 Sum of electronic and zero-point Energies=           -521.229736
 Sum of electronic and thermal Energies=              -521.215973
 Sum of electronic and thermal Enthalpies=            -521.215028
 Sum of electronic and thermal Free Energies=         -521.270117

                     E (Thermal)             CV                S
                      KCal/Mol        Cal/Mol-Kelvin    Cal/Mol-Kelvin
 Total                  180.916             50.498            115.945
 Electronic               0.000              0.000              0.000
 Translational            0.889              2.981             41.140
 Rotational               0.889              2.981             30.758
 Vibrational            179.138             44.537             44.047
 Vibration     1          0.593              1.984              5.975
 Vibration     2          0.596              1.975              4.598
 Vibration     3          0.602              1.956              3.655
 Vibration     4          0.603              1.953              3.551
 Vibration     5          0.609              1.931              3.077
 Vibration     6          0.634              1.851              2.207
 Vibration     7          0.642              1.826              2.045
 Vibration     8          0.648              1.808              1.943
 Vibration     9          0.656              1.784              1.824
 Vibration    10          0.659              1.773              1.773
 Vibration    11          0.677              1.720              1.566
 Vibration    12          0.692              1.677              1.426
 Vibration    13          0.707              1.633              1.304
 Vibration    14          0.726              1.577              1.171
 Vibration    15          0.740              1.540              1.091
 Vibration    16          0.753              1.503              1.022
 Vibration    17          0.779              1.436              0.907
 Vibration    18          0.798              1.389              0.835
 Vibration    19          0.851              1.261              0.670
 Vibration    20          0.910              1.129              0.534
 Vibration    21          0.916              1.118              0.524

 Optimization completed.
    -- Stationary point found.
 Normal termination of Gaussian 16 at Tue Dec  8 19:57:47 2020.

 ----------------------------------------------------------------------
 # B3LYP/6-311++G(d,p) empiricaldispersion=gd3bj scf=xqc pop=npa geom=c
 heck
 ----------------------------------------------------------------------

 ---------------------------------------
 CID_148207971_JID_1339_Energie_neutraal
 ---------------------------------------
 Structure from the checkpoint file:  "JID_1339.chk"
 Charge =  0 Multiplicity = 1

 SCF Done:  E(RB3LYP) =  -521.667211544     A.U. after   13 cycles
 Normal termination of Gaussian 16 at Tue Dec  8 20:00:56 2020.

 ----------------------------------------------------------------------
 # B3LYP/6-311++G(d,p) empiricaldispersion=gd3bj scf=xqc pop=npa geom=c
 heck
 ----------------------------------------------------------------------

 -------------------------------------
 CID_148207971_JID_1339_Energie_kation
 -------------------------------------
 Structure from the checkpoint file:  "JID_1339.chk"
 Charge =  1 Multiplicity = 2

 SCF Done:  E(UB3LYP) =  -521.358391966     A.U. after   24 cycles
 Normal termination of Gaussian 16 at Tue Dec  8 20:09:06 2020.
 Gaussian 16:  ES64L-G16RevA.03 25-Dec-2016

 ----------------------------------------------------------------------
 # B3LYP/6-311++G(d,p) empiricaldispersion=gd3bj scf=xqc pop=npa geom=c
 heck
 ----------------------------------------------------------------------

 ------------------------------------
 CID_148207971_JID_1339_Energie_anion
 ------------------------------------
 Structure from the checkpoint file:  "JID_1339.chk"
 Charge = -1 Multiplicity = 2

                         Standard orientation:
 ---------------------------------------------------------------------
 Center     Atomic      Atomic             Coordinates (Angstroms)
 Number     Number       Type             X           Y           Z
 ---------------------------------------------------------------------
      1          6           0       -1.373554    1.549391   -1.288662
      2          6           0       -0.873666    0.878730   -0.006616
      3          6           0       -0.025294    1.878236    0.793756
      4          6           0       -2.037434    0.350947    0.861965
      5          6           0       -3.041230   -0.572441    0.165826
      6          7           0       -2.413533   -1.830211   -0.254436
      7          8           0       -0.052699   -0.204078   -0.499180
      8          6           0        0.644100   -1.010696    0.443007
      9          6           0        2.085893   -1.154102    0.000126
     10          8           0        2.755328    0.074141    0.209257
     11          6           0        4.077897    0.060236   -0.276540
     12          1           0       -2.079077    2.354203   -1.057118
     13          1           0       -1.871537    0.826170   -1.940651
     14          1           0       -0.527602    1.972321   -1.838953
     15          1           0       -0.584778    2.806811    0.951167
     16          1           0        0.252123    1.490477    1.778984
     17          1           0        0.895596    2.098454    0.247652
     18          1           0       -1.620902   -0.176204    1.728849
     19          1           0       -2.580145    1.220498    1.255747
     20          1           0       -3.834301   -0.816911    0.883814
     21          1           0       -3.530880   -0.020312   -0.656219
     22          1           0       -3.097745   -2.411553   -0.735265
     23          1           0       -1.674218   -1.614869   -0.920701
     24          1           0        0.626948   -0.575266    1.447088
     25          1           0        0.162776   -1.995475    0.499015
     26          1           0        2.572247   -1.961663    0.575478
     27          1           0        2.115327   -1.435704   -1.065288
     28          1           0        4.688776   -0.710805    0.221502
     29          1           0        4.110792   -0.123731   -1.362639
     30          1           0        4.510032    1.042724   -0.069190
 ---------------------------------------------------------------------

 SCF Done:  E(UB3LYP) =  -521.649701877     A.U. after   25 cycles

 The electronic state is 2-A.
 Alpha  occ. eigenvalues --  -19.02658 -19.01610 -14.18201 -10.12830 -10.11556
 Alpha  occ. eigenvalues --  -10.11154 -10.11141 -10.08501 -10.06223 -10.05512
 Alpha  occ. eigenvalues --  -10.05413  -0.94414  -0.92481  -0.77441  -0.70426
 Alpha  occ. eigenvalues --   -0.65151  -0.61600  -0.59112  -0.57230  -0.51602
 Alpha  occ. eigenvalues --   -0.50878  -0.45002  -0.40443  -0.39660  -0.38573
 Alpha  occ. eigenvalues --   -0.37281  -0.37091  -0.35440  -0.34719  -0.33382
 Alpha  occ. eigenvalues --   -0.30671  -0.30166  -0.29431  -0.28486  -0.28088
 Alpha  occ. eigenvalues --   -0.26987  -0.26484  -0.26153  -0.24442  -0.23406
 Alpha  occ. eigenvalues --   -0.22374  -0.20088  -0.16531  -0.15546  -0.13532
 Alpha  occ. eigenvalues --    0.04584
 Alpha virt. eigenvalues --    0.06077   0.07400   0.08046   0.08565   0.08970
 Alpha virt. eigenvalues --    0.09432   0.10091   0.11041   0.11205   0.11624
 Alpha virt. eigenvalues --    0.12002   0.12819   0.13256   0.14170   0.14390

  Beta  occ. eigenvalues --  -19.02648 -19.01603 -14.18177 -10.12827 -10.11539
  Beta  occ. eigenvalues --  -10.11147 -10.11099 -10.08475 -10.06210 -10.05487
  Beta  occ. eigenvalues --  -10.05399  -0.94399  -0.92469  -0.77398  -0.70406
  Beta  occ. eigenvalues --   -0.65119  -0.61556  -0.59075  -0.57162  -0.51541
  Beta  occ. eigenvalues --   -0.50819  -0.44968  -0.40396  -0.39626  -0.38532
  Beta  occ. eigenvalues --   -0.37251  -0.37057  -0.35400  -0.34687  -0.33351
  Beta  occ. eigenvalues --   -0.30638  -0.30128  -0.29405  -0.28456  -0.28063
  Beta  occ. eigenvalues --   -0.26956  -0.26447  -0.26120  -0.24418  -0.23373
  Beta  occ. eigenvalues --   -0.22321  -0.20067  -0.16509  -0.15529  -0.13503
  Beta virt. eigenvalues --    0.06737   0.07283   0.08050   0.08488   0.09067
  Beta virt. eigenvalues --    0.09557   0.10082   0.10432   0.11374   0.11700
  Beta virt. eigenvalues --    0.11966   0.12421   0.13105   0.13521   0.14319

 Mulliken charges and spin densities:
               1          2
     1  C    0.873131  -1.339686
     2  C   -0.640470   0.575229
     3  C   -0.110318  -0.382685
     4  C   -0.810168   0.687618
     5  C    1.286537  -1.878169
     6  N   -0.432183   0.068418
     7  O   -0.009847   0.015776
     8  C   -0.442008   0.257897
     9  C    0.446250  -0.783750
    10  O   -0.230184   0.096728
    11  C    0.967069  -1.225589
    12  H   -0.148395   0.299059
    13  H   -0.111319   0.270906
    14  H    0.039808   0.118361
    15  H   -0.130345   0.269075
    16  H   -0.042750   0.185245
    17  H    0.218093  -0.024343
    18  H    0.088149   0.059353
    19  H   -0.253134   0.421198
    20  H   -0.481445   0.652262
    21  H   -0.235546   0.365482
    22  H   -0.115057   0.341857
    23  H    0.153235   0.086943
    24  H    0.084361   0.070838
    25  H    0.074319   0.090329
    26  H   -0.025386   0.160960
    27  H   -0.006673   0.148730
    28  H   -0.468336   0.593513
    29  H   -0.285612   0.415943
    30  H   -0.251775   0.382502
 Sum of Mulliken charges =  -1.00000   1.00000

 Dipole moment (field-independent basis, Debye):
    X=              0.2512    Y=              0.3640    Z=              0.7370  Tot=              0.8595
 Quadrupole moment (field-independent basis, Debye-Ang):
   XX=           -160.6141   YY=           -109.2038   ZZ=           -101.4294
   XY=              0.0333   XZ=              0.5260   YZ=              0.1757

 Summary of Natural Population Analysis:

                                       Natural Population
                Natural  -----------------------------------------------
    Atom  No    Charge         Core      Valence    Rydberg      Total
 -----------------------------------------------------------------------
      C    1   -0.29112      0.99960     2.28358    0.00794     3.29112
      C    2    0.13913      0.99953     1.84518    0.01616     2.86087
      C    3   -0.30070      0.99961     2.29415    0.00695     3.30070
      C    4   -0.20695      0.99956     2.19671    0.01067     3.20695
      C    5   -0.08841      0.99963     2.07680    0.01198     3.08841
      N    6   -0.43014      0.99977     2.91933    0.01104     3.93014
      O    7   -0.32078      0.99987     3.30905    0.01186     4.32078
      C    8   -0.02319      0.99955     2.01186    0.01178     3.02319
      C    9   -0.01535      0.99958     2.00302    0.01276     3.01535
      O   10   -0.29875      0.99988     3.28817    0.01070     4.29875
      C   11   -0.09589      0.99962     2.08697    0.00930     3.09589
      H   12    0.10013      0.00000     0.39879    0.00109     0.39987
      H   13    0.10356      0.00000     0.39516    0.00128     0.39644
      H   14    0.10337      0.00000     0.39549    0.00115     0.39663
      H   15    0.10072      0.00000     0.39840    0.00088     0.39928
      H   16    0.09871      0.00000     0.40015    0.00114     0.40129
      H   17    0.11107      0.00000     0.38753    0.00139     0.38893
      H   18    0.09938      0.00000     0.39915    0.00147     0.40062
      H   19    0.10407      0.00000     0.39453    0.00140     0.39593
      H   20    0.09026      0.00000     0.40828    0.00146     0.40974
      H   21    0.07896      0.00000     0.41875    0.00228     0.42104
      H   22    0.17372      0.00000     0.32440    0.00188     0.32628
      H   23    0.18112      0.00000     0.31661    0.00227     0.31888
      H   24    0.08697      0.00000     0.41095    0.00208     0.41303
      H   25    0.09283      0.00000     0.40574    0.00143     0.40717
      H   26    0.07853      0.00000     0.41997    0.00149     0.42147
      H   27    0.08225      0.00000     0.41596    0.00178     0.41775
      H   28    0.07799      0.00000     0.41956    0.00245     0.42201
      H   29    0.07848      0.00000     0.41969    0.00182     0.42152
      H   30    0.09005      0.00000     0.40869    0.00126     0.40995
 =======================================================================
   * Total *    0.00000     10.99619    33.85265    0.15116    45.00000

 Normal termination of Gaussian 16 at Tue Dec  8 20:17:44 2020.
