 Gaussian 16, Revision A.03,

 -----------------------------------------------------------
 # opt freq B3LYP/6-31G(d) empiricaldispersion=gd3bj scf=xqc
 -----------------------------------------------------------

 ------------------------------
 CID_80791205_JID_6978_neutraal
 ------------------------------
 Symbolic Z-matrix:
 Charge =  0 Multiplicity = 1

 SCF Done:  E(RB3LYP) =  -725.499028385     A.U. after   14 cycles
 SCF Done:  E(RB3LYP) =  -725.500602923     A.U. after   13 cycles
 SCF Done:  E(RB3LYP) =  -725.507502964     A.U. after   13 cycles
 SCF Done:  E(RB3LYP) =  -725.508977969     A.U. after   13 cycles
 SCF Done:  E(RB3LYP) =  -725.510182726     A.U. after   12 cycles
 SCF Done:  E(RB3LYP) =  -725.511316522     A.U. after   12 cycles
 SCF Done:  E(RB3LYP) =  -725.511947138     A.U. after   13 cycles
 SCF Done:  E(RB3LYP) =  -725.512144045     A.U. after   12 cycles
 SCF Done:  E(RB3LYP) =  -725.512666547     A.U. after   11 cycles
 SCF Done:  E(RB3LYP) =  -725.513256252     A.U. after   12 cycles
 SCF Done:  E(RB3LYP) =  -725.518941314     A.U. after   11 cycles
 SCF Done:  E(RB3LYP) =  -725.518995227     A.U. after   10 cycles
 SCF Done:  E(RB3LYP) =  -725.519007414     A.U. after   10 cycles
 SCF Done:  E(RB3LYP) =  -725.519008841     A.U. after    8 cycles
 SCF Done:  E(RB3LYP) =  -725.519009150     A.U. after    7 cycles
 Optimization completed.
    -- Stationary point found.
 Normal termination of Gaussian 16 at Fri Dec 11 01:33:39 2020.

 --------------------------------------------------------------------
 #N Geom=AllCheck Guess=TCheck SCRF=Check GenChk RB3LYP/6-31G(d) Freq
 --------------------------------------------------------------------

 Structure from the checkpoint file:  "JID_6978.chk"
 ------------------------------
 CID_80791205_JID_6978_neutraal
 ------------------------------
 Charge =  0 Multiplicity = 1

 SCF Done:  E(RB3LYP) =  -725.519009150     A.U. after    1 cycles

  Exact polarizability: 177.535 -10.959 152.522  13.983   4.988 108.103
 Approx polarizability: 255.402 -22.652 237.707  35.048   8.126 161.462

                      1                      2                      3
                      A                      A                      A
 Frequencies --     40.7973                63.1357                71.6359
 Red. masses --      3.5720                 4.5316                 3.4673
 Frc consts  --      0.0035                 0.0106                 0.0105
 IR Inten    --      1.2046                 1.7086                 0.5780

                      4                      5                      6
                      A                      A                      A
 Frequencies --     90.1208               113.3868               118.9138
 Red. masses --      2.8913                 4.8812                 3.0277
 Frc consts  --      0.0138                 0.0370                 0.0252
 IR Inten    --      0.5355                 9.1162                 0.8815

                      7                      8                      9
                      A                      A                      A
 Frequencies --    128.9018               155.8856               173.6037
 Red. masses --      2.4747                 3.7473                 2.6306
 Frc consts  --      0.0242                 0.0537                 0.0467
 IR Inten    --      1.0520                 0.7103                 1.6981

                     10                     11                     12
                      A                      A                      A
 Frequencies --    220.2368               236.0698               247.3350
 Red. masses --      3.7457                 1.3550                 1.3164
 Frc consts  --      0.1070                 0.0445                 0.0474
 IR Inten    --      9.5385                 0.5189                 4.3733

                     13                     14                     15
                      A                      A                      A
 Frequencies --    275.8234               309.6121               318.6029
 Red. masses --      2.4002                 2.2282                 3.1523
 Frc consts  --      0.1076                 0.1258                 0.1885
 IR Inten    --      0.7793                 0.8844                11.0957

                     16                     17                     18
                      A                      A                      A
 Frequencies --    360.3345               370.7241               388.6820
 Red. masses --      3.5225                 2.1940                 1.8346
 Frc consts  --      0.2695                 0.1777                 0.1633
 IR Inten    --      5.8670                19.4958                30.9153

                     19                     20                     21
                      A                      A                      A
 Frequencies --    419.3520               457.5385               480.9762
 Red. masses --      1.7690                 2.8996                 2.4134
 Frc consts  --      0.1833                 0.3576                 0.3290
 IR Inten    --     59.4615                 6.6882                 5.8596

                     22                     23                     24
                      A                      A                      A
 Frequencies --    518.9302               530.4411               553.0555
 Red. masses --      2.5350                 3.1698                 2.9680
 Frc consts  --      0.4022                 0.5255                 0.5349
 IR Inten    --     10.6828                 8.6534                63.1772

                     25                     26                     27
                      A                      A                      A
 Frequencies --    572.2469               592.9487               610.5818
 Red. masses --      2.2751                 1.9541                 2.2524
 Frc consts  --      0.4389                 0.4048                 0.4947
 IR Inten    --     79.7664               100.4176                24.3308

                     28                     29                     30
                      A                      A                      A
 Frequencies --    642.1506               676.3360               719.2787
 Red. masses --      1.3240                 2.7330                 7.3839
 Frc consts  --      0.3217                 0.7366                 2.2508
 IR Inten    --    120.6032                48.6387                14.4493

                     31                     32                     33
                      A                      A                      A
 Frequencies --    789.3552               799.6647               815.7350
 Red. masses --      1.7259                 2.0233                 1.6420
 Frc consts  --      0.6336                 0.7623                 0.6437
 IR Inten    --     12.8243                17.8011                14.0798

                     34                     35                     36
                      A                      A                      A
 Frequencies --    840.3995               870.7281               878.3134
 Red. masses --      2.3694                 2.2221                 2.5271
 Frc consts  --      0.9859                 0.9926                 1.1486
 IR Inten    --      7.5315                 6.7608                 4.6303

                     37                     38                     39
                      A                      A                      A
 Frequencies --    898.0120               918.1479               945.1555
 Red. masses --      1.6338                 3.7411                 2.0439
 Frc consts  --      0.7763                 1.8581                 1.0757
 IR Inten    --      2.4328                21.6266                 2.5349

                     40                     41                     42
                      A                      A                      A
 Frequencies --    985.8735               993.1771              1048.9881
 Red. masses --      1.4417                 2.3980                 2.0385
 Frc consts  --      0.8256                 1.3936                 1.3216
 IR Inten    --      1.9614                 8.9510                 1.7293

                     43                     44                     45
                      A                      A                      A
 Frequencies --   1060.3722              1085.2614              1097.6861
 Red. masses --      2.3247                 1.6950                 1.9961
 Frc consts  --      1.5400                 1.1762                 1.4170
 IR Inten    --     33.2977                 4.6030                34.3499

                     46                     47                     48
                      A                      A                      A
 Frequencies --   1104.9714              1120.6650              1132.6022
 Red. masses --      1.9902                 2.0816                 3.2651
 Frc consts  --      1.4317                 1.5403                 2.4678
 IR Inten    --      7.8869                 3.9240                40.8140

                     49                     50                     51
                      A                      A                      A
 Frequencies --   1159.5688              1168.3935              1204.1935
 Red. masses --      1.9037                 2.9151                 2.2618
 Frc consts  --      1.5081                 2.3447                 1.9324
 IR Inten    --     48.5734                26.3284                17.8673

                     52                     53                     54
                      A                      A                      A
 Frequencies --   1241.7736              1265.5445              1277.2524
 Red. masses --      2.0455                 1.4795                 1.4268
 Frc consts  --      1.8584                 1.3961                 1.3714
 IR Inten    --     12.4966                72.1987                16.9438

                     55                     56                     57
                      A                      A                      A
 Frequencies --   1293.0793              1307.5398              1331.6873
 Red. masses --      1.2960                 1.2947                 2.7952
 Frc consts  --      1.2767                 1.3042                 2.9206
 IR Inten    --      6.8853                 2.1050                20.2062

                     58                     59                     60
                      A                      A                      A
 Frequencies --   1346.6324              1371.7954              1380.2420
 Red. masses --      1.3262                 1.7888                 1.6762
 Frc consts  --      1.4170                 1.9834                 1.8814
 IR Inten    --      0.1989                 6.0153                10.9488

                     61                     62                     63
                      A                      A                      A
 Frequencies --   1393.1630              1395.1422              1403.0228
 Red. masses --      1.6400                 1.5046                 1.3228
 Frc consts  --      1.8755                 1.7254                 1.5342
 IR Inten    --     15.0093                 2.0987                11.2719

                     64                     65                     66
                      A                      A                      A
 Frequencies --   1414.8871              1430.2467              1440.8701
 Red. masses --      1.4642                 1.4762                 1.2713
 Frc consts  --      1.7270                 1.7792                 1.5551
 IR Inten    --     36.4205                30.2605                 6.4373

                     67                     68                     69
                      A                      A                      A
 Frequencies --   1445.7560              1477.8493              1488.5608
 Red. masses --      1.2621                 1.7216                 2.4812
 Frc consts  --      1.5543                 2.2153                 3.2392
 IR Inten    --     19.7885               114.3777                97.1933

                     70                     71                     72
                      A                      A                      A
 Frequencies --   1506.8366              1518.0100              1519.4262
 Red. masses --      1.2317                 1.1196                 1.0848
 Frc consts  --      1.6477                 1.5201                 1.4756
 IR Inten    --     52.8314                42.9178                 0.3810

                     73                     74                     75
                      A                      A                      A
 Frequencies --   1522.1350              1529.5339              1536.5776
 Red. masses --      1.0968                 1.0677                 1.0705
 Frc consts  --      1.4972                 1.4717                 1.4892
 IR Inten    --      5.4887                 8.5615                 9.3695

                     76                     77                     78
                      A                      A                      A
 Frequencies --   1539.1727              1550.9855              1553.9226
 Red. masses --      1.1456                 1.1796                 1.1321
 Frc consts  --      1.5990                 1.6718                 1.6106
 IR Inten    --     12.0676                 4.7742                20.6153

                     79                     80                     81
                      A                      A                      A
 Frequencies --   1570.6806              1595.0040              1635.5391
 Red. masses --      1.1392                 6.4292                 5.2322
 Frc consts  --      1.6559                 9.6368                 8.2463
 IR Inten    --     17.7028                99.1870               426.6226

                     82                     83                     84
                      A                      A                      A
 Frequencies --   1677.3502              2971.5314              3038.5912
 Red. masses --      1.2763                 1.0724                 1.0505
 Frc consts  --      2.1156                 5.5789                 5.7149
 IR Inten    --    269.9124               122.2558                14.7748

                     85                     86                     87
                      A                      A                      A
 Frequencies --   3038.6974              3045.1481              3046.1101
 Red. masses --      1.0783                 1.0731                 1.0641
 Frc consts  --      5.8665                 5.8629                 5.8171
 IR Inten    --     53.6315                46.5961                46.4013

                     88                     89                     90
                      A                      A                      A
 Frequencies --   3056.7327              3071.3166              3073.8769
 Red. masses --      1.0359                 1.0661                 1.0731
 Frc consts  --      5.7026                 5.9253                 5.9742
 IR Inten    --     21.1502                32.0630                29.9445

                     91                     92                     93
                      A                      A                      A
 Frequencies --   3088.9990              3104.3613              3107.2482
 Red. masses --      1.0887                 1.0955                 1.0973
 Frc consts  --      6.1207                 6.2204                 6.2419
 IR Inten    --     13.0112                17.1400                40.6483

                     94                     95                     96
                      A                      A                      A
 Frequencies --   3111.2757              3123.3714              3126.1966
 Red. masses --      1.0991                 1.1026                 1.1005
 Frc consts  --      6.2685                 6.3377                 6.3368
 IR Inten    --     40.2005                39.8013                42.5386

                     97                     98                     99
                      A                      A                      A
 Frequencies --   3145.7247              3147.3039              3178.2005
 Red. masses --      1.0949                 1.1021                 1.0907
 Frc consts  --      6.3838                 6.4323                 6.4914
 IR Inten    --     17.5801                 6.6622                34.6199

                    100                    101                    102
                      A                      A                      A
 Frequencies --   3503.1072              3585.5799              3701.6362
 Red. masses --      1.0673                 1.0482                 1.0986
 Frc consts  --      7.7169                 7.9399                 8.8687
 IR Inten    --    453.3581                40.3250                24.7000

 - Thermochemistry -
 -------------------
 Temperature   298.150 Kelvin.  Pressure   1.00000 Atm.
 Atom     1 has atomic number  6 and mass  12.00000

 Molecular mass:   224.16371 amu.
 Principal axes and moments of inertia in atomic units:
                           1         2         3
     Eigenvalues --  2422.136544291.959895368.46384
           X            0.99990   0.01241  -0.00740
           Y           -0.01236   0.99990   0.00721
           Z            0.00749  -0.00712   0.99995
 This molecule is an asymmetric top.
 Rotational symmetry number  1.
 Warning -- assumption of classical behavior for rotation
           may cause significant error
 Rotational temperatures (Kelvin)      0.03576     0.02018     0.01613
 Rotational constants (GHZ):           0.74510     0.42049     0.33617
 Zero-point vibrational energy     834994.2 (Joules/Mol)
                                  199.56841 (Kcal/Mol)
 Warning -- explicit consideration of  27 degrees of freedom as
           vibrations may cause significant error
 Vibrational temperatures:     58.70    90.84   103.07   129.66   163.14
          (Kelvin)            171.09   185.46   224.28   249.78   316.87
                              339.65   355.86   396.85   445.46   458.40
                              518.44   533.39   559.23   603.35   658.30
                              692.02   746.62   763.19   795.72   823.34
                              853.12   878.49   923.91   973.10  1034.88
                             1135.71  1150.54  1173.66  1209.15  1252.78
                             1263.70  1292.04  1321.01  1359.87  1418.45
                             1428.96  1509.26  1525.64  1561.45  1579.33
                             1589.81  1612.39  1629.56  1668.36  1681.06
                             1732.57  1786.64  1820.84  1837.68  1860.45
                             1881.26  1916.00  1937.50  1973.71  1985.86
                             2004.45  2007.30  2018.64  2035.71  2057.81
                             2073.09  2080.12  2126.30  2141.71  2168.00
                             2184.08  2186.12  2190.01  2200.66  2210.79
                             2214.53  2231.52  2235.75  2259.86  2294.85
                             2353.18  2413.33  4275.37  4371.86  4372.01
                             4381.29  4382.67  4397.96  4418.94  4422.62
                             4444.38  4466.48  4470.64  4476.43  4493.83
                             4497.90  4526.00  4528.27  4572.72  5040.19
                             5158.85  5325.83

 Zero-point correction=                           0.318032 (Hartree/Particle)
 Thermal correction to Energy=                    0.334528
 Thermal correction to Enthalpy=                  0.335472
 Thermal correction to Gibbs Free Energy=         0.274461
 Sum of electronic and zero-point Energies=           -725.200977
 Sum of electronic and thermal Energies=              -725.184482
 Sum of electronic and thermal Enthalpies=            -725.183537
 Sum of electronic and thermal Free Energies=         -725.244548

                     E (Thermal)             CV                S
                      KCal/Mol        Cal/Mol-Kelvin    Cal/Mol-Kelvin
 Total                  209.919             63.133            128.408
 Electronic               0.000              0.000              0.000
 Translational            0.889              2.981             42.124
 Rotational               0.889              2.981             32.390
 Vibrational            208.142             57.172             53.895
 Vibration     1          0.594              1.981              5.220
 Vibration     2          0.597              1.972              4.357
 Vibration     3          0.598              1.968              4.108
 Vibration     4          0.602              1.956              3.657
 Vibration     5          0.607              1.938              3.210
 Vibration     6          0.609              1.934              3.118
 Vibration     7          0.611              1.924              2.962
 Vibration     8          0.620              1.896              2.599
 Vibration     9          0.627              1.875              2.396
 Vibration    10          0.647              1.810              1.957
 Vibration    11          0.655              1.786              1.832
 Vibration    12          0.661              1.767              1.749
 Vibration    13          0.677              1.718              1.559
 Vibration    14          0.699              1.655              1.364
 Vibration    15          0.705              1.638              1.317
 Vibration    16          0.735              1.554              1.121
 Vibration    17          0.743              1.532              1.077
 Vibration    18          0.757              1.494              1.005
 Vibration    19          0.782              1.428              0.894
 Vibration    20          0.816              1.344              0.773
 Vibration    21          0.837              1.292              0.707
 Vibration    22          0.874              1.208              0.612
 Vibration    23          0.885              1.183              0.586
 Vibration    24          0.908              1.133              0.538
 Vibration    25          0.928              1.091              0.500
 Vibration    26          0.950              1.047              0.462
 Vibration    27          0.970              1.009              0.432

 Optimization completed.
    -- Stationary point found.
 Normal termination of Gaussian 16 at Fri Dec 11 01:47:39 2020.

 ----------------------------------------------------------------------
 # B3LYP/6-311++G(d,p) empiricaldispersion=gd3bj scf=xqc pop=npa geom=c
 heck
 ----------------------------------------------------------------------

 --------------------------------------
 CID_80791205_JID_6978_Energie_neutraal
 --------------------------------------
 Structure from the checkpoint file:  "JID_6978.chk"
 Charge =  0 Multiplicity = 1

 SCF Done:  E(RB3LYP) =  -725.731747248     A.U. after   15 cycles
 Normal termination of Gaussian 16 at Fri Dec 11 01:53:31 2020.

 ----------------------------------------------------------------------
 # B3LYP/6-311++G(d,p) empiricaldispersion=gd3bj scf=xqc pop=npa geom=c
 heck
 ----------------------------------------------------------------------

 ------------------------------------
 CID_80791205_JID_6978_Energie_kation
 ------------------------------------
 Structure from the checkpoint file:  "JID_6978.chk"
 Charge =  1 Multiplicity = 2

 SCF Done:  E(UB3LYP) =  -725.449265970     A.U. after   23 cycles
 Normal termination of Gaussian 16 at Fri Dec 11 02:05:14 2020.
 Gaussian 16:  ES64L-G16RevA.03 25-Dec-2016

 ----------------------------------------------------------------------
 # B3LYP/6-311++G(d,p) empiricaldispersion=gd3bj scf=xqc pop=npa geom=c
 heck
 ----------------------------------------------------------------------

 -----------------------------------
 CID_80791205_JID_6978_Energie_anion
 -----------------------------------
 Structure from the checkpoint file:  "JID_6978.chk"
 Charge = -1 Multiplicity = 2

                         Standard orientation:
 ---------------------------------------------------------------------
 Center     Atomic      Atomic             Coordinates (Angstroms)
 Number     Number       Type             X           Y           Z
 ---------------------------------------------------------------------
      1          6           0       -2.942366   -1.574983    1.528750
      2          6           0       -1.913793   -2.156310    0.556185
      3          6           0       -1.691776   -1.270689   -0.685762
      4          6           0       -1.103641    0.084132   -0.359005
      5          6           0       -1.899693    1.248870   -0.430161
      6          7           0       -1.463333    2.474268   -0.064774
      7          6           0       -0.225922    2.521733    0.403735
      8          7           0        0.625302    1.509550    0.535891
      9          6           0        0.201762    0.276959    0.150076
     10          7           0        1.114584   -0.752246    0.339479
     11          6           0        1.376036   -1.757003   -0.700953
     12          6           0        1.607801   -1.149716   -2.085448
     13          6           0        2.226139   -0.527223    1.271763
     14          6           0        3.515872    0.018430    0.641344
     15          8           0        3.312215    1.149739   -0.175951
     16          7           0       -3.195392    1.233911   -0.897691
     17          1           0       -2.634153   -0.585620    1.883925
     18          1           0       -3.070225   -2.219709    2.404778
     19          1           0       -3.925832   -1.470465    1.051384
     20          1           0       -0.957144   -2.289131    1.074280
     21          1           0       -2.237873   -3.151325    0.224683
     22          1           0       -1.064724   -1.802417   -1.406487
     23          1           0       -2.646020   -1.144763   -1.207905
     24          1           0        0.141317    3.499747    0.710453
     25          1           0        2.275701   -2.290376   -0.382785
     26          1           0        0.581375   -2.509740   -0.727684
     27          1           0        2.389018   -0.386038   -2.031087
     28          1           0        1.904759   -1.926797   -2.798677
     29          1           0        0.698383   -0.671424   -2.464274
     30          1           0        1.873167    0.157722    2.043838
     31          1           0        2.449698   -1.486149    1.758108
     32          1           0        4.218744    0.230692    1.466519
     33          1           0        3.987500   -0.754547    0.019066
     34          1           0        2.481457    1.572168    0.133469
     35          1           0       -3.692974    2.092412   -0.700078
     36          1           0       -3.740531    0.394273   -0.777392
 ---------------------------------------------------------------------

 SCF Done:  E(UB3LYP) =  -725.722110817     A.U. after   33 cycles
 SCF Done:  E(UB3LYP) =  -725.722110817     a.u. after    1 cycles

 The electronic state is 2-A.
 Alpha  occ. eigenvalues --  -19.01221 -14.23926 -14.22630 -14.20931 -14.20526
 Alpha  occ. eigenvalues --  -10.15758 -10.15387 -10.13804 -10.12352 -10.11195
 Alpha  occ. eigenvalues --  -10.11176 -10.08452 -10.07491 -10.06719 -10.06430
 Alpha  occ. eigenvalues --  -10.05384  -0.92244  -0.89923  -0.86037  -0.82237
 Alpha  occ. eigenvalues --   -0.76190  -0.71380  -0.67256  -0.66574  -0.63373
 Alpha  occ. eigenvalues --   -0.59480  -0.56076  -0.55098  -0.53658  -0.49799
 Alpha  occ. eigenvalues --   -0.48217  -0.46023  -0.44149  -0.40960  -0.40394
 Alpha  occ. eigenvalues --   -0.38031  -0.37213  -0.36453  -0.35963  -0.35363
 Alpha  occ. eigenvalues --   -0.33862  -0.33600  -0.33322  -0.32379  -0.31183
 Alpha  occ. eigenvalues --   -0.30188  -0.29568  -0.28738  -0.27480  -0.26007
 Alpha  occ. eigenvalues --   -0.25542  -0.25080  -0.24910  -0.24181  -0.23462
 Alpha  occ. eigenvalues --   -0.20474  -0.20034  -0.17775  -0.16700  -0.14443
 Alpha  occ. eigenvalues --   -0.12259   0.04171
 Alpha virt. eigenvalues --    0.06014   0.06971   0.07258   0.07746   0.07938
 Alpha virt. eigenvalues --    0.08337   0.08876   0.09156   0.09737   0.10496
 Alpha virt. eigenvalues --    0.10712   0.11779   0.11910   0.12253   0.12377

  Beta  occ. eigenvalues --  -19.01218 -14.23924 -14.22576 -14.20910 -14.20534
  Beta  occ. eigenvalues --  -10.15758 -10.15341 -10.13760 -10.12343 -10.11173
  Beta  occ. eigenvalues --  -10.11166 -10.08440 -10.07472 -10.06708 -10.06402
  Beta  occ. eigenvalues --  -10.05340  -0.92234  -0.89882  -0.86006  -0.82177
  Beta  occ. eigenvalues --   -0.76154  -0.71327  -0.67229  -0.66527  -0.63341
  Beta  occ. eigenvalues --   -0.59407  -0.56029  -0.55046  -0.53593  -0.49734
  Beta  occ. eigenvalues --   -0.48119  -0.45980  -0.44105  -0.40926  -0.40357
  Beta  occ. eigenvalues --   -0.37987  -0.37162  -0.36406  -0.35932  -0.35331
  Beta  occ. eigenvalues --   -0.33832  -0.33546  -0.33289  -0.32294  -0.31137
  Beta  occ. eigenvalues --   -0.30154  -0.29528  -0.28689  -0.27461  -0.25950
  Beta  occ. eigenvalues --   -0.25451  -0.25038  -0.24865  -0.24127  -0.23400
  Beta  occ. eigenvalues --   -0.20404  -0.20003  -0.17766  -0.16682  -0.14340
  Beta  occ. eigenvalues --   -0.12190
  Beta virt. eigenvalues --    0.06393   0.07089   0.07362   0.07571   0.08088
  Beta virt. eigenvalues --    0.08242   0.08691   0.09413   0.09564   0.09952
  Beta virt. eigenvalues --    0.10927   0.11177   0.11975   0.12135   0.12585

 Mulliken charges and spin densities:
               1          2
     1  C    1.475692  -2.189785
     2  C   -0.732328   0.597590
     3  C    0.021347  -0.528191
     4  C    0.650511  -0.352776
     5  C   -0.511554   0.231976
     6  N   -0.093695  -0.043204
     7  C    0.123110  -0.068122
     8  N   -0.231768   0.041361
     9  C   -0.014773  -0.492989
    10  N    0.313486   0.036756
    11  C   -0.134662  -0.066640
    12  C    0.028631  -0.588749
    13  C    0.161636  -0.206937
    14  C   -0.090829  -0.368432
    15  O   -0.266022   0.007165
    16  N   -0.393397   0.119572
    17  H   -0.078471   0.254441
    18  H   -0.321724   0.467745
    19  H   -0.282614   0.434600
    20  H    0.106518   0.033434
    21  H   -0.631130   0.804293
    22  H    0.107310   0.060297
    23  H   -0.388489   0.542995
    24  H    0.164424   0.016211
    25  H   -0.154529   0.316758
    26  H   -0.285081   0.449681
    27  H    0.212069  -0.038679
    28  H   -0.209518   0.359302
    29  H    0.139162   0.001472
    30  H    0.217280  -0.023851
    31  H   -0.271354   0.427647
    32  H    0.038794   0.090575
    33  H    0.120832   0.041383
    34  H    0.286815   0.021769
    35  H   -0.030998   0.318931
    36  H   -0.044680   0.292401
 Sum of Mulliken charges =  -1.00000   1.00000

 Dipole moment (field-independent basis, Debye):
    X=              5.5373    Y=              3.8708    Z=              0.6700  Tot=              6.7893
 Quadrupole moment (field-independent basis, Debye-Ang):
   XX=           -176.8515   YY=           -152.9899   ZZ=           -130.0809
   XY=             -9.5241   XZ=              3.1434   YZ=              2.4972

 Summary of Natural Population Analysis:

                                       Natural Population
                Natural  -----------------------------------------------
    Atom  No    Charge         Core      Valence    Rydberg      Total
 -----------------------------------------------------------------------
      C    1   -0.28587      0.99966     2.28066    0.00555     3.28587
      C    2   -0.18806      0.99963     2.18001    0.00842     3.18806
      C    3   -0.20056      0.99961     2.19026    0.01070     3.20056
      C    4   -0.08542      0.99942     2.07575    0.01024     3.08542
      C    5    0.22097      0.99950     1.76413    0.01541     2.77903
      N    6   -0.28403      0.99968     2.77446    0.00989     3.78403
      C    7    0.16276      0.99966     1.81994    0.01765     2.83724
      N    8   -0.31117      0.99966     2.80024    0.01126     3.81117
      C    9    0.23105      0.99947     1.75443    0.01505     2.76895
      N   10   -0.26053      0.99966     2.74803    0.01284     3.76053
      C   11   -0.08387      0.99961     2.07319    0.01107     3.08387
      C   12   -0.29924      0.99965     2.29428    0.00530     3.29924
      C   13   -0.09769      0.99960     2.08679    0.01129     3.09769
      C   14   -0.01686      0.99960     2.00406    0.01320     3.01686
      O   15   -0.38664      0.99989     3.37981    0.00693     4.38664
      N   16   -0.38766      0.99970     2.87878    0.00918     3.88766
      H   17    0.09602      0.00000     0.40247    0.00151     0.40398
      H   18    0.09966      0.00000     0.39937    0.00096     0.40034
      H   19    0.09715      0.00000     0.40051    0.00234     0.40285
      H   20    0.09650      0.00000     0.40167    0.00182     0.40350
      H   21    0.09848      0.00000     0.39909    0.00243     0.40152
      H   22    0.10592      0.00000     0.39233    0.00176     0.39408
      H   23    0.10135      0.00000     0.39671    0.00194     0.39865
      H   24    0.08026      0.00000     0.41874    0.00100     0.41974
      H   25    0.09723      0.00000     0.40131    0.00146     0.40277
      H   26    0.09721      0.00000     0.40120    0.00160     0.40279
      H   27    0.10971      0.00000     0.38913    0.00116     0.39029
      H   28    0.09948      0.00000     0.39979    0.00074     0.40052
      H   29    0.10041      0.00000     0.39865    0.00094     0.39959
      H   30    0.10621      0.00000     0.39245    0.00135     0.39379
      H   31    0.09831      0.00000     0.40050    0.00119     0.40169
      H   32    0.07431      0.00000     0.42436    0.00133     0.42569
      H   33    0.07908      0.00000     0.41961    0.00131     0.42092
      H   34    0.24606      0.00000     0.25053    0.00341     0.25394
      H   35    0.19311      0.00000     0.30446    0.00243     0.30689
      H   36    0.19637      0.00000     0.30015    0.00348     0.30363
 =======================================================================
   * Total *   -0.00000     15.99400    44.79786    0.20814    61.00000

 Normal termination of Gaussian 16 at Fri Dec 11 02:22:10 2020.
