 Gaussian 16, Revision A.03,

 -----------------------------------------------------------
 # opt freq B3LYP/6-31G(d) empiricaldispersion=gd3bj scf=xqc
 -----------------------------------------------------------

 ------------------------------
 CID_64165606_JID_2725_neutraal
 ------------------------------
 Symbolic Z-matrix:
 Charge =  0 Multiplicity = 1

 SCF Done:  E(RB3LYP) =  -1297.21566386     A.U. after   15 cycles
 SCF Done:  E(RB3LYP) =  -1297.22079165     A.U. after   12 cycles
 SCF Done:  E(RB3LYP) =  -1297.21989690     A.U. after   13 cycles
 SCF Done:  E(RB3LYP) =  -1297.22190773     A.U. after   12 cycles
 SCF Done:  E(RB3LYP) =  -1297.22230275     A.U. after   12 cycles
 SCF Done:  E(RB3LYP) =  -1297.22225046     A.U. after   12 cycles
 SCF Done:  E(RB3LYP) =  -1297.22230721     A.U. after   12 cycles
 SCF Done:  E(RB3LYP) =  -1297.22239873     A.U. after   12 cycles
 SCF Done:  E(RB3LYP) =  -1297.22240705     A.U. after   10 cycles
 SCF Done:  E(RB3LYP) =  -1297.22240958     A.U. after   10 cycles
 SCF Done:  E(RB3LYP) =  -1297.22241035     A.U. after    8 cycles
 SCF Done:  E(RB3LYP) =  -1297.22241076     A.U. after    8 cycles
 SCF Done:  E(RB3LYP) =  -1297.22241087     A.U. after    7 cycles
 Optimization completed.
    -- Stationary point found.
 Normal termination of Gaussian 16 at Wed Dec  9 17:54:57 2020.

 --------------------------------------------------------------------
 #N Geom=AllCheck Guess=TCheck SCRF=Check GenChk RB3LYP/6-31G(d) Freq
 --------------------------------------------------------------------

 Structure from the checkpoint file:  "JID_2725.chk"
 ------------------------------
 CID_64165606_JID_2725_neutraal
 ------------------------------
 Charge =  0 Multiplicity = 1

 SCF Done:  E(RB3LYP) =  -1297.22241087     A.U. after    1 cycles

  Exact polarizability: 139.215  -2.213 107.510   1.894   0.107  97.929
 Approx polarizability: 188.426   2.391 178.028   3.050   2.887 157.964

                      1                      2                      3
                      A                      A                      A
 Frequencies --     32.9411                60.1244                64.7114
 Red. masses --      5.5533                 3.9724                 4.6225
 Frc consts  --      0.0036                 0.0085                 0.0114
 IR Inten    --      2.0845                 1.9389                 2.5423

                      4                      5                      6
                      A                      A                      A
 Frequencies --     95.3344               136.5690               162.2829
 Red. masses --      2.9353                 5.1228                 2.6430
 Frc consts  --      0.0157                 0.0563                 0.0410
 IR Inten    --      5.3546                 0.6555                 1.8581

                      7                      8                      9
                      A                      A                      A
 Frequencies --    169.9385               180.7785               212.1745
 Red. masses --      1.7737                 1.0694                 2.4369
 Frc consts  --      0.0302                 0.0206                 0.0646
 IR Inten    --      2.2483                 1.3193                 7.4041

                     10                     11                     12
                      A                      A                      A
 Frequencies --    232.8466               244.1978               264.2074
 Red. masses --      1.2996                 2.9774                 1.4719
 Frc consts  --      0.0415                 0.1046                 0.0605
 IR Inten    --      1.6091                 3.0796                 1.6626

                     13                     14                     15
                      A                      A                      A
 Frequencies --    273.9880               296.5379               301.0119
 Red. masses --      3.0346                 3.3379                 2.5394
 Frc consts  --      0.1342                 0.1729                 0.1356
 IR Inten    --      1.8455                 1.3243                 2.4928

                     16                     17                     18
                      A                      A                      A
 Frequencies --    331.3286               344.8575               385.6636
 Red. masses --      2.9692                 3.2573                 2.5147
 Frc consts  --      0.1920                 0.2282                 0.2204
 IR Inten    --      8.5031                 0.1896                 0.5819

                     19                     20                     21
                      A                      A                      A
 Frequencies --    442.9921               458.3372               489.3573
 Red. masses --      3.9812                 4.2493                 4.1546
 Frc consts  --      0.4603                 0.5259                 0.5862
 IR Inten    --     23.3809                15.8763                 6.3567

                     22                     23                     24
                      A                      A                      A
 Frequencies --    543.3969               596.0890               642.3419
 Red. masses --      5.5713                 3.7442                 6.3132
 Frc consts  --      0.9693                 0.7839                 1.5347
 IR Inten    --     40.7814                12.1632                 0.1503

                     25                     26                     27
                      A                      A                      A
 Frequencies --    698.9620               729.3204               740.1427
 Red. masses --      4.3772                 4.7070                 6.2185
 Frc consts  --      1.2599                 1.4751                 2.0071
 IR Inten    --      6.9529                 8.0612                46.3228

                     28                     29                     30
                      A                      A                      A
 Frequencies --    804.7570               907.0386               933.0137
 Red. masses --      3.8090                 1.5388                 2.5076
 Frc consts  --      1.4534                 0.7459                 1.2861
 IR Inten    --     30.0500                 1.7425                 5.8803

                     31                     32                     33
                      A                      A                      A
 Frequencies --    979.0765               991.0196              1001.1260
 Red. masses --      1.4248                 1.3666                 1.3697
 Frc consts  --      0.8047                 0.7908                 0.8088
 IR Inten    --      2.0241                27.4094                22.8704

                     34                     35                     36
                      A                      A                      A
 Frequencies --   1003.1907              1021.4959              1042.4019
 Red. masses --      1.1965                 1.4792                 1.3355
 Frc consts  --      0.7095                 0.9094                 0.8550
 IR Inten    --      1.6943                12.2175                 2.7048

                     37                     38                     39
                      A                      A                      A
 Frequencies --   1092.3445              1113.8244              1173.3786
 Red. masses --      2.3533                 3.5919                 1.8560
 Frc consts  --      1.6544                 2.6255                 1.5056
 IR Inten    --    111.3955                69.9844                11.7002

                     40                     41                     42
                      A                      A                      A
 Frequencies --   1208.1398              1220.3386              1253.9693
 Red. masses --      1.5255                 3.3688                 1.3526
 Frc consts  --      1.3119                 2.9558                 1.2531
 IR Inten    --     28.6206                 2.5624                11.6498

                     43                     44                     45
                      A                      A                      A
 Frequencies --   1295.9542              1305.0672              1373.6521
 Red. masses --      3.1802                 8.9932                 1.2028
 Frc consts  --      3.1469                 9.0246                 1.3372
 IR Inten    --     19.4458               225.8013                19.4999

                     46                     47                     48
                      A                      A                      A
 Frequencies --   1393.7444              1423.7517              1446.8092
 Red. masses --      1.1525                 1.2176                 1.2059
 Frc consts  --      1.3191                 1.4542                 1.4873
 IR Inten    --      0.8697                10.9814                10.8373

                     49                     50                     51
                      A                      A                      A
 Frequencies --   1477.8484              1484.8627              1490.2950
 Red. masses --      1.0509                 1.1019                 1.0504
 Frc consts  --      1.3522                 1.4315                 1.3746
 IR Inten    --      6.5588                 8.7133                 7.4480

                     52                     53                     54
                      A                      A                      A
 Frequencies --   1495.5021              1513.5028              1515.6710
 Red. masses --      1.0548                 1.0509                 1.0508
 Frc consts  --      1.3899                 1.4183                 1.4223
 IR Inten    --     11.5244                14.9884                 7.8529

                     55                     56                     57
                      A                      A                      A
 Frequencies --   1521.7550              1536.1332              1548.0672
 Red. masses --      1.0483                 1.0514                 1.0484
 Frc consts  --      1.4303                 1.4618                 1.4803
 IR Inten    --      5.3345                11.2094                23.5099

                     58                     59                     60
                      A                      A                      A
 Frequencies --   1764.5147              3068.7185              3071.0198
 Red. masses --     11.2263                 1.0299                 1.0372
 Frc consts  --     20.5938                 5.7140                 5.7636
 IR Inten    --    104.6263                18.2020                10.3697

                     61                     62                     63
                      A                      A                      A
 Frequencies --   3082.1691              3095.3631              3111.5143
 Red. masses --      1.0344                 1.0295                 1.0622
 Frc consts  --      5.7896                 5.8115                 6.0588
 IR Inten    --      7.1586                 0.6505                 3.4002

                     64                     65                     66
                      A                      A                      A
 Frequencies --   3137.9170              3154.8550              3159.7650
 Red. masses --      1.1009                 1.1066                 1.1035
 Frc consts  --      6.3870                 6.4891                 6.4910
 IR Inten    --      8.0031                 8.3407                 8.2190

                     67                     68                     69
                      A                      A                      A
 Frequencies --   3160.9561              3167.4252              3173.3509
 Red. masses --      1.1038                 1.1059                 1.1023
 Frc consts  --      6.4981                 6.5369                 6.5401
 IR Inten    --      5.1663                 4.0057                 5.4649

                     70                     71                     72
                      A                      A                      A
 Frequencies --   3189.5069              3194.3442              3211.6507
 Red. masses --      1.1040                 1.1057                 1.1081
 Frc consts  --      6.6173                 6.6474                 6.7344
 IR Inten    --      0.3474                 0.8607                 0.6978

 - Thermochemistry -
 -------------------
 Temperature   298.150 Kelvin.  Pressure   1.00000 Atm.
 Atom     1 has atomic number  6 and mass  12.00000

 Molecular mass:   210.03844 amu.
 Principal axes and moments of inertia in atomic units:
                           1         2         3
     Eigenvalues --  1305.172104097.968754225.56733
           X            0.99997  -0.00151  -0.00702
           Y            0.00109   0.99822  -0.05961
           Z            0.00710   0.05960   0.99820
 This molecule is an asymmetric top.
 Rotational symmetry number  1.
 Warning -- assumption of classical behavior for rotation
           may cause significant error
 Rotational temperatures (Kelvin)      0.06636     0.02114     0.02050
 Rotational constants (GHZ):           1.38276     0.44040     0.42710
 Zero-point vibrational energy     552921.4 (Joules/Mol)
                                  132.15138 (Kcal/Mol)
 Warning -- explicit consideration of  23 degrees of freedom as
           vibrations may cause significant error
 Vibrational temperatures:     47.39    86.51    93.11   137.16   196.49
          (Kelvin)            233.49   244.50   260.10   305.27   335.01
                              351.35   380.14   394.21   426.65   433.09
                              476.71   496.17   554.88   637.37   659.45
                              704.08   781.83   857.64   924.19  1005.65
                             1049.33  1064.90  1157.87  1305.03  1342.40
                             1408.67  1425.86  1440.40  1443.37  1469.70
                             1499.78  1571.64  1602.54  1688.23  1738.24
                             1755.80  1804.18  1864.59  1877.70  1976.38
                             2005.29  2048.46  2081.64  2126.29  2136.39
                             2144.20  2151.69  2177.59  2180.71  2189.47
                             2210.15  2227.32  2538.74  4415.20  4418.51
                             4434.55  4453.54  4476.78  4514.76  4539.13
                             4546.20  4547.91  4557.22  4565.74  4588.99
                             4595.95  4620.85

 Zero-point correction=                           0.210597 (Hartree/Particle)
 Thermal correction to Energy=                    0.225704
 Thermal correction to Enthalpy=                  0.226648
 Thermal correction to Gibbs Free Energy=         0.168347
 Sum of electronic and zero-point Energies=          -1297.011814
 Sum of electronic and thermal Energies=             -1296.996707
 Sum of electronic and thermal Enthalpies=           -1296.995763
 Sum of electronic and thermal Free Energies=        -1297.054064

                     E (Thermal)             CV                S
                      KCal/Mol        Cal/Mol-Kelvin    Cal/Mol-Kelvin
 Total                  141.631             54.328            122.705
 Electronic               0.000              0.000              0.000
 Translational            0.889              2.981             41.930
 Rotational               0.889              2.981             31.492
 Vibrational            139.854             48.366             49.284
 Vibration     1          0.594              1.983              5.644
 Vibration     2          0.597              1.973              4.453
 Vibration     3          0.597              1.971              4.308
 Vibration     4          0.603              1.953              3.548
 Vibration     5          0.614              1.917              2.851
 Vibration     6          0.622              1.889              2.523
 Vibration     7          0.625              1.879              2.436
 Vibration     8          0.630              1.866              2.320
 Vibration     9          0.643              1.822              2.025
 Vibration    10          0.654              1.791              1.857
 Vibration    11          0.660              1.772              1.772
 Vibration    12          0.671              1.739              1.634
 Vibration    13          0.676              1.721              1.571
 Vibration    14          0.690              1.680              1.436
 Vibration    15          0.693              1.672              1.411
 Vibration    16          0.714              1.613              1.254
 Vibration    17          0.723              1.586              1.190
 Vibration    18          0.754              1.501              1.017
 Vibration    19          0.803              1.376              0.817
 Vibration    20          0.816              1.342              0.771
 Vibration    21          0.845              1.274              0.685
 Vibration    22          0.899              1.154              0.558
 Vibration    23          0.954              1.040              0.456

 Optimization completed.
    -- Stationary point found.
 Normal termination of Gaussian 16 at Wed Dec  9 18:02:08 2020.

 ----------------------------------------------------------------------
 # B3LYP/6-311++G(d,p) empiricaldispersion=gd3bj scf=xqc pop=npa geom=c
 heck
 ----------------------------------------------------------------------

 --------------------------------------
 CID_64165606_JID_2725_Energie_neutraal
 --------------------------------------
 Structure from the checkpoint file:  "JID_2725.chk"
 Charge =  0 Multiplicity = 1

 SCF Done:  E(RB3LYP) =  -1297.42651728     A.U. after   15 cycles
 Normal termination of Gaussian 16 at Wed Dec  9 18:05:44 2020.

 ----------------------------------------------------------------------
 # B3LYP/6-311++G(d,p) empiricaldispersion=gd3bj scf=xqc pop=npa geom=c
 heck
 ----------------------------------------------------------------------

 ------------------------------------
 CID_64165606_JID_2725_Energie_kation
 ------------------------------------
 Structure from the checkpoint file:  "JID_2725.chk"
 Charge =  1 Multiplicity = 2

 SCF Done:  E(UB3LYP) =  -1297.10697122     A.U. after   23 cycles
 Normal termination of Gaussian 16 at Wed Dec  9 18:13:38 2020.
 Gaussian 16:  ES64L-G16RevA.03 25-Dec-2016

 ----------------------------------------------------------------------
 # B3LYP/6-311++G(d,p) empiricaldispersion=gd3bj scf=xqc pop=npa geom=c
 heck
 ----------------------------------------------------------------------

 -----------------------------------
 CID_64165606_JID_2725_Energie_anion
 -----------------------------------
 Structure from the checkpoint file:  "JID_2725.chk"
 Charge = -1 Multiplicity = 2

                         Standard orientation:
 ---------------------------------------------------------------------
 Center     Atomic      Atomic             Coordinates (Angstroms)
 Number     Number       Type             X           Y           Z
 ---------------------------------------------------------------------
      1          6           0       -0.219879   -1.841147    0.621406
      2          6           0       -0.465136   -0.327425    0.650518
      3          6           0       -0.706951    0.163919    2.078693
      4          6           0        0.595669    0.536326   -0.062891
      5          8           0        0.700402    1.720400    0.220137
      6          6           0        1.504800   -0.081382   -1.097200
      7         16           0        2.986421   -0.742381   -0.222947
      8          6           0        3.793017    0.830521    0.237310
      9         16           0       -2.014080   -0.080830   -0.368229
     10          8           0       -1.610531   -0.245042   -1.778622
     11          8           0       -3.070942   -0.927796    0.207689
     12          6           0       -2.491024    1.644754   -0.127827
     13          1           0        0.720009   -2.064061    1.132301
     14          1           0       -0.168196   -2.234466   -0.396258
     15          1           0       -1.038472   -2.350204    1.135382
     16          1           0        0.140441   -0.139490    2.702435
     17          1           0       -0.780756    1.251335    2.121882
     18          1           0       -1.614233   -0.289867    2.486978
     19          1           0        1.041075   -0.911811   -1.628102
     20          1           0        1.810241    0.685505   -1.812464
     21          1           0        4.121628    1.371399   -0.654375
     22          1           0        3.117412    1.460552    0.820089
     23          1           0        4.664149    0.569078    0.843029
     24          1           0       -2.851699    1.778263    0.892112
     25          1           0       -1.637260    2.290157   -0.333528
     26          1           0       -3.296194    1.821106   -0.844358
 ---------------------------------------------------------------------

 SCF Done:  E(UB3LYP) =  -1297.43430708     A.U. after   28 cycles

 The electronic state is 2-A.
 Alpha  occ. eigenvalues --  -88.90146 -88.70952 -18.98172 -18.98140 -18.92764
 Alpha  occ. eigenvalues --  -10.08483 -10.07953 -10.07087 -10.06634 -10.05880
 Alpha  occ. eigenvalues --  -10.04792 -10.04762  -7.96826  -7.79585  -5.93076
 Alpha  occ. eigenvalues --   -5.92966  -5.92871  -5.75973  -5.75629  -5.74955
 Alpha  occ. eigenvalues --   -0.97273  -0.87449  -0.87007  -0.69669  -0.67059
 Alpha  occ. eigenvalues --   -0.64351  -0.59274  -0.57306  -0.52948  -0.48792
 Alpha  occ. eigenvalues --   -0.45561  -0.40264  -0.36113  -0.35632  -0.34829
 Alpha  occ. eigenvalues --   -0.34122  -0.32132  -0.31532  -0.31209  -0.30225
 Alpha  occ. eigenvalues --   -0.29987  -0.28787  -0.27713  -0.27245  -0.26538
 Alpha  occ. eigenvalues --   -0.25655  -0.23243  -0.22833  -0.22098  -0.19982
 Alpha  occ. eigenvalues --   -0.19172  -0.18623  -0.17488  -0.15432  -0.11405
 Alpha  occ. eigenvalues --   -0.08388   0.04815
 Alpha virt. eigenvalues --    0.08334   0.08561   0.09487   0.10524   0.10827
 Alpha virt. eigenvalues --    0.11978   0.12054   0.12497   0.12947   0.13732
 Alpha virt. eigenvalues --    0.14362   0.15089   0.15657   0.15823   0.16266

  Beta  occ. eigenvalues --  -88.90082 -88.70894 -18.98119 -18.98095 -18.92122
  Beta  occ. eigenvalues --  -10.08488 -10.07906 -10.07085 -10.06054 -10.05912
  Beta  occ. eigenvalues --  -10.04783 -10.04738  -7.96753  -7.79523  -5.93030
  Beta  occ. eigenvalues --   -5.92912  -5.92752  -5.75872  -5.75560  -5.74904
  Beta  occ. eigenvalues --   -0.97125  -0.86989  -0.86134  -0.69406  -0.66870
  Beta  occ. eigenvalues --   -0.64238  -0.59055  -0.57233  -0.52641  -0.48309
  Beta  occ. eigenvalues --   -0.45189  -0.39858  -0.35924  -0.35447  -0.34484
  Beta  occ. eigenvalues --   -0.33972  -0.32009  -0.31232  -0.31129  -0.30126
  Beta  occ. eigenvalues --   -0.29910  -0.28656  -0.27582  -0.27126  -0.26166
  Beta  occ. eigenvalues --   -0.25036  -0.23113  -0.22466  -0.20698  -0.19772
  Beta  occ. eigenvalues --   -0.19076  -0.17584  -0.17081  -0.14855  -0.11096
  Beta  occ. eigenvalues --   -0.07940
  Beta virt. eigenvalues --    0.08092   0.08509   0.09456   0.10238   0.10845
  Beta virt. eigenvalues --    0.11894   0.12023   0.12242   0.12700   0.13192
  Beta virt. eigenvalues --    0.13761   0.14458   0.15031   0.15565   0.15846

 Mulliken charges and spin densities:
               1          2
     1  C   -0.661785  -0.037671
     2  C    0.065008   0.250655
     3  C   -0.050128  -0.401504
     4  C   -0.412538   0.409682
     5  O   -0.347698   0.225489
     6  C   -0.223059  -0.112726
     7  S    0.267618  -0.073188
     8  C   -0.634792  -0.072596
     9  S   -0.032316   0.243621
    10  O   -0.179639   0.013224
    11  O   -0.153707   0.010061
    12  C   -0.161900  -0.442879
    13  H    0.090360   0.047882
    14  H    0.139987   0.016756
    15  H    0.133766   0.026626
    16  H    0.124460   0.002550
    17  H    0.138572   0.048212
    18  H    0.101039   0.069196
    19  H    0.171479   0.029952
    20  H    0.127565   0.103583
    21  H    0.070765   0.068460
    22  H    0.224007  -0.008346
    23  H    0.051407   0.078012
    24  H    0.025973   0.148844
    25  H    0.104590   0.152930
    26  H    0.020966   0.203174
 Sum of Mulliken charges =  -1.00000   1.00000

 Dipole moment (field-independent basis, Debye):
    X=              0.7369    Y=             -0.0315    Z=              2.0638  Tot=              2.1916
 Quadrupole moment (field-independent basis, Debye-Ang):
   XX=           -132.7548   YY=           -109.9394   ZZ=           -105.0821
   XY=             -1.5057   XZ=              0.3572   YZ=             -1.4495

 Summary of Natural Population Analysis:

                                       Natural Population
                Natural  -----------------------------------------------
    Atom  No    Charge         Core      Valence    Rydberg      Total
 -----------------------------------------------------------------------
      C    1   -0.30132      0.99962     2.29421    0.00748     3.30132
      C    2   -0.14075      0.99952     2.12275    0.01848     3.14075
      C    3   -0.29464      0.99962     2.28772    0.00730     3.29464
      C    4    0.33343      0.99958     1.64174    0.02526     2.66657
      O    5   -0.25589      0.99988     3.24880    0.00722     4.25589
      C    6   -0.28123      0.99955     2.27158    0.01010     3.28123
      S    7    0.09200      4.99965     2.88765    0.02071     7.90800
      C    8   -0.35352      0.99962     2.34747    0.00644     3.35352
      S    9    1.03847      4.99921     1.87190    0.09041     6.96153
      O   10   -0.47719      0.99991     3.47142    0.00586     4.47719
      O   11   -0.47746      0.99991     3.47170    0.00586     4.47746
      C   12   -0.39755      0.99961     2.38969    0.00825     3.39755
      H   13    0.10967      0.00000     0.38868    0.00165     0.39033
      H   14    0.10616      0.00000     0.39258    0.00126     0.39384
      H   15    0.10491      0.00000     0.39387    0.00122     0.39509
      H   16    0.10310      0.00000     0.39565    0.00125     0.39690
      H   17    0.11213      0.00000     0.38663    0.00124     0.38787
      H   18    0.10045      0.00000     0.39830    0.00125     0.39955
      H   19    0.11258      0.00000     0.38570    0.00172     0.38742
      H   20    0.10749      0.00000     0.39060    0.00191     0.39251
      H   21    0.09495      0.00000     0.40313    0.00192     0.40505
      H   22    0.11369      0.00000     0.38460    0.00171     0.38631
      H   23    0.09756      0.00000     0.40115    0.00129     0.40244
      H   24    0.11015      0.00000     0.38881    0.00103     0.38985
      H   25    0.13042      0.00000     0.36832    0.00126     0.36958
      H   26    0.11239      0.00000     0.38583    0.00177     0.38761
 =======================================================================
   * Total *    0.00000     19.99567    35.77048    0.23384    56.00000

 Normal termination of Gaussian 16 at Wed Dec  9 18:23:44 2020.
