 Gaussian 16, Revision A.03,

 -----------------------------------------------------------
 # opt freq B3LYP/6-31G(d) empiricaldispersion=gd3bj scf=xqc
 -----------------------------------------------------------

 ------------------------------
 CID_79407737_JID_1770_neutraal
 ------------------------------
 Symbolic Z-matrix:
 Charge =  0 Multiplicity = 1

 SCF Done:  E(RB3LYP) =  -520.323350933     A.U. after   14 cycles
 SCF Done:  E(RB3LYP) =  -520.325662983     A.U. after   12 cycles
 SCF Done:  E(RB3LYP) =  -520.325292163     A.U. after   12 cycles
 SCF Done:  E(RB3LYP) =  -520.325849530     A.U. after   11 cycles
 SCF Done:  E(RB3LYP) =  -520.326379666     A.U. after   12 cycles
 SCF Done:  E(RB3LYP) =  -520.326419565     A.U. after   11 cycles
 SCF Done:  E(RB3LYP) =  -520.326484704     A.U. after   11 cycles
 SCF Done:  E(RB3LYP) =  -520.326568544     A.U. after   12 cycles
 SCF Done:  E(RB3LYP) =  -520.326715481     A.U. after   10 cycles
 SCF Done:  E(RB3LYP) =  -520.326335651     A.U. after   14 cycles
 SCF Done:  E(RB3LYP) =  -520.327172747     A.U. after   13 cycles
 SCF Done:  E(RB3LYP) =  -520.327215407     A.U. after   10 cycles
 SCF Done:  E(RB3LYP) =  -520.327251316     A.U. after   10 cycles
 SCF Done:  E(RB3LYP) =  -520.327255975     A.U. after   11 cycles
 SCF Done:  E(RB3LYP) =  -520.327255546     A.U. after   10 cycles
 SCF Done:  E(RB3LYP) =  -520.327257844     A.U. after   10 cycles
 Optimization completed.
    -- Stationary point found.
 Normal termination of Gaussian 16 at Tue Dec  8 21:29:28 2020.

 --------------------------------------------------------------------
 #N Geom=AllCheck Guess=TCheck SCRF=Check GenChk RB3LYP/6-31G(d) Freq
 --------------------------------------------------------------------

 Structure from the checkpoint file:  "JID_1770.chk"
 ------------------------------
 CID_79407737_JID_1770_neutraal
 ------------------------------
 Charge =  0 Multiplicity = 1

 SCF Done:  E(RB3LYP) =  -520.327257844     A.U. after    1 cycles

  Exact polarizability: 111.746  -0.986  93.004  -3.066   1.957  84.537
 Approx polarizability: 135.253  -1.130 136.479  -4.898   9.267 124.761

                      1                      2                      3
                      A                      A                      A
 Frequencies --     35.2933                66.3117                91.2504
 Red. masses --      4.1029                 3.0736                 3.0236
 Frc consts  --      0.0030                 0.0080                 0.0148
 IR Inten    --      0.7376                 0.6115                 1.7424

                      4                      5                      6
                      A                      A                      A
 Frequencies --    112.7565               145.8685               189.6653
 Red. masses --      2.4635                 1.2326                 2.6376
 Frc consts  --      0.0185                 0.0155                 0.0559
 IR Inten    --      0.5890                 0.0539                 1.1082

                      7                      8                      9
                      A                      A                      A
 Frequencies --    225.0807               233.1949               256.9002
 Red. masses --      3.1286                 2.3770                 1.5657
 Frc consts  --      0.0934                 0.0762                 0.0609
 IR Inten    --      3.6190                 1.2242                 1.8155

                     10                     11                     12
                      A                      A                      A
 Frequencies --    259.1986               267.3349               274.3751
 Red. masses --      1.1661                 1.1958                 1.5141
 Frc consts  --      0.0462                 0.0504                 0.0672
 IR Inten    --      0.1711                 2.1919                 1.1226

                     13                     14                     15
                      A                      A                      A
 Frequencies --    291.8363               316.7334               322.4766
 Red. masses --      1.1488                 2.3875                 2.7320
 Frc consts  --      0.0576                 0.1411                 0.1674
 IR Inten    --      0.4148                 4.1668                 0.0462

                     16                     17                     18
                      A                      A                      A
 Frequencies --    349.4488               436.6571               456.6782
 Red. masses --      3.7632                 2.5090                 3.4747
 Frc consts  --      0.2708                 0.2819                 0.4270
 IR Inten    --     12.9670                 5.3408                11.4097

                     19                     20                     21
                      A                      A                      A
 Frequencies --    540.9138               565.3460               664.8210
 Red. masses --      3.3264                 3.0662                 3.2704
 Frc consts  --      0.5734                 0.5774                 0.8516
 IR Inten    --      4.2214                 1.2158                 1.8876

                     22                     23                     24
                      A                      A                      A
 Frequencies --    779.8348               795.6094               839.9362
 Red. masses --      3.1717                 3.7556                 3.7327
 Frc consts  --      1.1364                 1.4006                 1.5515
 IR Inten    --      6.1696                10.4294                 4.2593

                     25                     26                     27
                      A                      A                      A
 Frequencies --    881.0079               956.9269              1000.3373
 Red. masses --      2.6684                 1.8217                 1.9762
 Frc consts  --      1.2203                 0.9829                 1.1652
 IR Inten    --      7.2381                11.8125                12.1054

                     28                     29                     30
                      A                      A                      A
 Frequencies --   1032.2021              1046.1623              1086.6208
 Red. masses --      2.3478                 1.9914                 1.5977
 Frc consts  --      1.4738                 1.2841                 1.1115
 IR Inten    --     14.6918                 7.8248                13.4192

                     31                     32                     33
                      A                      A                      A
 Frequencies --   1114.4300              1115.1371              1133.5625
 Red. masses --      2.4410                 2.4111                 1.5143
 Frc consts  --      1.7862                 1.7666                 1.1465
 IR Inten    --     67.3800                62.4505                 3.6250

                     34                     35                     36
                      A                      A                      A
 Frequencies --   1137.5562              1153.0420              1186.2501
 Red. masses --      1.5314                 1.9184                 1.2791
 Frc consts  --      1.1676                 1.5028                 1.0605
 IR Inten    --     23.9850                14.6459                 1.0690

                     37                     38                     39
                      A                      A                      A
 Frequencies --   1203.8750              1218.6595              1246.2372
 Red. masses --      1.5111                 1.4822                 2.7215
 Frc consts  --      1.2903                 1.2969                 2.4903
 IR Inten    --      9.7049                 2.3785                35.0714

                     40                     41                     42
                      A                      A                      A
 Frequencies --   1283.8475              1303.9110              1326.5117
 Red. masses --      3.5567                 1.6228                 2.1344
 Frc consts  --      3.4540                 1.6256                 2.2128
 IR Inten    --    240.3738                48.6976                15.6369

                     43                     44                     45
                      A                      A                      A
 Frequencies --   1355.8019              1388.9618              1429.7672
 Red. masses --      1.2991                 1.4246                 1.2748
 Frc consts  --      1.4070                 1.6193                 1.5354
 IR Inten    --     13.4882                15.0550                 8.9349

                     46                     47                     48
                      A                      A                      A
 Frequencies --   1435.5412              1445.0975              1474.1605
 Red. masses --      1.2635                 1.2281                 1.1522
 Frc consts  --      1.5341                 1.5110                 1.4752
 IR Inten    --     15.8286                 0.9879                 1.1038

                     49                     50                     51
                      A                      A                      A
 Frequencies --   1491.8440              1504.3334              1512.5691
 Red. masses --      1.2012                 1.1186                 1.0482
 Frc consts  --      1.5751                 1.4915                 1.4129
 IR Inten    --      4.3957                 7.1482                 5.8891

                     52                     53                     54
                      A                      A                      A
 Frequencies --   1514.7627              1522.1400              1524.0076
 Red. masses --      1.0988                 1.0487                 1.0458
 Frc consts  --      1.4854                 1.4316                 1.4312
 IR Inten    --      9.8050                 8.3184                10.2101

                     55                     56                     57
                      A                      A                      A
 Frequencies --   1526.0938              1529.1599              1532.3034
 Red. masses --      1.0466                 1.0481                 1.0519
 Frc consts  --      1.4362                 1.4440                 1.4551
 IR Inten    --      7.2470                 6.6689                 6.5182

                     58                     59                     60
                      A                      A                      A
 Frequencies --   1540.7285              1543.9694              1554.7049
 Red. masses --      1.0563                 1.0544                 1.0525
 Frc consts  --      1.4774                 1.4809                 1.4989
 IR Inten    --     15.0567                 4.1837                 4.4688

                     61                     62                     63
                      A                      A                      A
 Frequencies --   1809.2188              2941.8142              2955.0429
 Red. masses --     10.8811                 1.0608                 1.0618
 Frc consts  --     20.9849                 5.4091                 5.4627
 IR Inten    --    186.1430                54.4902               110.0364

                     64                     65                     66
                      A                      A                      A
 Frequencies --   3042.9797              3059.5419              3060.9432
 Red. masses --      1.0842                 1.0358                 1.0352
 Frc consts  --      5.9151                 5.7125                 5.7145
 IR Inten    --     13.8666                29.7667                 9.7274

                     67                     68                     69
                      A                      A                      A
 Frequencies --   3068.8608              3075.8523              3080.0290
 Red. masses --      1.0701                 1.0296                 1.0771
 Frc consts  --      5.9377                 5.7390                 6.0200
 IR Inten    --     45.5059                33.4845                51.6362

                     70                     71                     72
                      A                      A                      A
 Frequencies --   3100.8740              3113.2690              3126.7781
 Red. masses --      1.0858                 1.1036                 1.1031
 Frc consts  --      6.1511                 6.3021                 6.3541
 IR Inten    --      1.8893                35.2504                 6.4318

                     73                     74                     75
                      A                      A                      A
 Frequencies --   3128.4420              3132.9702              3138.3902
 Red. masses --      1.1021                 1.1022                 1.1015
 Frc consts  --      6.3554                 6.3740                 6.3924
 IR Inten    --     55.3931                23.1487                24.6596

                     76                     77                     78
                      A                      A                      A
 Frequencies --   3150.3767              3163.0243              3182.3151
 Red. masses --      1.1072                 1.0975                 1.1072
 Frc consts  --      6.4747                 6.4694                 6.6066
 IR Inten    --     21.0478                 0.4456                17.3979

 - Thermochemistry -
 -------------------
 Temperature   298.150 Kelvin.  Pressure   1.00000 Atm.
 Atom     1 has atomic number  6 and mass  12.00000

 Molecular mass:   159.12593 amu.
 Principal axes and moments of inertia in atomic units:
                           1         2         3
     Eigenvalues --  1008.074552612.992942880.71894
           X            0.99997  -0.00771  -0.00151
           Y            0.00763   0.99869  -0.05065
           Z            0.00189   0.05064   0.99872
 This molecule is an asymmetric top.
 Rotational symmetry number  1.
 Warning -- assumption of classical behavior for rotation
           may cause significant error
 Rotational temperatures (Kelvin)      0.08592     0.03315     0.03007
 Rotational constants (GHZ):           1.79029     0.69068     0.62649
 Zero-point vibrational energy     658547.0 (Joules/Mol)
                                  157.39652 (Kcal/Mol)
 Warning -- explicit consideration of  20 degrees of freedom as
           vibrations may cause significant error
 Vibrational temperatures:     50.78    95.41   131.29   162.23   209.87
          (Kelvin)            272.89   323.84   335.52   369.62   372.93
                              384.64   394.76   419.89   455.71   463.97
                              502.78   628.25   657.06   778.25   813.41
                              956.53  1122.01  1144.70  1208.48  1267.57
                             1376.80  1439.26  1485.11  1505.19  1563.41
                             1603.42  1604.43  1630.94  1636.69  1658.97
                             1706.75  1732.11  1753.38  1793.06  1847.17
                             1876.04  1908.55  1950.70  1998.41  2057.12
                             2065.42  2079.17  2120.99  2146.43  2164.40
                             2176.25  2179.41  2190.02  2192.71  2195.71
                             2200.12  2204.64  2216.76  2221.43  2236.87
                             2603.06  4232.61  4251.65  4378.17  4402.00
                             4404.01  4415.41  4425.47  4431.47  4461.47
                             4479.30  4498.74  4501.13  4507.65  4515.44
                             4532.69  4550.89  4578.64

 Zero-point correction=                           0.250827 (Hartree/Particle)
 Thermal correction to Energy=                    0.264301
 Thermal correction to Enthalpy=                  0.265245
 Thermal correction to Gibbs Free Energy=         0.211258
 Sum of electronic and zero-point Energies=           -520.076431
 Sum of electronic and thermal Energies=              -520.062957
 Sum of electronic and thermal Enthalpies=            -520.062013
 Sum of electronic and thermal Free Energies=         -520.116000

                     E (Thermal)             CV                S
                      KCal/Mol        Cal/Mol-Kelvin    Cal/Mol-Kelvin
 Total                  165.851             48.722            113.624
 Electronic               0.000              0.000              0.000
 Translational            0.889              2.981             41.103
 Rotational               0.889              2.981             30.407
 Vibrational            164.074             42.761             42.115
 Vibration     1          0.594              1.982              5.507
 Vibration     2          0.598              1.970              4.260
 Vibration     3          0.602              1.955              3.633
 Vibration     4          0.607              1.939              3.221
 Vibration     5          0.617              1.907              2.725
 Vibration     6          0.633              1.854              2.231
 Vibration     7          0.650              1.803              1.918
 Vibration     8          0.654              1.790              1.854
 Vibration     9          0.666              1.751              1.683
 Vibration    10          0.668              1.747              1.667
 Vibration    11          0.672              1.733              1.613
 Vibration    12          0.677              1.721              1.568
 Vibration    13          0.687              1.689              1.463
 Vibration    14          0.704              1.642              1.327
 Vibration    15          0.707              1.630              1.298
 Vibration    16          0.727              1.576              1.169
 Vibration    17          0.797              1.390              0.837
 Vibration    18          0.815              1.346              0.776
 Vibration    19          0.896              1.160              0.563
 Vibration    20          0.921              1.106              0.513

                           ! Non-Optimized Parameters !
 Normal termination of Gaussian 16 at Tue Dec  8 21:36:49 2020.

 ----------------------------------------------------------------------
 # B3LYP/6-311++G(d,p) empiricaldispersion=gd3bj scf=xqc pop=npa geom=c
 heck
 ----------------------------------------------------------------------

 --------------------------------------
 CID_79407737_JID_1770_Energie_neutraal
 --------------------------------------
 Structure from the checkpoint file:  "JID_1770.chk"
 Charge =  0 Multiplicity = 1

 SCF Done:  E(RB3LYP) =  -520.479940939     A.U. after   14 cycles
 Normal termination of Gaussian 16 at Tue Dec  8 21:40:21 2020.

 ----------------------------------------------------------------------
 # B3LYP/6-311++G(d,p) empiricaldispersion=gd3bj scf=xqc pop=npa geom=c
 heck
 ----------------------------------------------------------------------

 ------------------------------------
 CID_79407737_JID_1770_Energie_kation
 ------------------------------------
 Structure from the checkpoint file:  "JID_1770.chk"
 Charge =  1 Multiplicity = 2

 SCF Done:  E(UB3LYP) =  -520.188151497     A.U. after   21 cycles
 Normal termination of Gaussian 16 at Tue Dec  8 21:47:53 2020.
 Gaussian 16:  ES64L-G16RevA.03 25-Dec-2016

 ----------------------------------------------------------------------
 # B3LYP/6-311++G(d,p) empiricaldispersion=gd3bj scf=xqc pop=npa geom=c
 heck
 ----------------------------------------------------------------------

 -----------------------------------
 CID_79407737_JID_1770_Energie_anion
 -----------------------------------
 Structure from the checkpoint file:  "JID_1770.chk"
 Charge = -1 Multiplicity = 2

                         Standard orientation:
 ---------------------------------------------------------------------
 Center     Atomic      Atomic             Coordinates (Angstroms)
 Number     Number       Type             X           Y           Z
 ---------------------------------------------------------------------
      1          6           0       -0.732239    2.219445   -0.692554
      2          6           0       -0.199873    0.779459   -0.717878
      3          6           0        0.996349    0.614558    0.283318
      4          6           0        0.562231    0.091223    1.664371
      5          7           0        2.106259   -0.117314   -0.343920
      6          6           0        3.384172    0.136924    0.300480
      7          6           0        1.885767   -1.546945   -0.530513
      8          6           0       -1.303805   -0.240748   -0.488421
      9          8           0       -1.346870   -1.352894   -0.974630
     10          8           0       -2.257896    0.217924    0.353459
     11          6           0       -3.306752   -0.713807    0.656330
     12          1           0       -1.051282    2.507102    0.313605
     13          1           0       -1.590004    2.343748   -1.361164
     14          1           0        0.055554    2.907498   -1.016549
     15          1           0        0.203573    0.560554   -1.710230
     16          1           0        1.384067    1.629691    0.432236
     17          1           0        0.168752   -0.928898    1.603731
     18          1           0        1.409369    0.083627    2.357562
     19          1           0       -0.219948    0.725970    2.091750
     20          1           0        3.474889   -0.296553    1.315201
     21          1           0        4.185569   -0.292681   -0.311107
     22          1           0        3.556630    1.216419    0.375501
     23          1           0        1.897315   -2.122673    0.413961
     24          1           0        0.928874   -1.723074   -1.024774
     25          1           0        2.683453   -1.944832   -1.167929
     26          1           0       -3.829121   -1.013402   -0.255646
     27          1           0       -2.897680   -1.605817    1.138238
     28          1           0       -3.980789   -0.186376    1.331609
 ---------------------------------------------------------------------

 SCF Done:  E(UB3LYP) =  -520.463660691     A.U. after   31 cycles

 The electronic state is 2-A.
 Alpha  occ. eigenvalues --  -19.06893 -19.01332 -14.20214 -10.20056 -10.12033
 Alpha  occ. eigenvalues --  -10.10589 -10.08765 -10.08334 -10.07761 -10.06517
 Alpha  occ. eigenvalues --  -10.05470  -1.00976  -0.92110  -0.82275  -0.70965
 Alpha  occ. eigenvalues --   -0.63843  -0.61861  -0.60268  -0.56197  -0.53820
 Alpha  occ. eigenvalues --   -0.47844  -0.45524  -0.39737  -0.39513  -0.38710
 Alpha  occ. eigenvalues --   -0.37532  -0.36356  -0.35100  -0.32751  -0.32165
 Alpha  occ. eigenvalues --   -0.31022  -0.29914  -0.28957  -0.28617  -0.28394
 Alpha  occ. eigenvalues --   -0.27855  -0.26182  -0.26062  -0.25027  -0.24036
 Alpha  occ. eigenvalues --   -0.22836  -0.20844  -0.17841  -0.11347   0.04589
 Alpha virt. eigenvalues --    0.06421   0.07467   0.08215   0.08875   0.09501
 Alpha virt. eigenvalues --    0.09575   0.09828   0.10912   0.11077   0.11522
 Alpha virt. eigenvalues --    0.11946   0.12810   0.13202   0.14015   0.14665

  Beta  occ. eigenvalues --  -19.06886 -19.01325 -14.20211 -10.20055 -10.11984
  Beta  occ. eigenvalues --  -10.10579 -10.08762 -10.08300 -10.07745 -10.06491
  Beta  occ. eigenvalues --  -10.05439  -1.00964  -0.92098  -0.82259  -0.70946
  Beta  occ. eigenvalues --   -0.63799  -0.61803  -0.60226  -0.56141  -0.53763
  Beta  occ. eigenvalues --   -0.47791  -0.45487  -0.39704  -0.39492  -0.38674
  Beta  occ. eigenvalues --   -0.37507  -0.36321  -0.35068  -0.32706  -0.32133
  Beta  occ. eigenvalues --   -0.30986  -0.29883  -0.28924  -0.28586  -0.28362
  Beta  occ. eigenvalues --   -0.27827  -0.26149  -0.26023  -0.24997  -0.24006
  Beta  occ. eigenvalues --   -0.22811  -0.20826  -0.17823  -0.11327
  Beta virt. eigenvalues --    0.06817   0.07559   0.08053   0.08793   0.09312
  Beta virt. eigenvalues --    0.09664   0.10305   0.10443   0.11222   0.11369
  Beta virt. eigenvalues --    0.12146   0.12482   0.13124   0.13472   0.14296

 Mulliken charges and spin densities:
               1          2
     1  C    0.418895  -1.291909
     2  C    0.101083   0.179944
     3  C   -1.117971   0.756851
     4  C    0.874215  -1.595247
     5  N    0.059212   0.126869
     6  C    0.965744  -1.209299
     7  C    0.016259  -0.358734
     8  C   -0.793495   0.547324
     9  O   -0.229052   0.024014
    10  O   -0.096710   0.100051
    11  C    1.128513  -1.324988
    12  H   -0.033570   0.224495
    13  H   -0.237573   0.393941
    14  H   -0.128205   0.274220
    15  H    0.246219   0.012232
    16  H    0.051531   0.159482
    17  H    0.102941   0.081448
    18  H   -0.393076   0.547257
    19  H   -0.031520   0.175130
    20  H   -0.186428   0.301465
    21  H   -0.073732   0.198316
    22  H   -0.492285   0.613976
    23  H   -0.057478   0.173241
    24  H    0.023663   0.127739
    25  H    0.042777   0.101200
    26  H   -0.260719   0.426743
    27  H   -0.253896   0.424170
    28  H   -0.645342   0.810071
 Sum of Mulliken charges =  -1.00000   1.00000

 Dipole moment (field-independent basis, Debye):
    X=              1.2665    Y=             -0.9666    Z=             -2.8583  Tot=              3.2724
 Quadrupole moment (field-independent basis, Debye-Ang):
   XX=           -143.0314   YY=           -108.4371   ZZ=           -107.1881
   XY=             -3.8416   XZ=              1.3776   YZ=             -1.2402

 Summary of Natural Population Analysis:

                                       Natural Population
                Natural  -----------------------------------------------
    Atom  No    Charge         Core      Valence    Rydberg      Total
 -----------------------------------------------------------------------
      C    1   -0.28125      0.99965     2.27549    0.00611     3.28125
      C    2   -0.15895      0.99952     2.14738    0.01204     3.15895
      C    3    0.00597      0.99956     1.97858    0.01588     2.99403
      C    4   -0.30468      0.99964     2.29830    0.00674     3.30468
      N    5   -0.28062      0.99972     2.76826    0.01263     3.78062
      C    6   -0.17590      0.99964     2.16725    0.00901     3.17590
      C    7   -0.18452      0.99963     2.17766    0.00723     3.18452
      C    8    0.41707      0.99964     1.55669    0.02660     2.58293
      O    9   -0.31033      0.99987     3.30493    0.00552     4.31033
      O   10   -0.27961      0.99986     3.26936    0.01040     4.27961
      C   11   -0.10360      0.99959     2.09460    0.00941     3.10360
      H   12    0.10492      0.00000     0.39347    0.00161     0.39508
      H   13    0.10143      0.00000     0.39739    0.00117     0.39857
      H   14    0.09949      0.00000     0.39949    0.00102     0.40051
      H   15    0.11464      0.00000     0.38336    0.00199     0.38536
      H   16    0.09693      0.00000     0.40106    0.00201     0.40307
      H   17    0.09941      0.00000     0.39925    0.00133     0.40059
      H   18    0.10381      0.00000     0.39500    0.00119     0.39619
      H   19    0.10765      0.00000     0.39090    0.00145     0.39235
      H   20    0.08069      0.00000     0.41761    0.00171     0.41931
      H   21    0.09362      0.00000     0.40523    0.00116     0.40638
      H   22    0.09605      0.00000     0.40246    0.00149     0.40395
      H   23    0.07959      0.00000     0.41890    0.00151     0.42041
      H   24    0.10855      0.00000     0.38993    0.00153     0.39145
      H   25    0.09137      0.00000     0.40753    0.00110     0.40863
      H   26    0.09132      0.00000     0.40725    0.00142     0.40868
      H   27    0.09164      0.00000     0.40688    0.00148     0.40836
      H   28    0.09529      0.00000     0.40240    0.00231     0.40471
 =======================================================================
   * Total *   -0.00000     10.99633    32.85660    0.14707    44.00000

 Normal termination of Gaussian 16 at Tue Dec  8 21:57:19 2020.
