 Gaussian 16, Revision A.03,

 -----------------------------------------------------------
 # opt freq B3LYP/6-31G(d) empiricaldispersion=gd3bj scf=xqc
 -----------------------------------------------------------

 --------------------------------
 CID_106421285_JID_10861_neutraal
 --------------------------------
 Symbolic Z-matrix:
 Charge =  0 Multiplicity = 1

 SCF Done:  E(RB3LYP) =  -972.024837110     A.U. after   14 cycles
 SCF Done:  E(RB3LYP) =  -972.033403556     A.U. after   13 cycles
 SCF Done:  E(RB3LYP) =  -972.032383080     A.U. after   14 cycles
 SCF Done:  E(RB3LYP) =  -972.034486311     A.U. after   12 cycles
 SCF Done:  E(RB3LYP) =  -972.035412314     A.U. after   13 cycles
 SCF Done:  E(RB3LYP) =  -972.035756228     A.U. after   12 cycles
 SCF Done:  E(RB3LYP) =  -972.035883340     A.U. after   12 cycles
 SCF Done:  E(RB3LYP) =  -972.035996485     A.U. after   11 cycles
 SCF Done:  E(RB3LYP) =  -972.036061840     A.U. after   11 cycles
 SCF Done:  E(RB3LYP) =  -972.036095483     A.U. after   10 cycles
 SCF Done:  E(RB3LYP) =  -972.036171295     A.U. after    8 cycles
 SCF Done:  E(RB3LYP) =  -972.036171391     A.U. after    7 cycles
 SCF Done:  E(RB3LYP) =  -972.036171409     A.U. after    7 cycles
 SCF Done:  E(RB3LYP) =  -972.036171430     A.U. after    6 cycles
 Optimization completed.
    -- Stationary point found.
 Normal termination of Gaussian 16 at Sat Dec 12 16:42:54 2020.

 --------------------------------------------------------------------
 #N Geom=AllCheck Guess=TCheck SCRF=Check GenChk RB3LYP/6-31G(d) Freq
 --------------------------------------------------------------------

 Structure from the checkpoint file:  "JID_10861.chk"
 --------------------------------
 CID_106421285_JID_10861_neutraal
 --------------------------------
 Charge =  0 Multiplicity = 1

 SCF Done:  E(RB3LYP) =  -972.036171430     A.U. after    1 cycles

  Exact polarizability: 182.177 -11.048 167.098  11.691   4.401 126.507
 Approx polarizability: 240.620 -24.963 249.172  20.442   8.115 204.402

                      1                      2                      3
                      A                      A                      A
 Frequencies --     24.9448                26.6408                35.4012
 Red. masses --      5.5604                 5.2994                 6.5206
 Frc consts  --      0.0020                 0.0022                 0.0048
 IR Inten    --      1.1990                 0.2341                 4.9365

                      4                      5                      6
                      A                      A                      A
 Frequencies --     55.1451                75.2848                85.8329
 Red. masses --      5.8666                 7.8780                 4.8239
 Frc consts  --      0.0105                 0.0263                 0.0209
 IR Inten    --      1.2523                 3.7183                 1.1186

                      7                      8                      9
                      A                      A                      A
 Frequencies --     92.5561               126.3330               141.8625
 Red. masses --      5.5555                 3.9224                 5.5865
 Frc consts  --      0.0280                 0.0369                 0.0662
 IR Inten    --      4.7347                 3.0605                 0.5238

                     10                     11                     12
                      A                      A                      A
 Frequencies --    168.4139               179.0838               193.9546
 Red. masses --      6.2201                 3.5805                 4.1556
 Frc consts  --      0.1039                 0.0677                 0.0921
 IR Inten    --      1.1573                 1.6888                 1.0664

                     13                     14                     15
                      A                      A                      A
 Frequencies --    245.7800               271.1124               283.3424
 Red. masses --      5.3007                 2.2750                 3.3924
 Frc consts  --      0.1887                 0.0985                 0.1605
 IR Inten    --      0.6789                 1.3171                 1.7922

                     16                     17                     18
                      A                      A                      A
 Frequencies --    308.1470               320.3983               332.3489
 Red. masses --      2.8023                 3.5893                 2.5263
 Frc consts  --      0.1568                 0.2171                 0.1644
 IR Inten    --      2.0821                 1.8756                 1.8083

                     19                     20                     21
                      A                      A                      A
 Frequencies --    374.4827               392.0476               430.1496
 Red. masses --      2.6937                 2.0706                 3.1238
 Frc consts  --      0.2226                 0.1875                 0.3405
 IR Inten    --      2.6492                 1.5407                 2.2362

                     22                     23                     24
                      A                      A                      A
 Frequencies --    455.7461               513.3537               531.0615
 Red. masses --      2.8614                 2.7975                 2.3128
 Frc consts  --      0.3502                 0.4344                 0.3843
 IR Inten    --      0.8301                10.8866                18.0366

                     25                     26                     27
                      A                      A                      A
 Frequencies --    558.5691               572.7124               579.7050
 Red. masses --      3.5253                 2.1108                 3.5285
 Frc consts  --      0.6480                 0.4079                 0.6986
 IR Inten    --     12.2051                 2.4283                36.4477

                     28                     29                     30
                      A                      A                      A
 Frequencies --    638.7041               645.6331               660.8895
 Red. masses --      5.0867                 2.8249                 1.4410
 Frc consts  --      1.2226                 0.6938                 0.3708
 IR Inten    --     10.9182                46.5070                74.4212

                     31                     32                     33
                      A                      A                      A
 Frequencies --    712.0639               720.2711               751.9508
 Red. masses --      1.7875                 3.2928                 4.5770
 Frc consts  --      0.5340                 1.0065                 1.5248
 IR Inten    --     68.5445                30.0556                 6.7687

                     34                     35                     36
                      A                      A                      A
 Frequencies --    764.3477               786.9209               804.2299
 Red. masses --      2.2226                 3.1632                 1.5555
 Frc consts  --      0.7651                 1.1541                 0.5928
 IR Inten    --      5.5547                32.9632                 6.0702

                     37                     38                     39
                      A                      A                      A
 Frequencies --    808.7467               815.6031               827.3393
 Red. masses --      1.2828                 2.7054                 2.6240
 Frc consts  --      0.4943                 1.0603                 1.0582
 IR Inten    --     40.8791                64.8100                 9.7952

                     40                     41                     42
                      A                      A                      A
 Frequencies --    865.3780               873.1579               898.4976
 Red. masses --      2.6116                 1.9963                 2.1734
 Frc consts  --      1.1523                 0.8967                 1.0338
 IR Inten    --      4.5721                 1.3280                 1.5764

                     43                     44                     45
                      A                      A                      A
 Frequencies --    904.2411               919.5778               935.3242
 Red. masses --      1.3352                 4.0217                 2.5993
 Frc consts  --      0.6432                 2.0037                 1.3398
 IR Inten    --      2.9077                 9.2569                20.9626

                     46                     47                     48
                      A                      A                      A
 Frequencies --    946.0635               958.0958               987.4007
 Red. masses --      6.4852                 1.4436                 2.3994
 Frc consts  --      3.4199                 0.7808                 1.3783
 IR Inten    --     16.7311                 1.7308                 4.8163

                     49                     50                     51
                      A                      A                      A
 Frequencies --   1000.3339              1018.9362              1038.4763
 Red. masses --      2.3988                 2.6801                 2.2267
 Frc consts  --      1.4143                 1.6394                 1.4148
 IR Inten    --     13.9745                22.5179                11.6790

                     52                     53                     54
                      A                      A                      A
 Frequencies --   1060.2094              1061.0428              1087.9153
 Red. masses --      1.8495                 1.5476                 1.9392
 Frc consts  --      1.2249                 1.0265                 1.3523
 IR Inten    --      1.4827                 1.4400                 1.6603

                     55                     56                     57
                      A                      A                      A
 Frequencies --   1105.5796              1122.3358              1139.1718
 Red. masses --      2.4212                 3.3010                 1.7431
 Frc consts  --      1.7436                 2.4498                 1.3328
 IR Inten    --      0.9567                 2.1789                 9.1795

                     58                     59                     60
                      A                      A                      A
 Frequencies --   1152.3057              1161.8095              1190.0578
 Red. masses --      2.7945                 2.1033                 1.9981
 Frc consts  --      2.1862                 1.6727                 1.6672
 IR Inten    --     54.5615               121.8390                57.7536

                     61                     62                     63
                      A                      A                      A
 Frequencies --   1212.1199              1222.0086              1231.2309
 Red. masses --      1.7663                 1.5016                 1.9141
 Frc consts  --      1.5290                 1.3212                 1.7096
 IR Inten    --     96.6479                42.1710                61.2378

                     64                     65                     66
                      A                      A                      A
 Frequencies --   1250.4682              1286.3219              1299.6803
 Red. masses --      2.1752                 1.5726                 1.6163
 Frc consts  --      2.0040                 1.5331                 1.6086
 IR Inten    --     28.8328                35.2630                 1.5788

                     67                     68                     69
                      A                      A                      A
 Frequencies --   1307.9871              1323.0982              1333.2799
 Red. masses --      1.3206                 1.2117                 1.4617
 Frc consts  --      1.3311                 1.2497                 1.5309
 IR Inten    --     11.3827                 2.4991                14.1446

                     70                     71                     72
                      A                      A                      A
 Frequencies --   1372.4469              1378.6389              1381.1540
 Red. masses --      1.3315                 1.5140                 1.5847
 Frc consts  --      1.4776                 1.6954                 1.7810
 IR Inten    --      2.4753                75.3693                22.6840

                     73                     74                     75
                      A                      A                      A
 Frequencies --   1391.0507              1392.9500              1400.0512
 Red. masses --      1.4062                 2.0317                 2.0414
 Frc consts  --      1.6031                 2.3226                 2.3576
 IR Inten    --      1.1638                40.5680                76.9860

                     76                     77                     78
                      A                      A                      A
 Frequencies --   1403.3034              1416.1488              1425.1225
 Red. masses --      1.4783                 1.5074                 1.6435
 Frc consts  --      1.7152                 1.7811                 1.9667
 IR Inten    --      1.4359                12.9311                36.0729

                     79                     80                     81
                      A                      A                      A
 Frequencies --   1450.9908              1482.6420              1490.1599
 Red. masses --      2.4134                 1.3717                 1.4050
 Frc consts  --      2.9937                 1.7766                 1.8382
 IR Inten    --    179.8288                76.9175                 3.1545

                     82                     83                     84
                      A                      A                      A
 Frequencies --   1508.2649              1514.8056              1521.8126
 Red. masses --      1.0857                 1.0982                 1.0949
 Frc consts  --      1.4552                 1.4847                 1.4940
 IR Inten    --      3.5825                 3.2434                 4.4779

                     85                     86                     87
                      A                      A                      A
 Frequencies --   1522.7073              1524.1131              1529.1047
 Red. masses --      1.1015                 1.0918                 5.4800
 Frc consts  --      1.5047                 1.4943                 7.5493
 IR Inten    --      1.2391                20.0336                16.0129

                     88                     89                     90
                      A                      A                      A
 Frequencies --   1538.2601              1552.2800              1652.9378
 Red. masses --      1.1012                 1.0895                 6.4818
 Frc consts  --      1.5352                 1.5467                10.4341
 IR Inten    --      1.8751                 8.4293                26.4139

                     91                     92                     93
                      A                      A                      A
 Frequencies --   1807.7839              1814.3976              3019.9883
 Red. masses --      6.2557                 9.4404                 1.0747
 Frc consts  --     12.0454                18.3107                 5.7749
 IR Inten    --    513.9805               269.1114                29.2448

                     94                     95                     96
                      A                      A                      A
 Frequencies --   3023.8576              3031.1546              3034.0678
 Red. masses --      1.0687                 1.0665                 1.0664
 Frc consts  --      5.7576                 5.7733                 5.7838
 IR Inten    --     16.8877                27.3926                 3.4137

                     97                     98                     99
                      A                      A                      A
 Frequencies --   3044.2471              3050.6492              3052.7524
 Red. masses --      1.0669                 1.0721                 1.0629
 Frc consts  --      5.8254                 5.8788                 5.8360
 IR Inten    --     50.6412                35.0651                24.5007

                    100                    101                    102
                      A                      A                      A
 Frequencies --   3077.3147              3082.8090              3091.5503
 Red. masses --      1.0946                 1.0988                 1.0970
 Frc consts  --      6.1073                 6.1527                 6.1774
 IR Inten    --     63.6808                47.5925                27.6195

                    103                    104                    105
                      A                      A                      A
 Frequencies --   3098.6735              3116.3024              3155.8482
 Red. masses --      1.1016                 1.0957                 1.0915
 Frc consts  --      6.2319                 6.2692                 6.4047
 IR Inten    --     52.8001                13.8004                14.2269

                    106                    107                    108
                      A                      A                      A
 Frequencies --   3203.1162              3259.6548              3293.2331
 Red. masses --      1.0884                 1.0947                 1.1005
 Frc consts  --      6.5794                 6.8532                 7.0320
 IR Inten    --      1.9701                 4.3953                 0.1227

                    109                    110                    111
                      A                      A                      A
 Frequencies --   3574.2384              3594.4969              3675.6219
 Red. masses --      1.0744                 1.0755                 1.0639
 Frc consts  --      8.0868                 8.1873                 8.4684
 IR Inten    --     17.5126                24.4906                48.4985

 - Thermochemistry -
 -------------------
 Temperature   298.150 Kelvin.  Pressure   1.00000 Atm.
 Atom     1 has atomic number  6 and mass  12.00000

 Molecular mass:   281.13756 amu.
 Principal axes and moments of inertia in atomic units:
                           1         2         3
     Eigenvalues --  3712.112317649.844329660.83424
           X            0.99983   0.01265   0.01331
           Y           -0.01276   0.99988   0.00829
           Z           -0.01321  -0.00846   0.99988
 This molecule is an asymmetric top.
 Rotational symmetry number  1.
 Warning -- assumption of classical behavior for rotation
           may cause significant error
 Rotational temperatures (Kelvin)      0.02333     0.01132     0.00897
 Rotational constants (GHZ):           0.48618     0.23592     0.18681
 Zero-point vibrational energy     862231.9 (Joules/Mol)
                                  206.07837 (Kcal/Mol)
 Warning -- explicit consideration of  27 degrees of freedom as
           vibrations may cause significant error
 Vibrational temperatures:     35.89    38.33    50.93    79.34   108.32
          (Kelvin)            123.49   133.17   181.77   204.11   242.31
                              257.66   279.06   353.62   390.07   407.67
                              443.35   460.98   478.18   538.80   564.07
                              618.89   655.72   738.60   764.08   803.66
                              824.01   834.07   918.95   928.92   950.87
                             1024.50  1036.31  1081.89  1099.73  1132.20
                             1157.11  1163.61  1173.47  1190.36  1245.09
                             1256.28  1292.74  1301.00  1323.07  1345.72
                             1361.17  1378.49  1420.65  1439.26  1466.02
                             1494.14  1525.40  1526.60  1565.27  1590.68
                             1614.79  1639.01  1657.91  1671.58  1712.23
                             1743.97  1758.20  1771.47  1799.14  1850.73
                             1869.95  1881.90  1903.64  1918.29  1974.64
                             1983.55  1987.17  2001.41  2004.14  2014.36
                             2019.04  2037.52  2050.43  2087.65  2133.19
                             2144.01  2170.06  2179.47  2189.55  2190.84
                             2192.86  2200.04  2213.21  2233.38  2378.21
                             2601.00  2610.51  4345.09  4350.66  4361.16
                             4365.35  4379.99  4389.20  4392.23  4427.57
                             4435.47  4448.05  4458.30  4483.66  4540.56
                             4608.57  4689.92  4738.23  5142.53  5171.68
                             5288.40

 Zero-point correction=                           0.328407 (Hartree/Particle)
 Thermal correction to Energy=                    0.347021
 Thermal correction to Enthalpy=                  0.347965
 Thermal correction to Gibbs Free Energy=         0.279445
 Sum of electronic and zero-point Energies=           -971.707765
 Sum of electronic and thermal Energies=              -971.689151
 Sum of electronic and thermal Enthalpies=            -971.688206
 Sum of electronic and thermal Free Energies=         -971.756726

                     E (Thermal)             CV                S
                      KCal/Mol        Cal/Mol-Kelvin    Cal/Mol-Kelvin
 Total                  217.759             70.825            144.212
 Electronic               0.000              0.000              0.000
 Translational            0.889              2.981             42.799
 Rotational               0.889              2.981             33.972
 Vibrational            215.981             64.863             67.441
 Vibration     1          0.593              1.985              6.196
 Vibration     2          0.593              1.984              6.065
 Vibration     3          0.594              1.982              5.501
 Vibration     4          0.596              1.976              4.624
 Vibration     5          0.599              1.965              4.010
 Vibration     6          0.601              1.959              3.753
 Vibration     7          0.602              1.954              3.605
 Vibration     8          0.611              1.927              3.001
 Vibration     9          0.615              1.911              2.779
 Vibration    10          0.625              1.881              2.453
 Vibration    11          0.629              1.868              2.338
 Vibration    12          0.635              1.848              2.190
 Vibration    13          0.660              1.770              1.761
 Vibration    14          0.675              1.726              1.589
 Vibration    15          0.682              1.705              1.513
 Vibration    16          0.698              1.658              1.372
 Vibration    17          0.706              1.635              1.308
 Vibration    18          0.714              1.611              1.249
 Vibration    19          0.746              1.524              1.061
 Vibration    20          0.759              1.487              0.992
 Vibration    21          0.791              1.405              0.858
 Vibration    22          0.814              1.348              0.779
 Vibration    23          0.868              1.220              0.626
 Vibration    24          0.886              1.181              0.585
 Vibration    25          0.914              1.121              0.527
 Vibration    26          0.929              1.090              0.499
 Vibration    27          0.936              1.075              0.486

 Optimization completed.
    -- Stationary point found.
 Normal termination of Gaussian 16 at Sat Dec 12 17:04:29 2020.

 ----------------------------------------------------------------------
 # B3LYP/6-311++G(d,p) empiricaldispersion=gd3bj scf=xqc pop=npa geom=c
 heck
 ----------------------------------------------------------------------

 ----------------------------------------
 CID_106421285_JID_10861_Energie_neutraal
 ----------------------------------------
 Structure from the checkpoint file:  "JID_10861.chk"
 Charge =  0 Multiplicity = 1

 SCF Done:  E(RB3LYP) =  -972.323137436     A.U. after   15 cycles
 Normal termination of Gaussian 16 at Sat Dec 12 17:12:49 2020.

 ----------------------------------------------------------------------
 # B3LYP/6-311++G(d,p) empiricaldispersion=gd3bj scf=xqc pop=npa geom=c
 heck
 ----------------------------------------------------------------------

 --------------------------------------
 CID_106421285_JID_10861_Energie_kation
 --------------------------------------
 Structure from the checkpoint file:  "JID_10861.chk"
 Charge =  1 Multiplicity = 2

 SCF Done:  E(UB3LYP) =  -971.994520353     A.U. after   33 cycles
 SCF Done:  E(UB3LYP) =  -971.997483103     a.u. after   12 cycles
 Normal termination of Gaussian 16 at Sat Dec 12 20:59:45 2020.
 Gaussian 16:  ES64L-G16RevA.03 25-Dec-2016

 ----------------------------------------------------------------------
 # B3LYP/6-311++G(d,p) empiricaldispersion=gd3bj scf=xqc pop=npa geom=c
 heck
 ----------------------------------------------------------------------

 -------------------------------------
 CID_106421285_JID_10861_Energie_anion
 -------------------------------------
 Structure from the checkpoint file:  "JID_10861.chk"
 Charge = -1 Multiplicity = 2

                         Standard orientation:
 ---------------------------------------------------------------------
 Center     Atomic      Atomic             Coordinates (Angstroms)
 Number     Number       Type             X           Y           Z
 ---------------------------------------------------------------------
      1          6           0       -4.199333   -1.478081   -0.618039
      2          6           0       -2.916821   -2.200702   -0.188819
      3          6           0       -1.668024   -1.467096   -0.688818
      4          6           0       -1.623307    0.010007   -0.232164
      5          6           0       -2.938053    0.723557   -0.613614
      6          6           0       -4.195585   -0.020577   -0.141556
      7          6           0       -0.409454    0.678996   -0.920472
      8          7           0       -0.079681    1.981086   -0.333375
      9          6           0        1.173265    2.572581   -0.490053
     10          8           0        1.300212    3.752266   -0.790950
     11          7           0        2.276025    1.752124   -0.285154
     12          6           0        2.374291    0.754405    0.780702
     13          6           0        2.992204   -0.528756    0.321665
     14          6           0        4.130147   -1.192454    0.671531
     15          6           0        4.103012   -2.360775   -0.140014
     16          7           0        3.047882   -2.405431   -0.918462
     17          8           0        2.334989   -1.235174   -0.623310
     18          6           0       -1.325830    0.049503    1.265712
     19          8           0       -0.449391   -0.598084    1.804807
     20          8           0       -2.101259    0.906058    1.966209
     21          1           0       -5.081460   -2.001384   -0.229686
     22          1           0       -4.275557   -1.502605   -1.715015
     23          1           0       -2.882594   -2.270011    0.907878
     24          1           0       -2.911570   -3.230744   -0.564287
     25          1           0       -1.655177   -1.477014   -1.787312
     26          1           0       -0.757369   -1.969308   -0.349801
     27          1           0       -2.958251    0.792222   -1.710260
     28          1           0       -2.943828    1.748497   -0.228027
     29          1           0       -5.085875    0.503628   -0.509444
     30          1           0       -4.244522    0.007856    0.953377
     31          1           0        0.454698    0.024621   -0.838466
     32          1           0       -0.636914    0.775252   -1.992369
     33          1           0       -0.781931    2.691449   -0.508416
     34          1           0        3.124418    2.280771   -0.447132
     35          1           0        2.978117    1.138487    1.612814
     36          1           0        1.377947    0.552964    1.177375
     37          1           0        4.872898   -0.896863    1.396822
     38          1           0        4.819430   -3.171311   -0.185842
     39          1           0       -1.777514    0.864856    2.886318
 ---------------------------------------------------------------------

 SCF Done:  E(UB3LYP) =  -972.315379984     A.U. after   33 cycles
 SCF Done:  E(UB3LYP) =  -972.315379984     a.u. after    1 cycles

 The electronic state is 2-A.
 Alpha  occ. eigenvalues --  -19.10741 -19.08261 -19.02685 -18.99807 -14.26085
 Alpha  occ. eigenvalues --  -14.24270 -14.24183 -10.21923 -10.20761 -10.14356
 Alpha  occ. eigenvalues --  -10.12909 -10.12354 -10.11425 -10.11363 -10.08614
 Alpha  occ. eigenvalues --  -10.08483 -10.08425 -10.08161 -10.08039 -10.07806
 Alpha  occ. eigenvalues --   -1.04537  -1.02463  -0.96226  -0.93252  -0.84650
 Alpha  occ. eigenvalues --   -0.82229  -0.77461  -0.76080  -0.70952  -0.69139
 Alpha  occ. eigenvalues --   -0.66232  -0.62443  -0.59908  -0.57385  -0.53722
 Alpha  occ. eigenvalues --   -0.52839  -0.51427  -0.50277  -0.48944  -0.47035
 Alpha  occ. eigenvalues --   -0.43648  -0.42860  -0.41468  -0.40734  -0.40535
 Alpha  occ. eigenvalues --   -0.39185  -0.37948  -0.37376  -0.36453  -0.35738
 Alpha  occ. eigenvalues --   -0.35408  -0.35171  -0.34603  -0.33720  -0.33359
 Alpha  occ. eigenvalues --   -0.32216  -0.30699  -0.30479  -0.29931  -0.29581
 Alpha  occ. eigenvalues --   -0.29048  -0.28421  -0.27303  -0.26265  -0.24285
 Alpha  occ. eigenvalues --   -0.23709  -0.22551  -0.22048  -0.21726  -0.21129
 Alpha  occ. eigenvalues --   -0.19851  -0.19371  -0.17669  -0.16774  -0.16206
 Alpha  occ. eigenvalues --    0.03858
 Alpha virt. eigenvalues --    0.05375   0.06103   0.06279   0.07140   0.07428
 Alpha virt. eigenvalues --    0.07597   0.07838   0.08898   0.09366   0.09860
 Alpha virt. eigenvalues --    0.10066   0.10415   0.10933   0.11508   0.11614

  Beta  occ. eigenvalues --  -19.10646 -19.08216 -19.02672 -18.99804 -14.25946
  Beta  occ. eigenvalues --  -14.24238 -14.24167 -10.21921 -10.20757 -10.14259
  Beta  occ. eigenvalues --  -10.12897 -10.12348 -10.11420 -10.11344 -10.08602
  Beta  occ. eigenvalues --  -10.08477 -10.08423 -10.08152 -10.08025 -10.07789
  Beta  occ. eigenvalues --   -1.04359  -1.02408  -0.96217  -0.93207  -0.84622
  Beta  occ. eigenvalues --   -0.82185  -0.77283  -0.76060  -0.70809  -0.69113
  Beta  occ. eigenvalues --   -0.66209  -0.62364  -0.59881  -0.57322  -0.53687
  Beta  occ. eigenvalues --   -0.52775  -0.51373  -0.50228  -0.48783  -0.46978
  Beta  occ. eigenvalues --   -0.43565  -0.42807  -0.41414  -0.40707  -0.40502
  Beta  occ. eigenvalues --   -0.39101  -0.37921  -0.37059  -0.36412  -0.35645
  Beta  occ. eigenvalues --   -0.35369  -0.35123  -0.34553  -0.33686  -0.33319
  Beta  occ. eigenvalues --   -0.32181  -0.30671  -0.30408  -0.29899  -0.29532
  Beta  occ. eigenvalues --   -0.29015  -0.28394  -0.27273  -0.26242  -0.24255
  Beta  occ. eigenvalues --   -0.23677  -0.22526  -0.22016  -0.21552  -0.20728
  Beta  occ. eigenvalues --   -0.19812  -0.19325  -0.17490  -0.16548  -0.16027
  Beta virt. eigenvalues --    0.05832   0.06395   0.06944   0.07116   0.07465
  Beta virt. eigenvalues --    0.07630   0.07937   0.08235   0.09184   0.09695
  Beta virt. eigenvalues --    0.10060   0.10253   0.10713   0.11047   0.11575

 Mulliken charges and spin densities:
               1          2
     1  C    0.234361  -0.762480
     2  C   -0.512327   0.217777
     3  C   -0.047858  -0.335881
     4  C    1.151031  -0.097740
     5  C    0.376932  -0.441259
     6  C   -0.276945  -0.107269
     7  C   -0.933196  -0.130640
     8  N   -0.153269   0.046042
     9  C    0.313009  -0.122021
    10  O   -0.336978   0.001106
    11  N    0.007999  -0.129716
    12  C   -0.054256  -1.159627
    13  C    0.043430   0.516968
    14  C   -0.052965   0.015325
    15  C    0.035593  -0.288828
    16  N   -0.255493   0.098361
    17  O    0.224620   0.011300
    18  C   -0.603799  -0.154974
    19  O   -0.176861   0.009852
    20  O   -0.128193   0.082645
    21  H   -0.264819   0.435969
    22  H    0.106465   0.006597
    23  H    0.036630   0.133699
    24  H    0.069882   0.110876
    25  H    0.107043   0.041756
    26  H    0.241974  -0.040833
    27  H   -0.011650   0.164684
    28  H    0.079478   0.101888
    29  H   -0.296706   0.467354
    30  H    0.129159   0.040325
    31  H    0.205950   0.086962
    32  H    0.147454   0.019040
    33  H    0.302988   0.009633
    34  H    0.235976   0.087725
    35  H   -0.494068   0.707157
    36  H    0.447560  -0.184553
    37  H   -0.518603   0.698418
    38  H   -0.019739   0.195945
    39  H   -0.359811   0.648412
 Sum of Mulliken charges =  -1.00000   1.00000

 Dipole moment (field-independent basis, Debye):
    X=             -0.7262    Y=             -1.8043    Z=             -3.4230  Tot=              3.9369
 Quadrupole moment (field-independent basis, Debye-Ang):
   XX=           -196.6680   YY=           -173.5940   ZZ=           -158.1712
   XY=             -2.6479   XZ=              0.7078   YZ=             -1.4659

 Summary of Natural Population Analysis:

                                       Natural Population
                Natural  -----------------------------------------------
    Atom  No    Charge         Core      Valence    Rydberg      Total
 -----------------------------------------------------------------------
      C    1   -0.18979      0.99963     2.18191    0.00825     3.18979
      C    2   -0.19162      0.99963     2.18358    0.00842     3.19162
      C    3   -0.18762      0.99960     2.17961    0.00842     3.18762
      C    4   -0.08130      0.99950     2.06832    0.01349     3.08130
      C    5   -0.19261      0.99960     2.18219    0.01082     3.19261
      C    6   -0.19183      0.99962     2.18376    0.00845     3.19183
      C    7   -0.08583      0.99955     2.07454    0.01174     3.08583
      N    8   -0.33935      0.99967     2.83061    0.00907     3.83935
      C    9    0.41259      0.99970     1.56523    0.02248     2.58741
      O   10   -0.33269      0.99987     3.32747    0.00534     4.33269
      N   11   -0.32819      0.99967     2.81956    0.00896     3.82819
      C   12   -0.12218      0.99955     2.11121    0.01143     3.12218
      C   13    0.18733      0.99949     1.79808    0.01510     2.81267
      C   14   -0.17641      0.99949     2.16866    0.00826     3.17641
      C   15   -0.00813      0.99966     1.99325    0.01522     3.00813
      N   16   -0.06253      0.99971     2.55072    0.01210     3.56253
      O   17   -0.16367      0.99985     3.15488    0.00894     4.16367
      C   18    0.42107      0.99962     1.55109    0.02822     2.57893
      O   19   -0.31392      0.99987     3.30778    0.00627     4.31392
      O   20   -0.34111      0.99987     3.33385    0.00738     4.34111
      H   21    0.09998      0.00000     0.39905    0.00097     0.40002
      H   22    0.09053      0.00000     0.40840    0.00107     0.40947
      H   23    0.09711      0.00000     0.40169    0.00119     0.40289
      H   24    0.09968      0.00000     0.39957    0.00075     0.40032
      H   25    0.09619      0.00000     0.40269    0.00112     0.40381
      H   26    0.11584      0.00000     0.38296    0.00120     0.38416
      H   27    0.09592      0.00000     0.40289    0.00119     0.40408
      H   28    0.10724      0.00000     0.39139    0.00137     0.39276
      H   29    0.09944      0.00000     0.39953    0.00103     0.40056
      H   30    0.10159      0.00000     0.39672    0.00168     0.39841
      H   31    0.11725      0.00000     0.37986    0.00288     0.38275
      H   32    0.09027      0.00000     0.40870    0.00102     0.40973
      H   33    0.19270      0.00000     0.30490    0.00240     0.30730
      H   34    0.19454      0.00000     0.30347    0.00199     0.30546
      H   35    0.10386      0.00000     0.39447    0.00168     0.39614
      H   36    0.12588      0.00000     0.37137    0.00274     0.37412
      H   37    0.11448      0.00000     0.38413    0.00139     0.38552
      H   38    0.10069      0.00000     0.39844    0.00087     0.39931
      H   39    0.24460      0.00000     0.24603    0.00937     0.25540
 =======================================================================
   * Total *    0.00000     19.99314    54.74256    0.26430    75.00000

 Normal termination of Gaussian 16 at Sat Dec 12 21:23:16 2020.
