 Gaussian 16, Revision A.03,

 -----------------------------------------------------------
 # opt freq B3LYP/6-31G(d) empiricaldispersion=gd3bj scf=xqc
 -----------------------------------------------------------

 -------------------------------
 CID_129925065_JID_1843_neutraal
 -------------------------------
 Symbolic Z-matrix:
 Charge =  0 Multiplicity = 1

 SCF Done:  E(RB3LYP) =  -500.654216452     A.U. after   14 cycles
 SCF Done:  E(RB3LYP) =  -500.657590681     A.U. after   12 cycles
 SCF Done:  E(RB3LYP) =  -500.656334769     A.U. after   13 cycles
 SCF Done:  E(RB3LYP) =  -500.657880191     A.U. after   12 cycles
 SCF Done:  E(RB3LYP) =  -500.658056497     A.U. after   10 cycles
 SCF Done:  E(RB3LYP) =  -500.658066983     A.U. after    9 cycles
 SCF Done:  E(RB3LYP) =  -500.658072409     A.U. after   10 cycles
 SCF Done:  E(RB3LYP) =  -500.658076731     A.U. after   10 cycles
 SCF Done:  E(RB3LYP) =  -500.658077398     A.U. after    8 cycles
 SCF Done:  E(RB3LYP) =  -500.658077570     A.U. after    7 cycles
 Optimization completed.
    -- Stationary point found.

 1\1\GINC-NODE100\FOpt\RB3LYP\6-31G(d)\C9H12O2\VSC10255\08-Dec-2020\0\\
 # opt freq B3LYP/6-31G(d) empiricaldispersion=gd3bj scf=xqc\\CID_12992
 5065_JID_1843_neutraal\\0,1\C,1.0981201475,0.07502457,0.0452802053\C,0
 .6814265118,1.5070175108,-0.0988701052\C,1.4390978245,2.6224944899,0.0
 257481751\C,0.5338017887,3.850880248,-0.1686402276\C,-0.8128862925,3.2
 315718123,-0.4589445371\C,-0.7099303243,1.8957458545,-0.3987752599\C,0
 .4853781456,4.7150362727,1.1133713378\C,1.0103965062,4.6770263424,-1.3
 588152861\O,0.4787994051,4.7450805618,-2.4438538524\O,2.1519109948,5.3

 Normal termination of Gaussian 16 at Tue Dec  8 21:18:05 2020.

 --------------------------------------------------------------------
 #N Geom=AllCheck Guess=TCheck SCRF=Check GenChk RB3LYP/6-31G(d) Freq
 --------------------------------------------------------------------

 Structure from the checkpoint file:  "JID_1843.chk"
 -------------------------------
 CID_129925065_JID_1843_neutraal
 -------------------------------
 Charge =  0 Multiplicity = 1

 SCF Done:  E(RB3LYP) =  -500.658077570     A.U. after    1 cycles

  Exact polarizability: 114.210  -5.817  98.825  -6.036   0.964  71.548
 Approx polarizability: 165.236 -11.476 154.886 -10.245   7.273 106.200

                      1                      2                      3
                      A                      A                      A
 Frequencies --     41.3217                79.8769               111.0001
 Red. masses --      9.3997                 3.5040                 1.2205
 Frc consts  --      0.0095                 0.0132                 0.0089
 IR Inten    --      0.5523                 0.5203                 0.3561

                      4                      5                      6
                      A                      A                      A
 Frequencies --    139.2476               180.0587               214.0714
 Red. masses --      1.3021                 1.6284                 2.9561
 Frc consts  --      0.0149                 0.0311                 0.0798
 IR Inten    --      0.0475                 0.0170                 0.1728

                      7                      8                      9
                      A                      A                      A
 Frequencies --    239.6424               263.2828               278.5771
 Red. masses --      2.7417                 2.2536                 1.2976
 Frc consts  --      0.0928                 0.0920                 0.0593
 IR Inten    --      1.5694                 0.5169                 0.0320

                     10                     11                     12
                      A                      A                      A
 Frequencies --    307.1477               337.3825               387.6469
 Red. masses --      2.5172                 2.7446                 3.6374
 Frc consts  --      0.1399                 0.1841                 0.3220
 IR Inten    --      0.0100                 5.6628                 1.9360

                     13                     14                     15
                      A                      A                      A
 Frequencies --    424.2081               483.6547               552.4040
 Red. masses --      4.7172                 3.5292                 3.0260
 Frc consts  --      0.5001                 0.4864                 0.5441
 IR Inten    --      9.6304                 3.4403                 6.7993

                     16                     17                     18
                      A                      A                      A
 Frequencies --    615.8886               628.4297               633.2187
 Red. masses --      1.6136                 3.5042                 2.4710
 Frc consts  --      0.3606                 0.8154                 0.5837
 IR Inten    --     54.8642                18.2453                12.9141

                     19                     20                     21
                      A                      A                      A
 Frequencies --    682.9447               702.1585               757.9340
 Red. masses --      3.2694                 3.8431                 1.4850
 Frc consts  --      0.8984                 1.1164                 0.5026
 IR Inten    --     10.6398                29.6099                39.8605

                     22                     23                     24
                      A                      A                      A
 Frequencies --    783.7770               886.4271               917.5757
 Red. masses --      4.9926                 2.7780                 2.0656
 Frc consts  --      1.8070                 1.2861                 1.0247
 IR Inten    --     31.0795                 3.0162                 2.1701

                     25                     26                     27
                      A                      A                      A
 Frequencies --    945.3277               966.9512               995.1288
 Red. masses --      1.3307                 1.8980                 1.4305
 Frc consts  --      0.7006                 1.0456                 0.8346
 IR Inten    --      1.2138                 0.0767                 2.8133

                     28                     29                     30
                      A                      A                      A
 Frequencies --   1057.0127              1083.9492              1085.7040
 Red. masses --      1.4967                 1.6010                 1.5072
 Frc consts  --      0.9852                 1.1083                 1.0468
 IR Inten    --      1.1858                 0.0292                 1.0967

                     31                     32                     33
                      A                      A                      A
 Frequencies --   1103.8381              1118.9200              1161.3001
 Red. masses --      2.2253                 2.7369                 2.3979
 Frc consts  --      1.5975                 2.0189                 1.9053
 IR Inten    --      6.1338               167.2810                58.2743

                     34                     35                     36
                      A                      A                      A
 Frequencies --   1184.5646              1224.7203              1244.9125
 Red. masses --      1.9181                 2.0467                 3.2200
 Frc consts  --      1.5858                 1.8088                 2.9402
 IR Inten    --      2.8044                57.3421                19.0860

                     37                     38                     39
                      A                      A                      A
 Frequencies --   1311.4578              1361.3353              1398.6974
 Red. masses --      2.9208                 2.4585                 1.9766
 Frc consts  --      2.9598                 2.6844                 2.2784
 IR Inten    --      3.4076                32.8551                 1.6271

                     40                     41                     42
                      A                      A                      A
 Frequencies --   1431.0958              1441.7982              1454.8924
 Red. masses --      1.2545                 1.4279                 1.2351
 Frc consts  --      1.5138                 1.7489                 1.5403
 IR Inten    --      5.8738                 0.3776                 3.0560

                     43                     44                     45
                      A                      A                      A
 Frequencies --   1505.9786              1512.2065              1515.6672
 Red. masses --      1.0447                 1.0442                 1.0532
 Frc consts  --      1.3960                 1.4068                 1.4255
 IR Inten    --      2.7361                 7.8602                 4.1931

                     46                     47                     48
                      A                      A                      A
 Frequencies --   1520.8378              1523.3359              1533.1571
 Red. masses --      1.0566                 1.0856                 1.0559
 Frc consts  --      1.4398                 1.4843                 1.4623
 IR Inten    --      0.3612                10.1166                 5.9053

                     49                     50                     51
                      A                      A                      A
 Frequencies --   1632.6496              1714.6042              1835.2780
 Red. masses --      6.2714                 6.7779                10.1106
 Frc consts  --      9.8491                11.7402                20.0645
 IR Inten    --      0.5104                 5.0551               266.9612

                     52                     53                     54
                      A                      A                      A
 Frequencies --   3036.5322              3038.9245              3062.8139
 Red. masses --      1.0406                 1.0425                 1.0346
 Frc consts  --      5.6531                 5.6723                 5.7184
 IR Inten    --     42.1539                23.2317                26.2753

                     55                     56                     57
                      A                      A                      A
 Frequencies --   3082.4485              3088.6225              3129.9869
 Red. masses --      1.1002                 1.0932                 1.1002
 Frc consts  --      6.1591                 6.1442                 6.3504
 IR Inten    --     19.8853                20.5567                15.9633

                     58                     59                     60
                      A                      A                      A
 Frequencies --   3133.1395              3138.1325              3151.4471
 Red. masses --      1.1021                 1.0968                 1.1035
 Frc consts  --      6.3745                 6.3636                 6.4574
 IR Inten    --     17.7509                28.9099                15.2011

                     61                     62                     63
                      A                      A                      A
 Frequencies --   3209.9265              3249.9150              3683.9070
 Red. masses --      1.0897                 1.1009                 1.0640
 Frc consts  --      6.6155                 6.8507                 8.5078
 IR Inten    --     15.4643                 6.8848                51.9901

 - Thermochemistry -
 -------------------
 Temperature   298.150 Kelvin.  Pressure   1.00000 Atm.
 Atom     1 has atomic number  6 and mass  12.00000

 Molecular mass:   152.08373 amu.
 Principal axes and moments of inertia in atomic units:
                           1         2         3
     Eigenvalues --  1069.449791965.198382261.58297
           X            0.99953   0.00243  -0.03069
           Y           -0.00342   0.99947  -0.03229
           Z            0.03059   0.03238   0.99901
 This molecule is an asymmetric top.
 Rotational symmetry number  1.
 Warning -- assumption of classical behavior for rotation
           may cause significant error
 Rotational temperatures (Kelvin)      0.08099     0.04407     0.03830
 Rotational constants (GHZ):           1.68754     0.91835     0.79800
 Zero-point vibrational energy     505535.8 (Joules/Mol)
                                  120.82597 (Kcal/Mol)
 Warning -- explicit consideration of  16 degrees of freedom as
           vibrations may cause significant error
 Vibrational temperatures:     59.45   114.93   159.70   200.35   259.06
          (Kelvin)            308.00   344.79   378.81   400.81   441.92
                              485.42   557.74   610.34   695.87   794.79
                              886.13   904.17   911.06   982.61  1010.25
                             1090.50  1127.68  1275.37  1320.19  1360.12
                             1391.23  1431.77  1520.81  1559.56  1562.09
                             1588.18  1609.88  1670.85  1704.32  1762.10
                             1791.15  1886.90  1958.66  2012.41  2059.03
                             2074.43  2093.27  2166.77  2175.73  2180.71
                             2188.15  2191.74  2205.87  2349.02  2466.93
                             2640.56  4368.89  4372.33  4406.71  4434.96
                             4443.84  4503.35  4507.89  4515.07  4534.23
                             4618.37  4675.90  5300.32

 Zero-point correction=                           0.192548 (Hartree/Particle)
 Thermal correction to Energy=                    0.204105
 Thermal correction to Enthalpy=                  0.205049
 Thermal correction to Gibbs Free Energy=         0.155297
 Sum of electronic and zero-point Energies=           -500.465529
 Sum of electronic and thermal Energies=              -500.453973
 Sum of electronic and thermal Enthalpies=            -500.453028
 Sum of electronic and thermal Free Energies=         -500.502780

                     E (Thermal)             CV                S
                      KCal/Mol        Cal/Mol-Kelvin    Cal/Mol-Kelvin
 Total                  128.078             42.959            104.712
 Electronic               0.000              0.000              0.000
 Translational            0.889              2.981             40.968
 Rotational               0.889              2.981             29.942
 Vibrational            126.300             36.997             33.802
 Vibration     1          0.594              1.981              5.195
 Vibration     2          0.600              1.963              3.894
 Vibration     3          0.607              1.940              3.251
 Vibration     4          0.615              1.914              2.814
 Vibration     5          0.629              1.867              2.328
 Vibration     6          0.644              1.820              2.009
 Vibration     7          0.657              1.780              1.806
 Vibration     8          0.670              1.740              1.640
 Vibration     9          0.679              1.713              1.542
 Vibration    10          0.697              1.660              1.378
 Vibration    11          0.718              1.601              1.225
 Vibration    12          0.756              1.497              1.009
 Vibration    13          0.786              1.418              0.878
 Vibration    14          0.840              1.286              0.700
 Vibration    15          0.908              1.134              0.539
 Vibration    16          0.975              0.998              0.423

                           ! Non-Optimized Parameters !

 1\1\GINC-NODE100\Freq\RB3LYP\6-31G(d)\C9H12O2\VSC10255\08-Dec-2020\0\\
 #N Geom=AllCheck Guess=TCheck SCRF=Check GenChk RB3LYP/6-31G(d) Freq\\
 CID_129925065_JID_1843_neutraal\\0,1\C,1.0981201475,0.07502457,0.04528
 02053\C,0.6814265118,1.5070175108,-0.0988701052\C,1.4390978245,2.62249
 44899,0.0257481751\C,0.5338017887,3.850880248,-0.1686402276\C,-0.81288
 62925,3.2315718123,-0.4589445371\C,-0.7099303243,1.8957458545,-0.39877
 52599\C,0.4853781456,4.7150362727,1.1133713378\C,1.0103965062,4.677026
 3424,-1.3588152861\O,0.4787994051,4.7450805618,-2.4438538524\O,2.15191

 Normal termination of Gaussian 16 at Tue Dec  8 21:23:34 2020.

 ----------------------------------------------------------------------
 # B3LYP/6-311++G(d,p) empiricaldispersion=gd3bj scf=xqc pop=npa geom=c
 heck
 ----------------------------------------------------------------------

 ---------------------------------------
 CID_129925065_JID_1843_Energie_neutraal
 ---------------------------------------
 Structure from the checkpoint file:  "JID_1843.chk"
 Charge =  0 Multiplicity = 1

 SCF Done:  E(RB3LYP) =  -500.807054589     A.U. after   15 cycles
 Normal termination of Gaussian 16 at Tue Dec  8 21:27:11 2020.

 ----------------------------------------------------------------------
 # B3LYP/6-311++G(d,p) empiricaldispersion=gd3bj scf=xqc pop=npa geom=c
 heck
 ----------------------------------------------------------------------

 -------------------------------------
 CID_129925065_JID_1843_Energie_kation
 -------------------------------------
 Structure from the checkpoint file:  "JID_1843.chk"
 Charge =  1 Multiplicity = 2

 SCF Done:  E(UB3LYP) =  -500.518794540     A.U. after   21 cycles
 Normal termination of Gaussian 16 at Tue Dec  8 21:32:41 2020.
 Gaussian 16:  ES64L-G16RevA.03 25-Dec-2016

 ------------------------------------
 CID_129925065_JID_1843_Energie_anion
 ------------------------------------
 Structure from the checkpoint file:  "JID_1843.chk"
 Charge = -1 Multiplicity = 2

                         Standard orientation:
 ---------------------------------------------------------------------
 Center     Atomic      Atomic             Coordinates (Angstroms)
 Number     Number       Type             X           Y           Z
 ---------------------------------------------------------------------
      1          6           0        3.137928    0.316968   -0.537027
      2          6           0        1.758892   -0.131622   -0.160140
      3          6           0        0.656547    0.623940    0.058596
      4          6           0       -0.499180   -0.306279    0.465128
      5          6           0        0.132035   -1.676471    0.390759
      6          6           0        1.422781   -1.553095    0.048114
      7          6           0       -0.986672    0.005905    1.899546
      8          6           0       -1.647373   -0.191432   -0.532187
      9          8           0       -1.954895   -1.009260   -1.369518
     10          8           0       -2.329078    0.978880   -0.392370
     11          6           0        0.514944    2.110804    0.004993
     12          1           0        3.449323   -0.135254   -1.487744
     13          1           0        3.872695    0.005649    0.217091
     14          1           0        3.207287    1.402563   -0.644811
     15          1           0       -0.420642   -2.587587    0.582422
     16          1           0        2.137585   -2.361685   -0.069679
     17          1           0       -1.392724    1.018452    1.962772
     18          1           0       -1.768539   -0.696839    2.206425
     19          1           0       -0.145037   -0.085812    2.591944
     20          1           0       -3.021026    0.959994   -1.079996
     21          1           0       -0.231046    2.423287   -0.734670
     22          1           0        0.179755    2.516244    0.969347
     23          1           0        1.464744    2.591713   -0.244687
 ---------------------------------------------------------------------

 SCF Done:  E(UB3LYP) =  -500.793694316     A.U. after   33 cycles
 SCF Done:  E(UB3LYP) =  -500.793694316     a.u. after    1 cycles

 The electronic state is 2-A.
 Alpha  occ. eigenvalues --  -19.05038 -18.99734 -10.18815 -10.08340 -10.05987
 Alpha  occ. eigenvalues --  -10.05588 -10.05443 -10.05331 -10.04979 -10.04927
 Alpha  occ. eigenvalues --  -10.04582  -0.99185  -0.90238  -0.75591  -0.66315
 Alpha  occ. eigenvalues --   -0.63686  -0.60365  -0.55140  -0.53626  -0.49799
 Alpha  occ. eigenvalues --   -0.42446  -0.40442  -0.37877  -0.37053  -0.35163
 Alpha  occ. eigenvalues --   -0.33781  -0.31917  -0.31354  -0.30176  -0.29538
 Alpha  occ. eigenvalues --   -0.28440  -0.27527  -0.27290  -0.26892  -0.23930
 Alpha  occ. eigenvalues --   -0.23130  -0.21886  -0.20636  -0.18436  -0.16352
 Alpha  occ. eigenvalues --   -0.09736   0.04940
 Alpha virt. eigenvalues --    0.07197   0.07985   0.08741   0.08881   0.10080
 Alpha virt. eigenvalues --    0.10314   0.10767   0.11625   0.12124   0.12527
 Alpha virt. eigenvalues --    0.12913   0.13716   0.14908   0.16168   0.16236

  Beta  occ. eigenvalues --  -19.04985 -18.99702 -10.18772 -10.08350 -10.05966
  Beta  occ. eigenvalues --  -10.05547 -10.05368 -10.05248 -10.04938 -10.04904
  Beta  occ. eigenvalues --  -10.04490  -0.99092  -0.90155  -0.75448  -0.66206
  Beta  occ. eigenvalues --   -0.63559  -0.60275  -0.55013  -0.53505  -0.49628
  Beta  occ. eigenvalues --   -0.42328  -0.40313  -0.37791  -0.36987  -0.35062
  Beta  occ. eigenvalues --   -0.33668  -0.31842  -0.31256  -0.30102  -0.29464
  Beta  occ. eigenvalues --   -0.28373  -0.27449  -0.27225  -0.26814  -0.23843
  Beta  occ. eigenvalues --   -0.23044  -0.21813  -0.20528  -0.18091  -0.16232
  Beta  occ. eigenvalues --   -0.09285
  Beta virt. eigenvalues --    0.07264   0.08112   0.08761   0.09393   0.09608
  Beta virt. eigenvalues --    0.10457   0.10655   0.11042   0.11918   0.12440
  Beta virt. eigenvalues --    0.13070   0.13177   0.14096   0.15073   0.16228

 Mulliken charges and spin densities:
               1          2
     1  C    0.939849  -1.425671
     2  C   -0.457045   0.688252
     3  C   -1.232543   1.781087
     4  C   -0.518655   0.786467
     5  C   -1.188906   1.208569
     6  C    0.376568  -0.883382
     7  C    1.298835  -2.019568
     8  C    0.617231  -0.855763
     9  O   -0.297800   0.027460
    10  O   -0.199018   0.057886
    11  C    1.264774  -1.921803
    12  H   -0.008065   0.150064
    13  H   -0.128501   0.270271
    14  H   -0.132659   0.255648
    15  H   -0.046615   0.216079
    16  H   -0.030961   0.160079
    17  H   -0.123716   0.288021
    18  H   -0.308729   0.481873
    19  H   -0.082162   0.232280
    20  H   -0.339926   0.645050
    21  H   -0.271879   0.464556
    22  H   -0.028076   0.178117
    23  H   -0.102000   0.214429
 Sum of Mulliken charges =  -1.00000   1.00000

 Dipole moment (field-independent basis, Debye):
    X=              2.8179    Y=             -2.1098    Z=              0.4729  Tot=              3.5518
 Quadrupole moment (field-independent basis, Debye-Ang):
   XX=           -114.6173   YY=            -99.3886   ZZ=            -98.5510
   XY=              1.4458   XZ=             -2.4139   YZ=              1.1414

 Summary of Natural Population Analysis:

                                       Natural Population
                Natural  -----------------------------------------------
    Atom  No    Charge         Core      Valence    Rydberg      Total
 -----------------------------------------------------------------------
      C    1   -0.29158      0.99963     2.28729    0.00466     3.29158
      C    2   -0.02616      0.99940     2.01593    0.01083     3.02616
      C    3    0.01350      0.99942     1.97379    0.01329     2.98650
      C    4   -0.10657      0.99947     2.09240    0.01470     3.10657
      C    5   -0.05762      0.99952     2.04784    0.01025     3.05762
      C    6   -0.09913      0.99948     2.09049    0.00915     3.09913
      C    7   -0.26993      0.99963     2.26269    0.00761     3.26993
      C    8    0.42529      0.99964     1.54837    0.02671     2.57471
      O    9   -0.30609      0.99987     3.30011    0.00611     4.30609
      O   10   -0.34919      0.99988     3.34129    0.00803     4.34919
      C   11   -0.29988      0.99962     2.29405    0.00622     3.29988
      H   12    0.10059      0.00000     0.39824    0.00117     0.39941
      H   13    0.10109      0.00000     0.39742    0.00149     0.39891
      H   14    0.10285      0.00000     0.39612    0.00103     0.39715
      H   15    0.09981      0.00000     0.39932    0.00087     0.40019
      H   16    0.09516      0.00000     0.40404    0.00081     0.40484
      H   17    0.10685      0.00000     0.39153    0.00162     0.39315
      H   18    0.10080      0.00000     0.39775    0.00145     0.39920
      H   19    0.10290      0.00000     0.39587    0.00123     0.39710
      H   20    0.24271      0.00000     0.24216    0.01513     0.25729
      H   21    0.11182      0.00000     0.38597    0.00222     0.38818
      H   22    0.10213      0.00000     0.39664    0.00123     0.39787
      H   23    0.10065      0.00000     0.39832    0.00104     0.39935
 =======================================================================
   * Total *   -0.00000     10.99556    29.85762    0.14682    41.00000

 Normal termination of Gaussian 16 at Tue Dec  8 21:42:22 2020.
