 Gaussian 16, Revision A.03,

 -----------------------------------------------------------
 # opt freq B3LYP/6-31G(d) empiricaldispersion=gd3bj scf=xqc
 -----------------------------------------------------------

 ------------------------------
 CID_91442358_JID_1331_neutraal
 ------------------------------
 Symbolic Z-matrix:
 Charge =  0 Multiplicity = 1

 SCF Done:  E(RB3LYP) =  -446.083804777     A.U. after   12 cycles
 SCF Done:  E(RB3LYP) =  -446.085915061     A.U. after   10 cycles
 SCF Done:  E(RB3LYP) =  -446.086237403     A.U. after   10 cycles
 SCF Done:  E(RB3LYP) =  -446.086451199     A.U. after   10 cycles
 SCF Done:  E(RB3LYP) =  -446.086651533     A.U. after   10 cycles
 SCF Done:  E(RB3LYP) =  -446.086705134     A.U. after   10 cycles
 SCF Done:  E(RB3LYP) =  -446.086875307     A.U. after    9 cycles
 SCF Done:  E(RB3LYP) =  -446.087673648     A.U. after   10 cycles
 SCF Done:  E(RB3LYP) =  -446.088037434     A.U. after   11 cycles
 SCF Done:  E(RB3LYP) =  -446.088139251     A.U. after   10 cycles
 SCF Done:  E(RB3LYP) =  -446.091202057     A.U. after    9 cycles
 SCF Done:  E(RB3LYP) =  -446.091202613     A.U. after    9 cycles
 SCF Done:  E(RB3LYP) =  -446.091203058     A.U. after    7 cycles
 SCF Done:  E(RB3LYP) =  -446.091203157     A.U. after    7 cycles
 SCF Done:  E(RB3LYP) =  -446.091203206     A.U. after    6 cycles
 Optimization completed.
    -- Stationary point found.
 Normal termination of Gaussian 16 at Tue Dec  8 20:18:54 2020.

 --------------------------------------------------------------------
 #N Geom=AllCheck Guess=TCheck SCRF=Check GenChk RB3LYP/6-31G(d) Freq
 --------------------------------------------------------------------

 Structure from the checkpoint file:  "JID_1331.chk"
 ------------------------------
 CID_91442358_JID_1331_neutraal
 ------------------------------
 Charge =  0 Multiplicity = 1

 SCF Done:  E(RB3LYP) =  -446.091203206     A.U. after    1 cycles

  Exact polarizability:  86.111  10.454 116.838  -8.108   1.522 110.004
 Approx polarizability: 114.219  16.819 184.825 -14.938   2.278 180.076

                      1                      2                      3
                      A                      A                      A
 Frequencies --      9.6168                40.5860                47.2015
 Red. masses --      3.3241                 3.6540                 2.8855
 Frc consts  --      0.0002                 0.0035                 0.0038
 IR Inten    --      0.0625                 0.1287                 0.0712

                      4                      5                      6
                      A                      A                      A
 Frequencies --     56.7494                74.2477                85.4593
 Red. masses --      3.4254                 3.1944                 4.4037
 Frc consts  --      0.0065                 0.0104                 0.0189
 IR Inten    --      0.0339                 0.3819                 0.1855

                      7                      8                      9
                      A                      A                      A
 Frequencies --    120.3541               222.2666               236.2631
 Red. masses --      1.8014                 1.0625                 1.1046
 Frc consts  --      0.0154                 0.0309                 0.0363
 IR Inten    --      1.4835                 0.3471                 0.8622

                     10                     11                     12
                      A                      A                      A
 Frequencies --    268.8369               286.4884               368.2230
 Red. masses --      1.2148                 2.2303                 2.1209
 Frc consts  --      0.0517                 0.1079                 0.1694
 IR Inten    --      0.4599                 1.4791                 0.1604

                     13                     14                     15
                      A                      A                      A
 Frequencies --    413.2296               414.1801               452.3263
 Red. masses --      2.9279                 2.9327                 2.2023
 Frc consts  --      0.2946                 0.2964                 0.2655
 IR Inten    --      0.0048                 0.0041                 1.5906

                     16                     17                     18
                      A                      A                      A
 Frequencies --    484.5724               622.8526               623.0262
 Red. masses --      2.4434                 6.0729                 6.0760
 Frc consts  --      0.3380                 1.3881                 1.3896
 IR Inten    --      2.0150                 0.0010                 0.0002

                     19                     20                     21
                      A                      A                      A
 Frequencies --    695.5736               714.9469               746.9781
 Red. masses --      1.0898                 3.9394                 1.8818
 Frc consts  --      0.3107                 1.1864                 0.6186
 IR Inten    --    101.2657                 0.0291                48.0956

                     22                     23                     24
                      A                      A                      A
 Frequencies --    849.9004               866.7186               867.7310
 Red. masses --      1.5550                 1.2549                 1.2525
 Frc consts  --      0.6618                 0.5554                 0.5556
 IR Inten    --     21.2510                 0.2904                 0.5249

                     25                     26                     27
                      A                      A                      A
 Frequencies --    935.8312               936.9958               956.4802
 Red. masses --      1.8403                 1.2445                 1.4355
 Frc consts  --      0.9496                 0.6437                 0.7737
 IR Inten    --      0.7732                 1.4973                 0.1232

                     28                     29                     30
                      A                      A                      A
 Frequencies --    973.4751               975.1277              1009.8605
 Red. masses --      1.3617                 1.3611                 1.2177
 Frc consts  --      0.7603                 0.7625                 0.7317
 IR Inten    --      0.0050                 0.0557                 0.0087

                     31                     32                     33
                      A                      A                      A
 Frequencies --   1023.3641              1023.4077              1069.2500
 Red. masses --      6.0387                 6.4738                 1.6507
 Frc consts  --      3.7261                 3.9949                 1.1119
 IR Inten    --      1.0264                 0.0547                 1.7124

                     34                     35                     36
                      A                      A                      A
 Frequencies --   1070.1933              1074.3703              1126.4430
 Red. masses --      1.6980                 1.2814                 2.3194
 Frc consts  --      1.1458                 0.8715                 1.7340
 IR Inten    --      3.1001                10.4348                 5.8076

                     37                     38                     39
                      A                      A                      A
 Frequencies --   1157.0869              1179.6857              1187.8523
 Red. masses --      2.4452                 1.4902                 1.0769
 Frc consts  --      1.9288                 1.2219                 0.8952
 IR Inten    --     21.2011                 5.1106                 0.0149

                     40                     41                     42
                      A                      A                      A
 Frequencies --   1209.0241              1209.4436              1211.2211
 Red. masses --      1.1411                 1.1406                 1.9928
 Frc consts  --      0.9828                 0.9830                 1.7225
 IR Inten    --      0.2870                 0.2620                29.3323

                     43                     44                     45
                      A                      A                      A
 Frequencies --   1267.7664              1359.0210              1368.4567
 Red. masses --      2.1193                 6.6636                 1.4030
 Frc consts  --      2.0069                 7.2512                 1.5480
 IR Inten    --      5.9521                 0.0466                 4.2806

                     46                     47                     48
                      A                      A                      A
 Frequencies --   1384.0750              1387.7880              1421.8875
 Red. masses --      1.2424                 1.2475                 1.2863
 Frc consts  --      1.4023                 1.4156                 1.5323
 IR Inten    --      6.2708                 0.0004                 8.8479

                     49                     50                     51
                      A                      A                      A
 Frequencies --   1440.1148              1478.9028              1505.6537
 Red. masses --      1.2530                 1.1621                 1.1411
 Frc consts  --      1.5311                 1.4976                 1.5242
 IR Inten    --      9.9291                 1.4041                 8.5432

                     52                     53                     54
                      A                      A                      A
 Frequencies --   1511.5303              1518.3462              1522.9563
 Red. masses --      1.0494                 1.0572                 1.0677
 Frc consts  --      1.4126                 1.4360                 1.4590
 IR Inten    --      4.7840                 0.6917                 6.7125

                     55                     56                     57
                      A                      A                      A
 Frequencies --   1530.8053              1531.4967              1539.9694
 Red. masses --      1.8678                 2.0006                 1.1112
 Frc consts  --      2.5789                 2.7646                 1.5526
 IR Inten    --      8.8833                 7.4858                 0.2903

                     58                     59                     60
                      A                      A                      A
 Frequencies --   1543.0166              1552.0739              1655.3348
 Red. masses --      1.0708                 1.0617                 5.3155
 Frc consts  --      1.5021                 1.5068                 8.5816
 IR Inten    --     10.0143                 4.8821                 0.0178

                     61                     62                     63
                      A                      A                      A
 Frequencies --   1655.6526              2963.2601              3014.2030
 Red. masses --      5.3153                 1.0590                 1.0840
 Frc consts  --      8.5846                 5.4788                 5.8026
 IR Inten    --      0.0060                67.2822                31.0436

                     64                     65                     66
                      A                      A                      A
 Frequencies --   3042.5554              3048.0333              3063.0484
 Red. masses --      1.0364                 1.0365                 1.0743
 Frc consts  --      5.6528                 5.6736                 5.9384
 IR Inten    --     23.3661                20.5060                53.2006

                     67                     68                     69
                      A                      A                      A
 Frequencies --   3105.3420              3109.5969              3112.8292
 Red. masses --      1.1005                 1.1016                 1.1004
 Frc consts  --      6.2527                 6.2758                 6.2819
 IR Inten    --      3.4518                37.2887                77.4802

                     70                     71                     72
                      A                      A                      A
 Frequencies --   3121.3044              3133.1684              3182.5149
 Red. masses --      1.1015                 1.1023                 1.0840
 Frc consts  --      6.3230                 6.3757                 6.4687
 IR Inten    --     42.3158                26.0634                 0.0575

                     73                     74                     75
                      A                      A                      A
 Frequencies --   3191.3749              3192.7601              3206.5404
 Red. masses --      1.0877                 1.0878                 1.0949
 Frc consts  --      6.5269                 6.5330                 6.6327
 IR Inten    --      0.0314                 0.1680                35.2974

                     76                     77                     78
                      A                      A                      A
 Frequencies --   3207.8939              3217.3909              3522.9158
 Red. masses --      1.0949                 1.0992                 1.0727
 Frc consts  --      6.6385                 6.7037                 7.8441
 IR Inten    --     34.7118                 0.5907                13.3498

 - Thermochemistry -
 -------------------
 Temperature   298.150 Kelvin.  Pressure   1.00000 Atm.
 Atom     1 has atomic number  6 and mass  12.00000

 Molecular mass:   151.13610 amu.
 Principal axes and moments of inertia in atomic units:
                           1         2         3
     Eigenvalues --  1258.751302528.871562760.78684
           X            0.99985   0.01394  -0.01068
           Y           -0.01365   0.99955   0.02687
           Z            0.01105  -0.02672   0.99958
 This molecule is an asymmetric top.
 Rotational symmetry number  1.
 Warning -- assumption of classical behavior for rotation
           may cause significant error
 Rotational temperatures (Kelvin)      0.06881     0.03425     0.03137
 Rotational constants (GHZ):           1.43376     0.71365     0.65371
 Zero-point vibrational energy     660978.8 (Joules/Mol)
                                  157.97772 (Kcal/Mol)
 Warning -- explicit consideration of  16 degrees of freedom as
           vibrations may cause significant error
 Vibrational temperatures:     13.84    58.39    67.91    81.65   106.83
          (Kelvin)            122.96   173.16   319.79   339.93   386.80
                              412.19   529.79   594.55   595.91   650.80
                              697.19   896.15   896.40  1000.78  1028.65
                             1074.73  1222.82  1247.01  1248.47  1346.45
                             1348.13  1376.16  1400.61  1402.99  1452.96
                             1472.39  1472.46  1538.41  1539.77  1545.78
                             1620.70  1664.79  1697.30  1709.05  1739.52
                             1740.12  1742.68  1824.03  1955.33  1968.90
                             1991.38  1996.72  2045.78  2072.00  2127.81
                             2166.30  2174.76  2184.56  2191.19  2202.49
                             2203.48  2215.67  2220.06  2233.09  2381.66
                             2382.11  4263.47  4336.77  4377.56  4385.44
                             4407.04  4467.89  4474.02  4478.67  4490.86
                             4507.93  4578.93  4591.68  4593.67  4613.50
                             4615.44  4629.11  5068.69

 Zero-point correction=                           0.251754 (Hartree/Particle)
 Thermal correction to Energy=                    0.265071
 Thermal correction to Enthalpy=                  0.266016
 Thermal correction to Gibbs Free Energy=         0.208878
 Sum of electronic and zero-point Energies=           -445.839450
 Sum of electronic and thermal Energies=              -445.826132
 Sum of electronic and thermal Enthalpies=            -445.825188
 Sum of electronic and thermal Free Energies=         -445.882326

                     E (Thermal)             CV                S
                      KCal/Mol        Cal/Mol-Kelvin    Cal/Mol-Kelvin
 Total                  166.335             47.081            120.257
 Electronic               0.000              0.000              0.000
 Translational            0.889              2.981             40.949
 Rotational               0.889              2.981             30.553
 Vibrational            164.557             41.119             48.755
 Vibration     1          0.593              1.987              8.089
 Vibration     2          0.594              1.981              5.230
 Vibration     3          0.595              1.979              4.931
 Vibration     4          0.596              1.975              4.567
 Vibration     5          0.599              1.966              4.037
 Vibration     6          0.601              1.959              3.761
 Vibration     7          0.609              1.932              3.095
 Vibration     8          0.648              1.807              1.941
 Vibration     9          0.655              1.785              1.831
 Vibration    10          0.673              1.730              1.604
 Vibration    11          0.684              1.699              1.495
 Vibration    12          0.741              1.538              1.087
 Vibration    13          0.777              1.442              0.915
 Vibration    14          0.778              1.439              0.912
 Vibration    15          0.811              1.356              0.789
 Vibration    16          0.841              1.284              0.698

                           ! Non-Optimized Parameters !
 Normal termination of Gaussian 16 at Tue Dec  8 20:26:00 2020.

 ----------------------------------------------------------------------
 # B3LYP/6-311++G(d,p) empiricaldispersion=gd3bj scf=xqc pop=npa geom=c
 heck
 ----------------------------------------------------------------------

 --------------------------------------
 CID_91442358_JID_1331_Energie_neutraal
 --------------------------------------
 Structure from the checkpoint file:  "JID_1331.chk"
 Charge =  0 Multiplicity = 1

 SCF Done:  E(RB3LYP) =  -446.219024693     A.U. after   13 cycles
 Normal termination of Gaussian 16 at Tue Dec  8 20:30:20 2020.

 ----------------------------------------------------------------------
 # B3LYP/6-311++G(d,p) empiricaldispersion=gd3bj scf=xqc pop=npa geom=c
 heck
 ----------------------------------------------------------------------

 ------------------------------------
 CID_91442358_JID_1331_Energie_kation
 ------------------------------------
 Structure from the checkpoint file:  "JID_1331.chk"
 Charge =  1 Multiplicity = 2

 SCF Done:  E(UB3LYP) =  -445.923304500     A.U. after   25 cycles
 Normal termination of Gaussian 16 at Tue Dec  8 20:39:13 2020.
 Gaussian 16:  ES64L-G16RevA.03 25-Dec-2016

 ----------------------------------------------------------------------
 # B3LYP/6-311++G(d,p) empiricaldispersion=gd3bj scf=xqc pop=npa geom=c
 heck
 ----------------------------------------------------------------------

 -----------------------------------
 CID_91442358_JID_1331_Energie_anion
 -----------------------------------
 Structure from the checkpoint file:  "JID_1331.chk"
 Charge = -1 Multiplicity = 2

                         Standard orientation:
 ---------------------------------------------------------------------
 Center     Atomic      Atomic             Coordinates (Angstroms)
 Number     Number       Type             X           Y           Z
 ---------------------------------------------------------------------
      1          6           0       -2.315188   -1.465552   -0.838561
      2          6           0       -2.337039   -0.107151   -0.133939
      3          6           0       -2.201991   -0.280787    1.389736
      4          7           0       -1.320139    0.747221   -0.752732
      5          6           0       -1.280538    2.119042   -0.271824
      6          6           0        1.540240   -1.425262    0.672295
      7          6           0        1.641450   -0.275495    1.458973
      8          6           0        1.982965    0.944173    0.872053
      9          6           0        2.223579    1.014565   -0.501906
     10          6           0        2.120805   -0.134385   -1.289239
     11          6           0        1.779309   -1.354826   -0.701910
     12          1           0       -1.355050   -1.968338   -0.664309
     13          1           0       -2.438964   -1.337152   -1.918018
     14          1           0       -3.109374   -2.120772   -0.463781
     15          1           0       -3.306429    0.372598   -0.336526
     16          1           0       -1.248226   -0.762967    1.634512
     17          1           0       -2.237492    0.680581    1.912889
     18          1           0       -3.011524   -0.905043    1.786683
     19          1           0       -0.404797    0.320142   -0.628250
     20          1           0       -1.049195    2.240373    0.801622
     21          1           0       -0.522786    2.672807   -0.836350
     22          1           0       -2.251124    2.595625   -0.458095
     23          1           0        1.271522   -2.373690    1.128851
     24          1           0        1.449961   -0.329772    2.526812
     25          1           0        2.056075    1.839468    1.482684
     26          1           0        2.484106    1.964561   -0.959680
     27          1           0        2.298244   -0.077295   -2.359178
     28          1           0        1.694479   -2.247603   -1.314814
 ---------------------------------------------------------------------

 SCF Done:  E(UB3LYP) =  -446.202254319     A.U. after   33 cycles
 SCF Done:  E(UB3LYP) =  -446.202254319     a.u. after    1 cycles

 The electronic state is 2-A.
 Alpha  occ. eigenvalues --  -14.18099 -10.09026 -10.07713 -10.07658 -10.07597
 Alpha  occ. eigenvalues --  -10.07583 -10.07521 -10.07471 -10.07431 -10.05054
 Alpha  occ. eigenvalues --  -10.04678  -0.79402  -0.75710  -0.65790  -0.64842
 Alpha  occ. eigenvalues --   -0.64824  -0.57961  -0.54889  -0.50456  -0.50452
 Alpha  occ. eigenvalues --   -0.47490  -0.42588  -0.36836  -0.36212  -0.35744
 Alpha  occ. eigenvalues --   -0.34971  -0.32607  -0.32464  -0.32422  -0.32292
 Alpha  occ. eigenvalues --   -0.28287  -0.28133  -0.27446  -0.26732  -0.24790
 Alpha  occ. eigenvalues --   -0.24707  -0.24697  -0.23371  -0.22488  -0.15842
 Alpha  occ. eigenvalues --   -0.15834  -0.11341   0.04725
 Alpha virt. eigenvalues --    0.07054   0.07276   0.07681   0.08190   0.08243
 Alpha virt. eigenvalues --    0.09164   0.09327   0.09521   0.10223   0.10880
 Alpha virt. eigenvalues --    0.12016   0.12312   0.12731   0.13422   0.14285

  Beta  occ. eigenvalues --  -14.18094 -10.09019 -10.07700 -10.07643 -10.07580
  Beta  occ. eigenvalues --  -10.07566 -10.07503 -10.07453 -10.07410 -10.05037
  Beta  occ. eigenvalues --  -10.04652  -0.79390  -0.75670  -0.65766  -0.64797
  Beta  occ. eigenvalues --   -0.64778  -0.57917  -0.54842  -0.50402  -0.50399
  Beta  occ. eigenvalues --   -0.47455  -0.42502  -0.36794  -0.36146  -0.35727
  Beta  occ. eigenvalues --   -0.34930  -0.32570  -0.32428  -0.32370  -0.32253
  Beta  occ. eigenvalues --   -0.28260  -0.28110  -0.27426  -0.26708  -0.24762
  Beta  occ. eigenvalues --   -0.24654  -0.24647  -0.23347  -0.22456  -0.15826
  Beta  occ. eigenvalues --   -0.15819  -0.11327
  Beta virt. eigenvalues --    0.06993   0.07955   0.08074   0.08195   0.08236
  Beta virt. eigenvalues --    0.08514   0.09690   0.09957   0.10339   0.10694
  Beta virt. eigenvalues --    0.11056   0.12349   0.12764   0.13433   0.13564

 Mulliken charges and spin densities:
               1          2
     1  C    0.251510  -0.828844
     2  C   -1.263019   1.239566
     3  C    0.547452  -1.118703
     4  N    0.019999  -0.026743
     5  C    0.232643  -0.559479
     6  C    0.673794  -0.845199
     7  C    0.305233  -0.458065
     8  C   -0.080663  -0.086716
     9  C    0.380106  -0.610482
    10  C   -0.021746  -0.186395
    11  C   -0.120696  -0.042091
    12  H    0.013763   0.125453
    13  H    0.010482   0.136555
    14  H   -0.121296   0.241056
    15  H    0.034080   0.105970
    16  H    0.106791   0.051540
    17  H   -0.201487   0.334021
    18  H   -0.227769   0.359003
    19  H    0.539030  -0.321077
    20  H    0.044171   0.056369
    21  H   -0.064563   0.204178
    22  H   -0.093692   0.221849
    23  H   -0.371870   0.557345
    24  H   -0.343788   0.521685
    25  H   -0.484034   0.662294
    26  H   -0.293535   0.465121
    27  H   -0.215973   0.377329
    28  H   -0.254925   0.424459
 Sum of Mulliken charges =  -1.00000   1.00000

 Dipole moment (field-independent basis, Debye):
    X=             -1.1264    Y=              0.0135    Z=             -1.6838  Tot=              2.0258
 Quadrupole moment (field-independent basis, Debye-Ang):
   XX=           -116.1969   YY=           -116.2735   ZZ=           -113.7995
   XY=             -3.8839   XZ=              1.6556   YZ=              0.4123

 Summary of Natural Population Analysis:

                                       Natural Population
                Natural  -----------------------------------------------
    Atom  No    Charge         Core      Valence    Rydberg      Total
 -----------------------------------------------------------------------
      C    1   -0.28607      0.99964     2.28039    0.00604     3.28607
      C    2   -0.00939      0.99963     1.99775    0.01202     3.00939
      C    3   -0.29620      0.99965     2.29083    0.00572     3.29620
      N    4   -0.34774      0.99974     2.83598    0.01201     3.84774
      C    5   -0.17868      0.99966     2.17016    0.00887     3.17868
      C    6   -0.10537      0.99956     2.09407    0.01174     3.10537
      C    7   -0.10279      0.99956     2.09155    0.01167     3.10279
      C    8   -0.10262      0.99956     2.09118    0.01188     3.10262
      C    9   -0.11485      0.99959     2.10010    0.01516     3.11485
      C   10   -0.07926      0.99956     2.07362    0.00608     3.07926
      C   11   -0.11585      0.99959     2.10142    0.01483     3.11585
      H   12    0.09873      0.00000     0.39973    0.00154     0.40127
      H   13    0.10130      0.00000     0.39754    0.00116     0.39870
      H   14    0.09582      0.00000     0.40337    0.00081     0.40418
      H   15    0.08370      0.00000     0.41505    0.00124     0.41630
      H   16    0.10014      0.00000     0.39804    0.00181     0.39986
      H   17    0.09926      0.00000     0.39958    0.00116     0.40074
      H   18    0.09686      0.00000     0.40204    0.00110     0.40314
      H   19    0.17672      0.00000     0.31638    0.00690     0.32328
      H   20    0.08067      0.00000     0.41788    0.00145     0.41933
      H   21    0.09548      0.00000     0.40341    0.00111     0.40452
      H   22    0.08690      0.00000     0.41200    0.00110     0.41310
      H   23    0.10478      0.00000     0.39346    0.00176     0.39522
      H   24    0.10533      0.00000     0.39287    0.00181     0.39467
      H   25    0.10524      0.00000     0.39282    0.00194     0.39476
      H   26    0.10408      0.00000     0.39424    0.00168     0.39592
      H   27    0.10016      0.00000     0.39836    0.00149     0.39984
      H   28    0.10367      0.00000     0.39494    0.00139     0.39633
 =======================================================================
   * Total *    0.00002     10.99573    30.85877    0.14549    41.99998

 Normal termination of Gaussian 16 at Tue Dec  8 20:49:55 2020.
