 Gaussian 16, Revision A.03,

 -----------------------------------------------------------
 # opt freq B3LYP/6-31G(d) empiricaldispersion=gd3bj scf=xqc
 -----------------------------------------------------------

 ------------------------------
 CID_66354943_JID_8202_neutraal
 ------------------------------
 Symbolic Z-matrix:
 Charge =  0 Multiplicity = 1

 SCF Done:  E(RB3LYP) =  -1128.48986543     A.U. after   15 cycles
 SCF Done:  E(RB3LYP) =  -1128.49301376     A.U. after   13 cycles
 SCF Done:  E(RB3LYP) =  -1128.48414766     A.U. after   15 cycles
 SCF Done:  E(RB3LYP) =  -1128.49182590     A.U. after   13 cycles
 SCF Done:  E(RB3LYP) =  -1128.49466652     A.U. after   11 cycles
 SCF Done:  E(RB3LYP) =  -1128.49506737     A.U. after   12 cycles
 SCF Done:  E(RB3LYP) =  -1128.49534143     A.U. after   13 cycles
 SCF Done:  E(RB3LYP) =  -1128.49588479     A.U. after   12 cycles
 SCF Done:  E(RB3LYP) =  -1128.49668398     A.U. after   14 cycles
 SCF Done:  E(RB3LYP) =  -1128.49708612     A.U. after   13 cycles
 SCF Done:  E(RB3LYP) =  -1128.49898433     A.U. after    8 cycles
 SCF Done:  E(RB3LYP) =  -1128.49898501     A.U. after    8 cycles
 SCF Done:  E(RB3LYP) =  -1128.49898527     A.U. after    7 cycles
 SCF Done:  E(RB3LYP) =  -1128.49898537     A.U. after    7 cycles
 SCF Done:  E(RB3LYP) =  -1128.49898540     A.U. after    6 cycles
 Optimization completed.
    -- Stationary point found.
 Normal termination of Gaussian 16 at Fri Dec 11 19:43:11 2020.

 --------------------------------------------------------------------
 #N Geom=AllCheck Guess=TCheck SCRF=Check GenChk RB3LYP/6-31G(d) Freq
 --------------------------------------------------------------------

 Structure from the checkpoint file:  "JID_8202.chk"
 ------------------------------
 CID_66354943_JID_8202_neutraal
 ------------------------------
 Charge =  0 Multiplicity = 1

 SCF Done:  E(RB3LYP) =  -1128.49898540     A.U. after    1 cycles

  Exact polarizability: 193.470 -17.928 161.836 -17.164 -10.693 157.167
 Approx polarizability: 267.882 -36.268 255.406 -32.083 -33.424 267.497

                      1                      2                      3
                      A                      A                      A
 Frequencies --     26.7290                32.6585                49.7853
 Red. masses --      4.8301                 4.4837                 2.6987
 Frc consts  --      0.0020                 0.0028                 0.0039
 IR Inten    --      0.7668                 0.0122                 1.4885

                      4                      5                      6
                      A                      A                      A
 Frequencies --     56.3234                77.1467                88.7498
 Red. masses --      2.7018                 3.5266                 4.4898
 Frc consts  --      0.0050                 0.0124                 0.0208
 IR Inten    --      1.5371                 0.4026                 0.5664

                      7                      8                      9
                      A                      A                      A
 Frequencies --     99.3995               130.1523               137.2392
 Red. masses --      6.2857                 2.4961                 4.4418
 Frc consts  --      0.0366                 0.0249                 0.0493
 IR Inten    --      3.4407                 0.7761                 1.2339

                     10                     11                     12
                      A                      A                      A
 Frequencies --    161.1192               179.9809               212.9817
 Red. masses --      3.3696                 4.9497                 2.7417
 Frc consts  --      0.0515                 0.0945                 0.0733
 IR Inten    --      2.2633                 4.0852                14.5614

                     13                     14                     15
                      A                      A                      A
 Frequencies --    218.7781               246.9852               272.9743
 Red. masses --      2.9817                 1.1281                 4.7829
 Frc consts  --      0.0841                 0.0405                 0.2100
 IR Inten    --      1.7332                 0.9533                 3.5710

                     16                     17                     18
                      A                      A                      A
 Frequencies --    286.9526               305.4486               335.3816
 Red. masses --      2.2727                 1.8151                 2.8099
 Frc consts  --      0.1103                 0.0998                 0.1862
 IR Inten    --     11.2419                39.2457                 0.2061

                     19                     20                     21
                      A                      A                      A
 Frequencies --    346.7043               403.8048               422.3747
 Red. masses --      2.5713                 3.2030                 5.3173
 Frc consts  --      0.1821                 0.3077                 0.5589
 IR Inten    --      7.5468                 1.6428                 0.3856

                     22                     23                     24
                      A                      A                      A
 Frequencies --    434.2117               453.1315               462.9644
 Red. masses --      3.3121                 3.8578                 4.0984
 Frc consts  --      0.3679                 0.4667                 0.5176
 IR Inten    --      2.5962                12.9261                 2.5470

                     25                     26                     27
                      A                      A                      A
 Frequencies --    514.5193               526.1626               586.9399
 Red. masses --      3.5117                 4.0050                 3.4588
 Frc consts  --      0.5477                 0.6533                 0.7020
 IR Inten    --      8.6666                 6.3804                 6.8515

                     28                     29                     30
                      A                      A                      A
 Frequencies --    617.1579               632.4965               695.5618
 Red. masses --      4.4571                 3.9829                 5.0597
 Frc consts  --      1.0002                 0.9388                 1.4423
 IR Inten    --     10.4149                 4.0561                12.2948

                     31                     32                     33
                      A                      A                      A
 Frequencies --    706.8747               712.2904               779.5525
 Red. masses --      2.9245                 2.7214                 3.4184
 Frc consts  --      0.8610                 0.8135                 1.2240
 IR Inten    --      8.7147                 5.8819                 5.8556

                     34                     35                     36
                      A                      A                      A
 Frequencies --    792.1447               799.5839               802.9519
 Red. masses --      1.3271                 1.3949                 1.1234
 Frc consts  --      0.4906                 0.5255                 0.4267
 IR Inten    --      5.8599                39.0415                 0.5789

                     37                     38                     39
                      A                      A                      A
 Frequencies --    845.6992               853.3057               869.0051
 Red. masses --      1.2782                 3.4646                 1.3226
 Frc consts  --      0.5386                 1.4863                 0.5885
 IR Inten    --      9.2998                 5.4112                97.0170

                     40                     41                     42
                      A                      A                      A
 Frequencies --    905.1858               910.7997               925.7939
 Red. masses --      2.3544                 1.4082                 1.3682
 Frc consts  --      1.1366                 0.6883                 0.6909
 IR Inten    --      0.8260                22.7833                 2.4512

                     43                     44                     45
                      A                      A                      A
 Frequencies --    931.4822               934.4071               984.6957
 Red. masses --      2.8738                 2.2223                 2.8844
 Frc consts  --      1.4691                 1.1432                 1.6478
 IR Inten    --      3.3592                 7.0591                 0.8420

                     46                     47                     48
                      A                      A                      A
 Frequencies --    988.1239              1012.4692              1021.5884
 Red. masses --      1.2982                 1.8283                 4.9468
 Frc consts  --      0.7468                 1.1042                 3.0418
 IR Inten    --      1.0164                16.0092                 6.5506

                     49                     50                     51
                      A                      A                      A
 Frequencies --   1025.7028              1069.8780              1078.9782
 Red. masses --      2.3392                 1.2977                 2.8441
 Frc consts  --      1.4500                 0.8752                 1.9508
 IR Inten    --      7.1538                12.8643                 3.8651

                     52                     53                     54
                      A                      A                      A
 Frequencies --   1091.3137              1092.1439              1113.6632
 Red. masses --      1.9286                 1.3913                 2.0245
 Frc consts  --      1.3533                 0.9778                 1.4794
 IR Inten    --     21.4424                 1.0322                 2.3686

                     55                     56                     57
                      A                      A                      A
 Frequencies --   1124.0341              1135.6680              1140.8904
 Red. masses --      1.7353                 1.6196                 1.1533
 Frc consts  --      1.2918                 1.2307                 0.8845
 IR Inten    --      6.2891                 3.0229                 2.2055

                     58                     59                     60
                      A                      A                      A
 Frequencies --   1161.1683              1187.5982              1198.8831
 Red. masses --      1.4410                 1.2787                 1.6720
 Frc consts  --      1.1448                 1.0626                 1.4159
 IR Inten    --     16.2774                 7.4796                 4.1648

                     61                     62                     63
                      A                      A                      A
 Frequencies --   1207.4442              1213.8814              1230.6410
 Red. masses --      1.1269                 1.3329                 2.3787
 Frc consts  --      0.9680                 1.1572                 2.1226
 IR Inten    --      0.8260                 0.0796                 3.8737

                     64                     65                     66
                      A                      A                      A
 Frequencies --   1239.3595              1283.0646              1296.9754
 Red. masses --      2.3328                 1.2793                 1.8878
 Frc consts  --      2.1112                 1.2409                 1.8710
 IR Inten    --      4.8748                 8.1014                20.7920

                     67                     68                     69
                      A                      A                      A
 Frequencies --   1305.2519              1339.5726              1348.9111
 Red. masses --      1.5862                 1.6827                 1.3079
 Frc consts  --      1.5921                 1.7791                 1.4021
 IR Inten    --      5.7467               102.6266                 7.3207

                     70                     71                     72
                      A                      A                      A
 Frequencies --   1359.7039              1403.1834              1427.6374
 Red. masses --      3.1568                 1.2847                 1.5092
 Frc consts  --      3.4386                 1.4903                 1.8123
 IR Inten    --      0.4890                12.0991                26.0706

                     73                     74                     75
                      A                      A                      A
 Frequencies --   1432.1512              1439.7361              1443.8768
 Red. masses --      1.5695                 1.4209                 2.3186
 Frc consts  --      1.8967                 1.7353                 2.8480
 IR Inten    --     21.4471                20.9332                88.8822

                     76                     77                     78
                      A                      A                      A
 Frequencies --   1475.3258              1487.0805              1494.3222
 Red. masses --      2.3636                 1.0917                 1.1066
 Frc consts  --      3.0311                 1.4224                 1.4559
 IR Inten    --     21.0574                 0.5769                19.3880

                     79                     80                     81
                      A                      A                      A
 Frequencies --   1508.8579              1522.7218              1525.6068
 Red. masses --      1.0909                 1.0770                 1.8169
 Frc consts  --      1.4633                 1.4713                 2.4915
 IR Inten    --     12.5668                 8.9569                16.3603

                     82                     83                     84
                      A                      A                      A
 Frequencies --   1530.6976              1533.2935              1536.8344
 Red. masses --      1.3651                 1.0549                 1.1990
 Frc consts  --      1.8844                 1.4612                 1.6685
 IR Inten    --      5.5468                 9.6009                 0.9606

                     85                     86                     87
                      A                      A                      A
 Frequencies --   1633.0732              1653.7585              1693.0913
 Red. masses --      5.3681                 5.5682                 1.1020
 Frc consts  --      8.4349                 8.9724                 1.8613
 IR Inten    --      5.6000                12.2502                32.6351

                     88                     89                     90
                      A                      A                      A
 Frequencies --   1750.1559              2962.0384              3038.2675
 Red. masses --      9.6189                 1.0729                 1.0880
 Frc consts  --     17.3593                 5.5461                 5.9174
 IR Inten    --    216.2656                65.1970                27.5421

                     91                     92                     93
                      A                      A                      A
 Frequencies --   3057.0347              3093.3925              3110.4592
 Red. masses --      1.0378                 1.0649                 1.0578
 Frc consts  --      5.7146                 6.0036                 6.0298
 IR Inten    --     18.1635                29.7501                 9.4491

                     94                     95                     96
                      A                      A                      A
 Frequencies --   3116.8005              3150.9145              3154.7663
 Red. masses --      1.1019                 1.0968                 1.0527
 Frc consts  --      6.3071                 6.4161                 6.1728
 IR Inten    --     32.9806                 8.4039                11.6529

                     97                     98                     99
                      A                      A                      A
 Frequencies --   3155.7094              3160.0903              3164.9001
 Red. masses --      1.0782                 1.0668                 1.1022
 Frc consts  --      6.3264                 6.2770                 6.5049
 IR Inten    --     10.1638                 3.3565                15.4854

                    100                    101                    102
                      A                      A                      A
 Frequencies --   3170.6130              3179.6933              3193.6135
 Red. masses --      1.1073                 1.0898                 1.0883
 Frc consts  --      6.5584                 6.4919                 6.5397
 IR Inten    --      3.4903                 7.9160                11.3276

                    103                    104                    105
                      A                      A                      A
 Frequencies --   3223.2508              3233.1903              3234.1127
 Red. masses --      1.0919                 1.1202                 1.0934
 Frc consts  --      6.6838                 6.8994                 6.7382
 IR Inten    --      3.8329                 0.1641                 3.3472

                    106                    107                    108
                      A                      A                      A
 Frequencies --   3246.6987              3469.7586              3558.4953
 Red. masses --      1.1166                 1.0497                 1.0930
 Frc consts  --      6.9345                 7.4456                 8.1545
 IR Inten    --     14.4822                 2.2129                 0.6261

 - Thermochemistry -
 -------------------
 Temperature   298.150 Kelvin.  Pressure   1.00000 Atm.
 Atom     1 has atomic number  6 and mass  12.00000

 Molecular mass:   264.12964 amu.
 Principal axes and moments of inertia in atomic units:
                           1         2         3
     Eigenvalues --  3209.754586760.713637223.86678
           X            0.99999  -0.00146  -0.00448
           Y            0.00130   0.99930  -0.03738
           Z            0.00453   0.03737   0.99929
 This molecule is an asymmetric top.
 Rotational symmetry number  1.
 Warning -- assumption of classical behavior for rotation
           may cause significant error
 Rotational temperatures (Kelvin)      0.02698     0.01281     0.01199
 Rotational constants (GHZ):           0.56227     0.26695     0.24983
 Zero-point vibrational energy     850549.1 (Joules/Mol)
                                  203.28611 (Kcal/Mol)
 Warning -- explicit consideration of  28 degrees of freedom as
           vibrations may cause significant error
 Vibrational temperatures:     38.46    46.99    71.63    81.04   111.00
          (Kelvin)            127.69   143.01   187.26   197.46   231.81
                              258.95   306.43   314.77   355.36   392.75
                              412.86   439.47   482.54   498.83   580.99
                              607.70   624.73   651.96   666.10   740.28
                              757.03   844.48   887.95   910.02  1000.76
                             1017.04  1024.83  1121.60  1139.72  1150.42
                             1155.27  1216.77  1227.72  1250.30  1302.36
                             1310.44  1332.01  1340.20  1344.40  1416.76
                             1421.69  1456.72  1469.84  1475.76  1539.32
                             1552.41  1570.16  1571.35  1602.31  1617.23
                             1633.97  1641.49  1670.66  1708.69  1724.93
                             1737.24  1746.50  1770.62  1783.16  1846.04
                             1866.06  1877.97  1927.35  1940.78  1956.31
                             2018.87  2054.05  2060.55  2071.46  2077.42
                             2122.66  2139.58  2150.00  2170.91  2190.86
                             2195.01  2202.33  2206.07  2211.16  2349.63
                             2379.39  2435.98  2518.08  4261.71  4371.39
                             4398.39  4450.70  4475.26  4484.38  4533.46
                             4539.01  4540.36  4546.67  4553.59  4561.80
                             4574.87  4594.90  4637.54  4651.84  4653.17
                             4671.28  4992.21  5119.88

 Zero-point correction=                           0.323957 (Hartree/Particle)
 Thermal correction to Energy=                    0.342643
 Thermal correction to Enthalpy=                  0.343588
 Thermal correction to Gibbs Free Energy=         0.275767
 Sum of electronic and zero-point Energies=          -1128.175028
 Sum of electronic and thermal Energies=             -1128.156342
 Sum of electronic and thermal Enthalpies=           -1128.155398
 Sum of electronic and thermal Free Energies=        -1128.223218

                     E (Thermal)             CV                S
                      KCal/Mol        Cal/Mol-Kelvin    Cal/Mol-Kelvin
 Total                  215.012             70.153            142.740
 Electronic               0.000              0.000              0.000
 Translational            0.889              2.981             42.613
 Rotational               0.889              2.981             33.416
 Vibrational            213.235             64.192             66.711
 Vibration     1          0.593              1.984              6.058
 Vibration     2          0.594              1.983              5.661
 Vibration     3          0.595              1.978              4.826
 Vibration     4          0.596              1.975              4.582
 Vibration     5          0.599              1.964              3.962
 Vibration     6          0.602              1.957              3.687
 Vibration     7          0.604              1.950              3.466
 Vibration     8          0.612              1.923              2.944
 Vibration     9          0.614              1.916              2.842
 Vibration    10          0.622              1.890              2.537
 Vibration    11          0.629              1.867              2.329
 Vibration    12          0.644              1.821              2.018
 Vibration    13          0.647              1.812              1.969
 Vibration    14          0.661              1.768              1.752
 Vibration    15          0.676              1.723              1.577
 Vibration    16          0.684              1.698              1.492
 Vibration    17          0.696              1.663              1.387
 Vibration    18          0.716              1.605              1.234
 Vibration    19          0.725              1.582              1.181
 Vibration    20          0.769              1.462              0.949
 Vibration    21          0.785              1.422              0.884
 Vibration    22          0.795              1.396              0.845
 Vibration    23          0.812              1.354              0.786
 Vibration    24          0.821              1.332              0.758
 Vibration    25          0.870              1.218              0.623
 Vibration    26          0.881              1.192              0.596
 Vibration    27          0.944              1.060              0.473
 Vibration    28          0.977              0.996              0.421

                           ! Non-Optimized Parameters !
 Normal termination of Gaussian 16 at Fri Dec 11 20:02:11 2020.

 ----------------------------------------------------------------------
 # B3LYP/6-311++G(d,p) empiricaldispersion=gd3bj scf=xqc pop=npa geom=c
 heck
 ----------------------------------------------------------------------

 --------------------------------------
 CID_66354943_JID_8202_Energie_neutraal
 --------------------------------------
 Structure from the checkpoint file:  "JID_8202.chk"
 Charge =  0 Multiplicity = 1

 SCF Done:  E(RB3LYP) =  -1128.73167375     A.U. after   16 cycles
 Normal termination of Gaussian 16 at Fri Dec 11 20:10:15 2020.

 ----------------------------------------------------------------------
 # B3LYP/6-311++G(d,p) empiricaldispersion=gd3bj scf=xqc pop=npa geom=c
 heck
 ----------------------------------------------------------------------

 ------------------------------------
 CID_66354943_JID_8202_Energie_kation
 ------------------------------------
 Structure from the checkpoint file:  "JID_8202.chk"
 Charge =  1 Multiplicity = 2

 SCF Done:  E(UB3LYP) =  -1128.44691317     A.U. after   31 cycles
 Normal termination of Gaussian 16 at Fri Dec 11 20:31:55 2020.
 Gaussian 16:  ES64L-G16RevA.03 25-Dec-2016

 ----------------------------------------------------------------------
 # B3LYP/6-311++G(d,p) empiricaldispersion=gd3bj scf=xqc pop=npa geom=c
 heck
 ----------------------------------------------------------------------

 -----------------------------------
 CID_66354943_JID_8202_Energie_anion
 -----------------------------------
 Structure from the checkpoint file:  "JID_8202.chk"
 Charge = -1 Multiplicity = 2

                         Standard orientation:
 ---------------------------------------------------------------------
 Center     Atomic      Atomic             Coordinates (Angstroms)
 Number     Number       Type             X           Y           Z
 ---------------------------------------------------------------------
      1          6           0        0.092321    1.693542    1.778473
      2          6           0        1.597006    1.421792    1.773916
      3          7           0        2.008189    0.551084    0.663247
      4          6           0        2.134655    1.145340   -0.640729
      5          6           0        3.097489    2.291055   -0.822594
      6          6           0        3.397143    0.951416   -1.441155
      7          6           0        1.902656   -0.802924    0.865497
      8          8           0        1.684283   -1.282718    1.974463
      9          6           0        2.050050   -1.744303   -0.327217
     10         16           0        0.690208   -1.642695   -1.578026
     11          6           0       -0.725068   -1.185804   -0.583205
     12          6           0       -1.074686   -1.872206    0.585279
     13          6           0       -2.206038   -1.476359    1.297495
     14          6           0       -3.000033   -0.421263    0.848173
     15          6           0       -2.663341    0.263028   -0.324746
     16          6           0       -1.522521   -0.126128   -1.031044
     17          6           0       -3.486497    1.443658   -0.798070
     18          7           0       -4.912611    1.246088   -0.523227
     19          1           0       -0.228258    2.169636    0.845562
     20          1           0       -0.169492    2.360109    2.608274
     21          1           0       -0.464711    0.760722    1.893744
     22          1           0        2.158557    2.355754    1.686596
     23          1           0        1.894629    0.924590    2.697711
     24          1           0        1.211437    1.198660   -1.213536
     25          1           0        2.787994    3.112633   -1.461375
     26          1           0        3.701526    2.584855    0.030248
     27          1           0        4.195100    0.374441   -0.984069
     28          1           0        3.296651    0.821756   -2.514545
     29          1           0        2.959594   -1.551528   -0.900345
     30          1           0        2.096518   -2.750297    0.089209
     31          1           0       -0.460690   -2.689242    0.944894
     32          1           0       -2.470893   -2.001597    2.210904
     33          1           0       -3.888028   -0.118783    1.392845
     34          1           0       -1.242565    0.403355   -1.938503
     35          1           0       -3.174431    2.341949   -0.246839
     36          1           0       -3.249214    1.636469   -1.859277
     37          1           0       -5.435815    2.073381   -0.803008
     38          1           0       -5.263358    0.472735   -1.086370
 ---------------------------------------------------------------------

 SCF Done:  E(UB3LYP) =  -1128.72213503     A.U. after   33 cycles
 SCF Done:  E(UB3LYP) =  -1128.72213503     a.u. after    1 cycles

 The electronic state is 2-A.
 Alpha  occ. eigenvalues --  -88.75654 -18.99989 -14.25573 -14.19306 -10.18627
 Alpha  occ. eigenvalues --  -10.12763 -10.11702 -10.10992 -10.10567 -10.09533
 Alpha  occ. eigenvalues --  -10.09393 -10.09333 -10.07941 -10.07837 -10.07819
 Alpha  occ. eigenvalues --  -10.07430 -10.06673 -10.06370  -7.84234  -5.80648
 Alpha  occ. eigenvalues --   -5.80266  -5.79587  -0.95250  -0.85783  -0.78912
 Alpha  occ. eigenvalues --   -0.76504  -0.76247  -0.71115  -0.66726  -0.65955
 Alpha  occ. eigenvalues --   -0.64388  -0.57801  -0.56536  -0.54903  -0.54264
 Alpha  occ. eigenvalues --   -0.52123  -0.50420  -0.47066  -0.45549  -0.42624
 Alpha  occ. eigenvalues --   -0.41694  -0.40574  -0.39513  -0.38729  -0.37717
 Alpha  occ. eigenvalues --   -0.35871  -0.34933  -0.34180  -0.34122  -0.33288
 Alpha  occ. eigenvalues --   -0.32182  -0.31834  -0.31439  -0.30753  -0.29367
 Alpha  occ. eigenvalues --   -0.29083  -0.28923  -0.27988  -0.26225  -0.26003
 Alpha  occ. eigenvalues --   -0.25144  -0.24306  -0.23522  -0.23117  -0.22366
 Alpha  occ. eigenvalues --   -0.17625  -0.16901  -0.16001  -0.15533  -0.14359
 Alpha  occ. eigenvalues --   -0.12608   0.04043
 Alpha virt. eigenvalues --    0.05721   0.06181   0.06725   0.07532   0.07888
 Alpha virt. eigenvalues --    0.08055   0.08571   0.08767   0.08971   0.09424
 Alpha virt. eigenvalues --    0.09728   0.10494   0.10856   0.11082   0.11759

  Beta  occ. eigenvalues --  -88.75651 -18.99988 -14.25573 -14.19257 -10.18626
  Beta  occ. eigenvalues --  -10.12756 -10.11677 -10.10987 -10.10529 -10.09508
  Beta  occ. eigenvalues --  -10.09373 -10.09309 -10.07912 -10.07843 -10.07841
  Beta  occ. eigenvalues --  -10.07353 -10.06596 -10.06360  -7.84232  -5.80642
  Beta  occ. eigenvalues --   -5.80264  -5.79584  -0.95246  -0.85777  -0.78818
  Beta  occ. eigenvalues --   -0.76485  -0.76159  -0.71055  -0.66673  -0.65867
  Beta  occ. eigenvalues --   -0.64326  -0.57742  -0.56411  -0.54880  -0.54228
  Beta  occ. eigenvalues --   -0.52062  -0.50391  -0.46966  -0.45527  -0.42587
  Beta  occ. eigenvalues --   -0.41646  -0.40526  -0.39475  -0.38650  -0.37653
  Beta  occ. eigenvalues --   -0.35845  -0.34904  -0.34149  -0.34099  -0.33240
  Beta  occ. eigenvalues --   -0.32138  -0.31764  -0.31396  -0.30717  -0.29290
  Beta  occ. eigenvalues --   -0.29051  -0.28892  -0.27942  -0.26122  -0.25974
  Beta  occ. eigenvalues --   -0.25080  -0.24252  -0.23485  -0.23074  -0.22340
  Beta  occ. eigenvalues --   -0.17433  -0.16888  -0.15925  -0.15424  -0.14275
  Beta  occ. eigenvalues --   -0.12414
  Beta virt. eigenvalues --    0.06095   0.06672   0.06740   0.07018   0.07945
  Beta virt. eigenvalues --    0.07993   0.08258   0.08748   0.09073   0.09170
  Beta virt. eigenvalues --    0.09869   0.10059   0.10876   0.10972   0.11171

 Mulliken charges and spin densities:
               1          2
     1  C   -0.044995  -0.304913
     2  C   -0.400604   0.130420
     3  N    0.271642  -0.004183
     4  C   -1.103342   0.891366
     5  C    0.431754  -0.852409
     6  C    0.356200  -0.764130
     7  C    0.067476  -0.139130
     8  O   -0.283829   0.006884
     9  C   -0.386128  -0.110616
    10  S    0.065309  -0.090256
    11  C    0.796100  -0.468244
    12  C    0.133272  -0.131085
    13  C   -0.637783   0.200221
    14  C   -0.749754   0.661076
    15  C   -0.955030   1.443296
    16  C   -0.469163  -0.390631
    17  C    2.329704  -2.914281
    18  N   -0.538144   0.217589
    19  H    0.148034  -0.007942
    20  H   -0.011258   0.165292
    21  H    0.248746  -0.050151
    22  H   -0.079130   0.185389
    23  H    0.121415   0.053501
    24  H    0.585204  -0.318207
    25  H   -0.451680   0.628604
    26  H    0.108510   0.024168
    27  H    0.008286   0.140220
    28  H   -0.103264   0.268288
    29  H   -0.048444   0.246635
    30  H    0.139471   0.122696
    31  H    0.195986   0.004430
    32  H    0.103521   0.055056
    33  H    0.166912   0.034708
    34  H   -0.050970   0.256433
    35  H   -0.311679   0.539200
    36  H   -0.466878   0.626460
    37  H   -0.181141   0.429410
    38  H   -0.004325   0.214835
 Sum of Mulliken charges =  -1.00000   1.00000

 Dipole moment (field-independent basis, Debye):
    X=              5.0526    Y=             -4.2082    Z=              2.3337  Tot=              6.9774
 Quadrupole moment (field-independent basis, Debye-Ang):
   XX=           -200.8068   YY=           -164.5739   ZZ=           -155.4874
   XY=             14.2559   XZ=             -4.0551   YZ=              8.8667

 Summary of Natural Population Analysis:

                                       Natural Population
                Natural  -----------------------------------------------
    Atom  No    Charge         Core      Valence    Rydberg      Total
 -----------------------------------------------------------------------
      C    1   -0.29332      0.99965     2.28861    0.00506     3.29332
      C    2   -0.08480      0.99962     2.07568    0.00950     3.08480
      N    3   -0.25731      0.99962     2.74514    0.01255     3.75731
      C    4   -0.02263      0.99955     2.01020    0.01287     3.02263
      C    5   -0.19664      0.99961     2.18792    0.00911     3.19664
      C    6   -0.19928      0.99961     2.19018    0.00949     3.19928
      C    7    0.34331      0.99962     1.63284    0.02423     2.65669
      O    8   -0.32152      0.99988     3.31637    0.00527     4.32152
      C    9   -0.28628      0.99954     2.27722    0.00953     3.28628
      S   10    0.11533      4.99955     2.86733    0.01779     7.88467
      C   11   -0.09203      0.99940     2.08043    0.01220     3.09203
      C   12   -0.09359      0.99949     2.08459    0.00951     3.09359
      C   13   -0.10216      0.99956     2.09377    0.00883     3.10216
      C   14   -0.08886      0.99951     2.07954    0.00981     3.08886
      C   15   -0.01241      0.99950     2.00222    0.01069     3.01241
      C   16   -0.10913      0.99945     2.09853    0.01115     3.10913
      C   17   -0.09390      0.99959     2.08215    0.01216     3.09390
      N   18   -0.42083      0.99978     2.91051    0.01055     3.92083
      H   19    0.09909      0.00000     0.39951    0.00141     0.40091
      H   20    0.09738      0.00000     0.40186    0.00076     0.40262
      H   21    0.10956      0.00000     0.38870    0.00174     0.39044
      H   22    0.09328      0.00000     0.40559    0.00113     0.40672
      H   23    0.10753      0.00000     0.39141    0.00107     0.39247
      H   24    0.10761      0.00000     0.39008    0.00231     0.39239
      H   25    0.10786      0.00000     0.39091    0.00123     0.39214
      H   26    0.10422      0.00000     0.39472    0.00106     0.39578
      H   27    0.10375      0.00000     0.39507    0.00118     0.39625
      H   28    0.10727      0.00000     0.39159    0.00114     0.39273
      H   29    0.11604      0.00000     0.38255    0.00141     0.38396
      H   30    0.11104      0.00000     0.38760    0.00136     0.38896
      H   31    0.10581      0.00000     0.39291    0.00128     0.39419
      H   32    0.09880      0.00000     0.40044    0.00076     0.40120
      H   33    0.10996      0.00000     0.38880    0.00124     0.39004
      H   34    0.10325      0.00000     0.39514    0.00160     0.39675
      H   35    0.09862      0.00000     0.39900    0.00237     0.40138
      H   36    0.08296      0.00000     0.41489    0.00215     0.41704
      H   37    0.17937      0.00000     0.31658    0.00404     0.32063
      H   38    0.17265      0.00000     0.32542    0.00193     0.32735
 =======================================================================
   * Total *   -0.00000     21.99253    48.77604    0.23143    71.00000

 Normal termination of Gaussian 16 at Fri Dec 11 20:55:27 2020.
