 Gaussian 16, Revision A.03,

 -----------------------------------------------------------
 # opt freq B3LYP/6-31G(d) empiricaldispersion=gd3bj scf=xqc
 -----------------------------------------------------------

 ------------------------------
 CID_12868315_JID_3584_neutraal
 ------------------------------
 Symbolic Z-matrix:
 Charge =  0 Multiplicity = 1

 SCF Done:  E(RB3LYP) =  -574.256127516     A.U. after   14 cycles
 SCF Done:  E(RB3LYP) =  -574.258860896     A.U. after   12 cycles
 SCF Done:  E(RB3LYP) =  -574.259314805     A.U. after   12 cycles
 SCF Done:  E(RB3LYP) =  -574.259500065     A.U. after   12 cycles
 SCF Done:  E(RB3LYP) =  -574.259549514     A.U. after   11 cycles
 SCF Done:  E(RB3LYP) =  -574.259568997     A.U. after   10 cycles
 SCF Done:  E(RB3LYP) =  -574.259570696     A.U. after    8 cycles
 SCF Done:  E(RB3LYP) =  -574.259571054     A.U. after    7 cycles
 Optimization completed.
    -- Stationary point found.
 Normal termination of Gaussian 16 at Wed Dec  9 23:40:25 2020.

 --------------------------------------------------------------------
 #N Geom=AllCheck Guess=TCheck SCRF=Check GenChk RB3LYP/6-31G(d) Freq
 --------------------------------------------------------------------

 Structure from the checkpoint file:  "JID_3584.chk"
 ------------------------------
 CID_12868315_JID_3584_neutraal
 ------------------------------
 Charge =  0 Multiplicity = 1

 SCF Done:  E(RB3LYP) =  -574.259571054     A.U. after    1 cycles

  Exact polarizability: 157.892  -2.157 118.351  -5.045   1.584  74.004
 Approx polarizability: 220.130  -0.374 190.688  -6.947   7.050 115.286

                      1                      2                      3
                      A                      A                      A
 Frequencies --     53.0436                63.9666               122.6242
 Red. masses --      4.6602                 3.8359                 4.7165
 Frc consts  --      0.0077                 0.0092                 0.0418
 IR Inten    --      2.4660                 0.8642                 0.9102

                      4                      5                      6
                      A                      A                      A
 Frequencies --    165.8308               229.0158               258.9588
 Red. masses --      3.7259                 3.5712                 3.1946
 Frc consts  --      0.0604                 0.1104                 0.1262
 IR Inten    --      6.5586                 1.4963                 1.1707

                      7                      8                      9
                      A                      A                      A
 Frequencies --    298.4860               335.8793               398.6468
 Red. masses --      4.0004                 2.7995                 2.7385
 Frc consts  --      0.2100                 0.1861                 0.2564
 IR Inten    --      0.7685                10.4813                 1.6376

                     10                     11                     12
                      A                      A                      A
 Frequencies --    412.5961               423.7159               442.8690
 Red. masses --      2.1644                 2.6048                 2.3924
 Frc consts  --      0.2171                 0.2755                 0.2765
 IR Inten    --      3.2931                 2.7848                26.6072

                     13                     14                     15
                      A                      A                      A
 Frequencies --    479.3490               524.4129               556.2607
 Red. masses --      1.1830                 2.3740                 3.2415
 Frc consts  --      0.1602                 0.3847                 0.5909
 IR Inten    --     67.4395                13.1656                18.5933

                     16                     17                     18
                      A                      A                      A
 Frequencies --    589.5165               684.1414               707.9451
 Red. masses --      4.9917                 6.3524                 3.1730
 Frc consts  --      1.0221                 1.7518                 0.9370
 IR Inten    --      0.8422                 0.3471                 6.6271

                     19                     20                     21
                      A                      A                      A
 Frequencies --    753.7934               757.1449               832.0485
 Red. masses --      3.3011                 2.9392                 2.3539
 Frc consts  --      1.1051                 0.9927                 0.9601
 IR Inten    --      4.8724                 6.1065                 2.8435

                     22                     23                     24
                      A                      A                      A
 Frequencies --    834.0694               859.5771               883.2599
 Red. masses --      1.8063                 1.3300                 1.7257
 Frc consts  --      0.7404                 0.5790                 0.7932
 IR Inten    --     27.0883                 3.7751                15.7271

                     25                     26                     27
                      A                      A                      A
 Frequencies --    899.8508               943.1344               951.7194
 Red. masses --      2.2438                 1.8510                 2.9401
 Frc consts  --      1.0705                 0.9701                 1.5690
 IR Inten    --      5.8171                 3.8321                63.6331

                     28                     29                     30
                      A                      A                      A
 Frequencies --    969.3465               989.7753              1012.3400
 Red. masses --      1.3055                 1.4274                 7.4671
 Frc consts  --      0.7227                 0.8239                 4.5087
 IR Inten    --      0.4104                 0.2848                21.0746

                     31                     32                     33
                      A                      A                      A
 Frequencies --   1026.3816              1031.0355              1076.4540
 Red. masses --      1.8839                 2.8239                 1.8725
 Frc consts  --      1.1693                 1.7687                 1.2784
 IR Inten    --     15.3104                25.0463                 6.3782

                     34                     35                     36
                      A                      A                      A
 Frequencies --   1102.8333              1104.4708              1132.6848
 Red. masses --      1.6398                 1.9046                 1.9984
 Frc consts  --      1.1750                 1.3689                 1.5106
 IR Inten    --      7.4004                 1.8305                15.7332

                     37                     38                     39
                      A                      A                      A
 Frequencies --   1141.2673              1157.7125              1219.0153
 Red. masses --      1.8330                 2.0288                 1.3132
 Frc consts  --      1.4066                 1.6021                 1.1497
 IR Inten    --     24.8939                21.6379                47.0273

                     40                     41                     42
                      A                      A                      A
 Frequencies --   1240.8408              1262.5233              1265.6353
 Red. masses --      1.4749                 1.5647                 1.2739
 Frc consts  --      1.3380                 1.4695                 1.2023
 IR Inten    --     90.9711                 8.0160                14.1667

                     43                     44                     45
                      A                      A                      A
 Frequencies --   1290.6291              1313.0558              1333.3768
 Red. masses --      1.5693                 4.4047                 1.4298
 Frc consts  --      1.5401                 4.4744                 1.4977
 IR Inten    --     60.2233                 8.9616                 8.6366

                     46                     47                     48
                      A                      A                      A
 Frequencies --   1369.1634              1375.4446              1382.6771
 Red. masses --      1.5215                 1.3109                 1.3393
 Frc consts  --      1.6804                 1.4611                 1.5086
 IR Inten    --      5.5762                 0.9155                 0.4002

                     49                     50                     51
                      A                      A                      A
 Frequencies --   1397.8075              1403.6766              1416.0498
 Red. masses --      1.9422                 1.4051                 1.4894
 Frc consts  --      2.2358                 1.6311                 1.7597
 IR Inten    --     15.2349                 9.0652                 0.4758

                     52                     53                     54
                      A                      A                      A
 Frequencies --   1432.2544              1448.8274              1469.1452
 Red. masses --      1.5151                 1.3189                 2.2523
 Frc consts  --      1.8312                 1.6311                 2.8642
 IR Inten    --     67.7841                71.2393                 8.4175

                     55                     56                     57
                      A                      A                      A
 Frequencies --   1507.3912              1517.7974              1521.8827
 Red. masses --      1.0925                 1.0922                 1.0945
 Frc consts  --      1.4627                 1.4825                 1.4936
 IR Inten    --     11.1278                 4.8456                14.1797

                     58                     59                     60
                      A                      A                      A
 Frequencies --   1533.9492              1552.0008              1610.1246
 Red. masses --      1.1073                 2.2137                 6.8750
 Frc consts  --      1.5351                 3.1416                10.5013
 IR Inten    --     21.9272                64.3629                37.1503

                     61                     62                     63
                      A                      A                      A
 Frequencies --   1654.5420              2961.3702              2982.0619
 Red. masses --      5.2005                 1.0729                 1.0739
 Frc consts  --      8.3879                 5.5435                 5.6267
 IR Inten    --    244.4079                45.7529                55.7640

                     64                     65                     66
                      A                      A                      A
 Frequencies --   3037.5284              3057.7560              3082.8893
 Red. masses --      1.0677                 1.0612                 1.0874
 Frc consts  --      5.8043                 5.8462                 6.0894
 IR Inten    --     29.1948                24.0072                53.2788

                     67                     68                     69
                      A                      A                      A
 Frequencies --   3098.3197              3105.7894              3120.1741
 Red. masses --      1.1003                 1.0991                 1.0903
 Frc consts  --      6.2233                 6.2463                 6.2538
 IR Inten    --     40.2573                35.9553                20.6487

                     70                     71                     72
                      A                      A                      A
 Frequencies --   3159.7448              3166.2578              3171.6549
 Red. masses --      1.0894                 1.0888                 1.0901
 Frc consts  --      6.4084                 6.4312                 6.4607
 IR Inten    --     14.9683                38.0427                25.8534

                     73                     74                     75
                      A                      A                      A
 Frequencies --   3213.3289              3231.8702              3679.6664
 Red. masses --      1.0925                 1.0914                 1.0650
 Frc consts  --      6.6465                 6.7166                 8.4962
 IR Inten    --     11.6347                 9.5758                36.5010

 - Thermochemistry -
 -------------------
 Temperature   298.150 Kelvin.  Pressure   1.00000 Atm.
 Atom     1 has atomic number  6 and mass  12.00000

 Molecular mass:   178.11061 amu.
 Principal axes and moments of inertia in atomic units:
                           1         2         3
     Eigenvalues --   928.492353796.857974411.37286
           X            0.99995  -0.00908  -0.00312
           Y            0.00903   0.99984  -0.01520
           Z            0.00326   0.01518   0.99988
 This molecule is an asymmetric top.
 Rotational symmetry number  1.
 Warning -- assumption of classical behavior for rotation
           may cause significant error
 Rotational temperatures (Kelvin)      0.09328     0.02281     0.01963
 Rotational constants (GHZ):           1.94373     0.47532     0.40911
 Zero-point vibrational energy     614835.0 (Joules/Mol)
                                  146.94908 (Kcal/Mol)
 Warning -- explicit consideration of  16 degrees of freedom as
           vibrations may cause significant error
 Vibrational temperatures:     76.32    92.03   176.43   238.59   329.50
          (Kelvin)            372.58   429.45   483.26   573.56   593.63
                              609.63   637.19   689.68   754.51   800.34
                              848.18   984.33  1018.58  1084.54  1089.36
                             1197.13  1200.04  1236.74  1270.81  1294.68
                             1356.96  1369.31  1394.67  1424.07  1456.53
                             1476.73  1483.43  1548.78  1586.73  1589.09
                             1629.68  1642.03  1665.69  1753.89  1785.29
                             1816.49  1820.97  1856.93  1889.19  1918.43
                             1969.92  1978.96  1989.36  2011.13  2019.58
                             2037.38  2060.69  2084.54  2113.77  2168.80
                             2183.77  2189.65  2207.01  2232.98  2316.61
                             2380.52  4260.75  4290.52  4370.33  4399.43
                             4435.59  4457.79  4468.54  4489.23  4546.17
                             4555.54  4563.30  4623.26  4649.94  5294.22

 Zero-point correction=                           0.234178 (Hartree/Particle)
 Thermal correction to Energy=                    0.245023
 Thermal correction to Enthalpy=                  0.245968
 Thermal correction to Gibbs Free Energy=         0.197198
 Sum of electronic and zero-point Energies=           -574.025393
 Sum of electronic and thermal Energies=              -574.014548
 Sum of electronic and thermal Enthalpies=            -574.013603
 Sum of electronic and thermal Free Energies=         -574.062373

                     E (Thermal)             CV                S
                      KCal/Mol        Cal/Mol-Kelvin    Cal/Mol-Kelvin
 Total                  153.755             43.653            102.644
 Electronic               0.000              0.000              0.000
 Translational            0.889              2.981             41.439
 Rotational               0.889              2.981             31.120
 Vibrational            151.977             37.692             30.085
 Vibration     1          0.596              1.976              4.701
 Vibration     2          0.597              1.971              4.331
 Vibration     3          0.610              1.930              3.059
 Vibration     4          0.624              1.884              2.482
 Vibration     5          0.652              1.797              1.887
 Vibration     6          0.668              1.748              1.669
 Vibration     7          0.692              1.677              1.425
 Vibration     8          0.717              1.604              1.232
 Vibration     9          0.765              1.473              0.968
 Vibration    10          0.776              1.443              0.917
 Vibration    11          0.786              1.419              0.879
 Vibration    12          0.803              1.377              0.818
 Vibration    13          0.836              1.296              0.712
 Vibration    14          0.879              1.196              0.600
 Vibration    15          0.912              1.126              0.531
 Vibration    16          0.947              1.054              0.468

 Optimization completed.
    -- Stationary point found.
 Normal termination of Gaussian 16 at Wed Dec  9 23:46:56 2020.

 ----------------------------------------------------------------------
 # B3LYP/6-311++G(d,p) empiricaldispersion=gd3bj scf=xqc pop=npa geom=c
 heck
 ----------------------------------------------------------------------

 --------------------------------------
 CID_12868315_JID_3584_Energie_neutraal
 --------------------------------------
 Structure from the checkpoint file:  "JID_3584.chk"
 Charge =  0 Multiplicity = 1

 SCF Done:  E(RB3LYP) =  -574.422475271     A.U. after   14 cycles
 Normal termination of Gaussian 16 at Wed Dec  9 23:49:40 2020.

 ----------------------------------------------------------------------
 # B3LYP/6-311++G(d,p) empiricaldispersion=gd3bj scf=xqc pop=npa geom=c
 heck
 ----------------------------------------------------------------------

 ------------------------------------
 CID_12868315_JID_3584_Energie_kation
 ------------------------------------
 Structure from the checkpoint file:  "JID_3584.chk"
 Charge =  1 Multiplicity = 2

 SCF Done:  E(UB3LYP) =  -574.123331828     A.U. after   23 cycles
 Normal termination of Gaussian 16 at Wed Dec  9 23:55:54 2020.
 Gaussian 16:  ES64L-G16RevA.03 25-Dec-2016

 ----------------------------------------------------------------------
 # B3LYP/6-311++G(d,p) empiricaldispersion=gd3bj scf=xqc pop=npa geom=c
 heck
 ----------------------------------------------------------------------

 -----------------------------------
 CID_12868315_JID_3584_Energie_anion
 -----------------------------------
 Structure from the checkpoint file:  "JID_3584.chk"
 Charge = -1 Multiplicity = 2

                         Standard orientation:
 ---------------------------------------------------------------------
 Center     Atomic      Atomic             Coordinates (Angstroms)
 Number     Number       Type             X           Y           Z
 ---------------------------------------------------------------------
      1          6           0       -2.408160    1.385761   -0.561533
      2          6           0       -3.226186    0.398159    0.278298
      3          6           0       -2.485289   -0.941167    0.396674
      4          6           0       -1.082876   -0.702098    0.959147
      5          7           0       -0.347883    0.178235    0.036464
      6          6           0       -0.963248    1.504290   -0.062333
      7          6           0        1.051565    0.082196    0.024663
      8          6           0        1.898630    1.200710    0.082423
      9          6           0        3.278728    1.011825    0.020954
     10          7           0        3.881409   -0.176503   -0.082612
     11          6           0        3.064931   -1.240600   -0.135501
     12          6           0        1.679225   -1.173028   -0.090802
     13          8           0       -2.388669   -1.606543   -0.857534
     14          1           0       -2.872212    2.378419   -0.555460
     15          1           0       -2.392541    1.046651   -1.604274
     16          1           0       -3.386082    0.805686    1.286526
     17          1           0       -4.210788    0.233624   -0.171171
     18          1           0       -3.033314   -1.617538    1.061439
     19          1           0       -0.557106   -1.651772    1.051789
     20          1           0       -1.138356   -0.244610    1.962006
     21          1           0       -0.384693    2.103888   -0.768633
     22          1           0       -0.938848    2.020528    0.914647
     23          1           0        1.506846    2.204185    0.194777
     24          1           0        3.936606    1.878486    0.069141
     25          1           0        3.551171   -2.209972   -0.231478
     26          1           0        1.092513   -2.081081   -0.180445
     27          1           0       -1.642438   -1.182563   -1.317499
 ---------------------------------------------------------------------

 SCF Done:  E(UB3LYP) =  -574.412119784     A.U. after   33 cycles
 SCF Done:  E(UB3LYP) =  -574.412119784     a.u. after    1 cycles

 The electronic state is 2-A.
 Alpha  occ. eigenvalues --  -19.01882 -14.23392 -14.19337 -10.11981 -10.11829
 Alpha  occ. eigenvalues --  -10.10165 -10.10093 -10.09930 -10.09715 -10.07234
 Alpha  occ. eigenvalues --  -10.07049 -10.06606 -10.06240  -0.92645  -0.85437
 Alpha  occ. eigenvalues --   -0.82955  -0.71080  -0.66956  -0.66215  -0.64997
 Alpha  occ. eigenvalues --   -0.56867  -0.54688  -0.51530  -0.50470  -0.46236
 Alpha  occ. eigenvalues --   -0.43975  -0.40191  -0.39022  -0.37409  -0.36955
 Alpha  occ. eigenvalues --   -0.35295  -0.35172  -0.33494  -0.32411  -0.31796
 Alpha  occ. eigenvalues --   -0.30693  -0.29852  -0.28835  -0.26448  -0.25201
 Alpha  occ. eigenvalues --   -0.24613  -0.23722  -0.22213  -0.20529  -0.17425
 Alpha  occ. eigenvalues --   -0.16194  -0.15596  -0.12148   0.04529
 Alpha virt. eigenvalues --    0.07212   0.07458   0.07788   0.08231   0.08403
 Alpha virt. eigenvalues --    0.09136   0.09662   0.10477   0.11136   0.11226
 Alpha virt. eigenvalues --    0.11545   0.12434   0.13902   0.13991   0.14719

  Beta  occ. eigenvalues --  -19.01868 -14.23416 -14.19225 -10.11968 -10.11714
  Beta  occ. eigenvalues --  -10.10127 -10.10087 -10.09904 -10.09682 -10.07219
  Beta  occ. eigenvalues --  -10.07046 -10.06579 -10.06215  -0.92610  -0.85370
  Beta  occ. eigenvalues --   -0.82821  -0.70967  -0.66875  -0.66150  -0.64933
  Beta  occ. eigenvalues --   -0.56772  -0.54631  -0.51477  -0.50361  -0.46171
  Beta  occ. eigenvalues --   -0.43908  -0.40141  -0.38956  -0.37344  -0.36899
  Beta  occ. eigenvalues --   -0.35245  -0.35116  -0.33441  -0.32378  -0.31739
  Beta  occ. eigenvalues --   -0.30637  -0.29659  -0.28681  -0.26398  -0.25147
  Beta  occ. eigenvalues --   -0.24541  -0.23666  -0.22108  -0.20242  -0.17363
  Beta  occ. eigenvalues --   -0.16011  -0.15464  -0.12026
  Beta virt. eigenvalues --    0.07073   0.08006   0.08026   0.08194   0.08608
  Beta virt. eigenvalues --    0.08740   0.09735   0.09955   0.11143   0.11484
  Beta virt. eigenvalues --    0.11639   0.12081   0.12837   0.13992   0.14297

 Mulliken charges and spin densities:
               1          2
     1  C    0.877391  -1.293059
     2  C    0.128564  -0.515023
     3  C    0.051010  -0.128903
     4  C    0.177624  -0.700100
     5  N    0.164744   0.123514
     6  C    0.429914  -0.634626
     7  C    0.268491  -1.188272
     8  C    0.173471   0.737897
     9  C   -0.539224  -0.209444
    10  N   -0.134591   0.065704
    11  C   -0.012215  -0.705466
    12  C   -0.304786   0.905388
    13  O   -0.183982  -0.002117
    14  H   -0.641530   0.821068
    15  H    0.178388  -0.019711
    16  H   -0.148599   0.284100
    17  H   -0.167376   0.354110
    18  H   -0.347172   0.562759
    19  H    0.167206  -0.002173
    20  H   -0.467151   0.645052
    21  H   -0.295812   0.444806
    22  H   -0.219224   0.399799
    23  H   -0.414227   0.611642
    24  H    0.009220   0.141982
    25  H    0.106361   0.032922
    26  H   -0.086010   0.253527
    27  H    0.229513   0.014624
 Sum of Mulliken charges =  -1.00000   1.00000

 Dipole moment (field-independent basis, Debye):
    X=              2.3459    Y=             -3.7281    Z=             -1.4839  Tot=              4.6479
 Quadrupole moment (field-independent basis, Debye-Ang):
   XX=           -149.4883   YY=           -120.6836   ZZ=           -108.3845
   XY=              4.2158   XZ=              5.7623   YZ=             -1.6233

 Summary of Natural Population Analysis:

                                       Natural Population
                Natural  -----------------------------------------------
    Atom  No    Charge         Core      Valence    Rydberg      Total
 -----------------------------------------------------------------------
      C    1   -0.19584      0.99962     2.18596    0.01026     3.19584
      C    2   -0.20024      0.99961     2.19153    0.00910     3.20024
      C    3    0.05778      0.99956     1.92680    0.01587     2.94222
      C    4   -0.09115      0.99958     2.08105    0.01052     3.09115
      N    5   -0.27481      0.99966     2.76205    0.01310     3.77481
      C    6   -0.08577      0.99961     2.07414    0.01202     3.08577
      C    7    0.12684      0.99947     1.86152    0.01217     2.87316
      C    8   -0.14896      0.99952     2.14101    0.00843     3.14896
      C    9    0.03374      0.99960     1.95052    0.01614     2.96626
      N   10   -0.23989      0.99972     2.72813    0.01204     3.73989
      C   11    0.02626      0.99959     1.95983    0.01432     2.97374
      C   12   -0.13868      0.99952     2.13173    0.00743     3.13868
      O   13   -0.37539      0.99990     3.36925    0.00625     4.37539
      H   14    0.10766      0.00000     0.38996    0.00239     0.39234
      H   15    0.09463      0.00000     0.40388    0.00149     0.40537
      H   16    0.10214      0.00000     0.39549    0.00237     0.39786
      H   17    0.10240      0.00000     0.39648    0.00112     0.39760
      H   18    0.09030      0.00000     0.40847    0.00122     0.40970
      H   19    0.10234      0.00000     0.39619    0.00147     0.39766
      H   20    0.09568      0.00000     0.40247    0.00186     0.40432
      H   21    0.10311      0.00000     0.39490    0.00199     0.39689
      H   22    0.09139      0.00000     0.40502    0.00358     0.40861
      H   23    0.10906      0.00000     0.38956    0.00138     0.39094
      H   24    0.08688      0.00000     0.41183    0.00129     0.41312
      H   25    0.08599      0.00000     0.41283    0.00118     0.41401
      H   26    0.10399      0.00000     0.39483    0.00119     0.39601
      H   27    0.23057      0.00000     0.26613    0.00330     0.26943
 =======================================================================
   * Total *   -0.00000     12.99495    34.83157    0.17348    48.00000

 Normal termination of Gaussian 16 at Thu Dec 10 00:04:53 2020.
