 Gaussian 16, Revision A.03,

 -----------------------------------------------------------
 # opt freq B3LYP/6-31G(d) empiricaldispersion=gd3bj scf=xqc
 -----------------------------------------------------------

 ------------------------------
 CID_62267643_JID_6907_neutraal
 ------------------------------
 Symbolic Z-matrix:
 Charge =  0 Multiplicity = 1

 SCF Done:  E(RB3LYP) =  -763.996220107     A.U. after   15 cycles
 SCF Done:  E(RB3LYP) =  -764.001431692     A.U. after   12 cycles
 SCF Done:  E(RB3LYP) =  -764.002279924     A.U. after   12 cycles
 SCF Done:  E(RB3LYP) =  -764.002500872     A.U. after   12 cycles
 SCF Done:  E(RB3LYP) =  -764.002479651     A.U. after   11 cycles
 SCF Done:  E(RB3LYP) =  -764.002561483     A.U. after   11 cycles
 SCF Done:  E(RB3LYP) =  -764.002599363     A.U. after   10 cycles
 SCF Done:  E(RB3LYP) =  -764.002621218     A.U. after   11 cycles
 SCF Done:  E(RB3LYP) =  -764.002626878     A.U. after   10 cycles
 SCF Done:  E(RB3LYP) =  -764.002631222     A.U. after   10 cycles
 SCF Done:  E(RB3LYP) =  -764.002632708     A.U. after    9 cycles
 Optimization completed.
    -- Stationary point found.
 Normal termination of Gaussian 16 at Fri Dec 11 01:06:11 2020.

 --------------------------------------------------------------------
 #N Geom=AllCheck Guess=TCheck SCRF=Check GenChk RB3LYP/6-31G(d) Freq
 --------------------------------------------------------------------

 Structure from the checkpoint file:  "JID_6907.chk"
 ------------------------------
 CID_62267643_JID_6907_neutraal
 ------------------------------
 Charge =  0 Multiplicity = 1

 SCF Done:  E(RB3LYP) =  -764.002632708     A.U. after    1 cycles

  Exact polarizability: 167.482  12.338 126.238 -10.917  10.661 104.465
 Approx polarizability: 208.949  21.986 200.053 -24.919  23.040 169.276

                      1                      2                      3
                      A                      A                      A
 Frequencies --     18.0343                39.1046                55.3474
 Red. masses --      4.7862                 5.2239                 4.2196
 Frc consts  --      0.0009                 0.0047                 0.0076
 IR Inten    --      0.2185                 0.6550                 0.7425

                      4                      5                      6
                      A                      A                      A
 Frequencies --     73.5895                95.8340               132.5987
 Red. masses --      4.1554                 3.9144                 3.0292
 Frc consts  --      0.0133                 0.0212                 0.0314
 IR Inten    --      0.3788                 0.4515                 0.4285

                      7                      8                      9
                      A                      A                      A
 Frequencies --    142.8503               163.4542               193.4339
 Red. masses --      4.3204                 3.2632                 2.6956
 Frc consts  --      0.0519                 0.0514                 0.0594
 IR Inten    --      0.3060                 0.2333                 0.2357

                     10                     11                     12
                      A                      A                      A
 Frequencies --    278.3062               285.4020               340.0038
 Red. masses --      5.8036                 4.7808                 2.5529
 Frc consts  --      0.2648                 0.2294                 0.1739
 IR Inten    --      0.6284                 1.4021                 5.8178

                     13                     14                     15
                      A                      A                      A
 Frequencies --    364.3277               392.3998               433.0866
 Red. masses --      3.1736                 5.5912                 2.4628
 Frc consts  --      0.2482                 0.5072                 0.2722
 IR Inten    --      4.8158                 4.2249                12.8268

                     16                     17                     18
                      A                      A                      A
 Frequencies --    437.3606               470.7824               519.8338
 Red. masses --      1.8920                 2.7327                 4.3391
 Frc consts  --      0.2132                 0.3568                 0.6908
 IR Inten    --      0.3900                12.7328                 6.6799

                     19                     20                     21
                      A                      A                      A
 Frequencies --    564.7310               574.7423               604.6042
 Red. masses --      1.6347                 1.8690                 3.2609
 Frc consts  --      0.3072                 0.3637                 0.7023
 IR Inten    --      3.0059                64.4801                 3.5815

                     22                     23                     24
                      A                      A                      A
 Frequencies --    643.0099               653.2592               705.8932
 Red. masses --      2.1703                 2.5531                 3.9116
 Frc consts  --      0.5287                 0.6419                 1.1484
 IR Inten    --     18.4988                30.4282                54.3528

                     25                     26                     27
                      A                      A                      A
 Frequencies --    720.5850               751.3303               761.9169
 Red. masses --      2.0981                 1.5696                 2.6553
 Frc consts  --      0.6419                 0.5220                 0.9082
 IR Inten    --    114.7983                 3.1910                78.4017

                     28                     29                     30
                      A                      A                      A
 Frequencies --    773.3091               794.4621               817.3477
 Red. masses --      3.1079                 2.2249                 1.9094
 Frc consts  --      1.0950                 0.8274                 0.7515
 IR Inten    --     11.3877                29.4382                 5.7368

                     31                     32                     33
                      A                      A                      A
 Frequencies --    854.5394               869.8210               894.9768
 Red. masses --      1.6117                 2.7384                 2.0619
 Frc consts  --      0.6934                 1.2207                 0.9730
 IR Inten    --     20.3601                 0.8103                21.8428

                     34                     35                     36
                      A                      A                      A
 Frequencies --    925.6684               949.3088               974.2505
 Red. masses --      3.1645                 2.3836                 1.8654
 Frc consts  --      1.5976                 1.2656                 1.0432
 IR Inten    --     14.6014                12.2707                10.1627

                     37                     38                     39
                      A                      A                      A
 Frequencies --    993.0378               996.7133              1035.7897
 Red. masses --      3.0413                 3.6563                 2.1657
 Frc consts  --      1.7670                 2.1401                 1.3689
 IR Inten    --      1.2150                31.9226                10.3788

                     40                     41                     42
                      A                      A                      A
 Frequencies --   1066.6692              1090.8980              1122.8357
 Red. masses --      2.2547                 2.3178                 2.3773
 Frc consts  --      1.5114                 1.6251                 1.7659
 IR Inten    --     10.2770                13.7503                50.1485

                     43                     44                     45
                      A                      A                      A
 Frequencies --   1130.1285              1143.7934              1160.0551
 Red. masses --      2.2707                 2.3364                 1.9752
 Frc consts  --      1.7087                 1.8009                 1.5661
 IR Inten    --     45.0864                31.7635                 7.9823

                     46                     47                     48
                      A                      A                      A
 Frequencies --   1172.0845              1198.8605              1199.9217
 Red. masses --      2.5226                 2.2093                 3.2898
 Frc consts  --      2.0418                 1.8709                 2.7908
 IR Inten    --    315.1779                72.6177                16.5774

                     49                     50                     51
                      A                      A                      A
 Frequencies --   1230.1432              1255.7311              1273.4796
 Red. masses --      2.7547                 1.2414                 1.2672
 Frc consts  --      2.4561                 1.1533                 1.2108
 IR Inten    --      3.6261                 2.9424                 5.5756

                     52                     53                     54
                      A                      A                      A
 Frequencies --   1282.2199              1314.6450              1343.7156
 Red. masses --      1.8602                 1.2121                 1.3526
 Frc consts  --      1.8020                 1.2342                 1.4389
 IR Inten    --     15.2949                 0.4582                 8.0330

                     55                     56                     57
                      A                      A                      A
 Frequencies --   1361.4168              1372.3483              1384.0142
 Red. masses --      1.5574                 1.2856                 1.2971
 Frc consts  --      1.7007                 1.4266                 1.4639
 IR Inten    --     24.7190                 1.5348                62.0466

                     58                     59                     60
                      A                      A                      A
 Frequencies --   1395.1112              1404.2371              1406.6452
 Red. masses --      1.2462                 2.2357                 1.3196
 Frc consts  --      1.4290                 2.5974                 1.5383
 IR Inten    --      2.1494                16.2324                 1.3357

                     61                     62                     63
                      A                      A                      A
 Frequencies --   1416.8839              1427.6319              1430.6744
 Red. masses --      1.2571                 4.8308                 1.3272
 Frc consts  --      1.4869                 5.8010                 1.6006
 IR Inten    --     11.2347                16.0031                11.7973

                     64                     65                     66
                      A                      A                      A
 Frequencies --   1451.0306              1491.7417              1500.3771
 Red. masses --      1.3228                 1.0838                 1.0766
 Frc consts  --      1.6410                 1.4210                 1.4280
 IR Inten    --      5.9838                 9.1999                 1.3764

                     67                     68                     69
                      A                      A                      A
 Frequencies --   1510.2636              1511.3104              1520.2683
 Red. masses --      1.1098                 1.1684                 1.1375
 Frc consts  --      1.4915                 1.5724                 1.5490
 IR Inten    --      2.4757                12.3365                 7.7616

                     70                     71                     72
                      A                      A                      A
 Frequencies --   1527.5675              1536.5071              1591.6243
 Red. masses --      1.1042                 1.1101                 6.4038
 Frc consts  --      1.5181                 1.5441                 9.5580
 IR Inten    --      4.8535                14.0215               101.4937

                     73                     74                     75
                      A                      A                      A
 Frequencies --   1652.0386              1825.9436              2937.6466
 Red. masses --      6.7344                 9.7099                 1.0720
 Frc consts  --     10.8291                19.0739                 5.4506
 IR Inten    --     36.5115               341.8767                41.9820

                     76                     77                     78
                      A                      A                      A
 Frequencies --   2966.7440              3026.0308              3034.2382
 Red. masses --      1.0735                 1.0631                 1.0623
 Frc consts  --      5.5668                 5.7353                 5.7625
 IR Inten    --     45.1893                21.0471                53.0814

                     79                     80                     81
                      A                      A                      A
 Frequencies --   3042.7874              3058.5811              3064.2815
 Red. masses --      1.0665                 1.0802                 1.0740
 Frc consts  --      5.8178                 5.9536                 5.9417
 IR Inten    --     96.4731                30.7698                50.7473

                     82                     83                     84
                      A                      A                      A
 Frequencies --   3065.3024              3083.6017              3098.3374
 Red. masses --      1.0941                 1.1033                 1.0975
 Frc consts  --      6.0567                 6.1812                 6.2074
 IR Inten    --     10.2318                24.4220                40.1490

                     85                     86                     87
                      A                      A                      A
 Frequencies --   3103.4641              3111.2264              3287.6967
 Red. masses --      1.0941                 1.1015                 1.0972
 Frc consts  --      6.2090                 6.2821                 6.9874
 IR Inten    --     24.8860                26.7395                 1.7724

                     88                     89                     90
                      A                      A                      A
 Frequencies --   3310.3361              3495.7146              3697.2572
 Red. masses --      1.0991                 1.0736                 1.0640
 Frc consts  --      7.0961                 7.7297                 8.5695
 IR Inten    --      1.5762                 1.3512                71.6921

 - Thermochemistry -
 -------------------
 Temperature   298.150 Kelvin.  Pressure   1.00000 Atm.
 Atom     1 has atomic number  6 and mass  12.00000

 Molecular mass:   224.11609 amu.
 Principal axes and moments of inertia in atomic units:
                           1         2         3
     Eigenvalues --  1470.638377781.380848280.92801
           X            0.99999   0.00290   0.00462
           Y           -0.00304   0.99953   0.03049
           Z           -0.00453  -0.03051   0.99952
 This molecule is an asymmetric top.
 Rotational symmetry number  1.
 Warning -- assumption of classical behavior for rotation
           may cause significant error
 Rotational temperatures (Kelvin)      0.05890     0.01113     0.01046
 Rotational constants (GHZ):           1.22718     0.23193     0.21794
 Zero-point vibrational energy     714057.6 (Joules/Mol)
                                  170.66386 (Kcal/Mol)
 Warning -- explicit consideration of  21 degrees of freedom as
           vibrations may cause significant error
 Vibrational temperatures:     25.95    56.26    79.63   105.88   137.88
          (Kelvin)            190.78   205.53   235.17   278.31   400.42
                              410.63   489.19   524.19   564.58   623.11
                              629.26   677.35   747.92   812.52   826.93
                              869.89   925.15   939.89  1015.62  1036.76
                             1081.00  1096.23  1112.62  1143.05  1175.98
                             1229.49  1251.48  1287.67  1331.83  1365.84
                             1401.73  1428.76  1434.05  1490.27  1534.70
                             1569.56  1615.51  1626.00  1645.66  1669.06
                             1686.37  1724.89  1726.42  1769.90  1806.72
                             1832.25  1844.83  1891.48  1933.31  1958.78
                             1974.50  1991.29  2007.25  2020.38  2023.85
                             2038.58  2054.04  2058.42  2087.71  2146.28
                             2158.71  2172.93  2174.44  2187.33  2197.83
                             2210.69  2289.99  2376.92  2627.13  4226.62
                             4268.48  4353.78  4365.59  4377.89  4400.62
                             4408.82  4410.29  4436.62  4457.82  4465.19
                             4476.36  4730.26  4762.84  5029.55  5319.53

 Zero-point correction=                           0.271970 (Hartree/Particle)
 Thermal correction to Energy=                    0.286591
 Thermal correction to Enthalpy=                  0.287535
 Thermal correction to Gibbs Free Energy=         0.228110
 Sum of electronic and zero-point Energies=           -763.730663
 Sum of electronic and thermal Energies=              -763.716042
 Sum of electronic and thermal Enthalpies=            -763.715098
 Sum of electronic and thermal Free Energies=         -763.774523

                     E (Thermal)             CV                S
                      KCal/Mol        Cal/Mol-Kelvin    Cal/Mol-Kelvin
 Total                  179.838             55.721            125.070
 Electronic               0.000              0.000              0.000
 Translational            0.889              2.981             42.123
 Rotational               0.889              2.981             32.916
 Vibrational            178.061             49.759             50.030
 Vibration     1          0.593              1.986              6.840
 Vibration     2          0.594              1.981              5.304
 Vibration     3          0.596              1.975              4.617
 Vibration     4          0.599              1.966              4.055
 Vibration     5          0.603              1.952              3.537
 Vibration     6          0.613              1.921              2.908
 Vibration     7          0.616              1.910              2.765
 Vibration     8          0.623              1.887              2.509
 Vibration     9          0.635              1.849              2.195
 Vibration    10          0.679              1.714              1.544
 Vibration    11          0.683              1.701              1.501
 Vibration    12          0.720              1.596              1.212
 Vibration    13          0.738              1.546              1.104
 Vibration    14          0.760              1.486              0.991
 Vibration    15          0.794              1.398              0.849
 Vibration    16          0.798              1.389              0.835
 Vibration    17          0.828              1.315              0.735
 Vibration    18          0.875              1.206              0.610
 Vibration    19          0.921              1.108              0.514
 Vibration    20          0.931              1.086              0.495
 Vibration    21          0.963              1.022              0.442

                           ! Non-Optimized Parameters !
 Normal termination of Gaussian 16 at Fri Dec 11 01:17:07 2020.

 ----------------------------------------------------------------------
 # B3LYP/6-311++G(d,p) empiricaldispersion=gd3bj scf=xqc pop=npa geom=c
 heck
 ----------------------------------------------------------------------

 --------------------------------------
 CID_62267643_JID_6907_Energie_neutraal
 --------------------------------------
 Structure from the checkpoint file:  "JID_6907.chk"
 Charge =  0 Multiplicity = 1

 SCF Done:  E(RB3LYP) =  -764.227297332     A.U. after   15 cycles
 Normal termination of Gaussian 16 at Fri Dec 11 01:22:28 2020.

 ----------------------------------------------------------------------
 # B3LYP/6-311++G(d,p) empiricaldispersion=gd3bj scf=xqc pop=npa geom=c
 heck
 ----------------------------------------------------------------------

 ------------------------------------
 CID_62267643_JID_6907_Energie_kation
 ------------------------------------
 Structure from the checkpoint file:  "JID_6907.chk"
 Charge =  1 Multiplicity = 2

 SCF Done:  E(UB3LYP) =  -763.942442300     A.U. after   23 cycles
 Normal termination of Gaussian 16 at Fri Dec 11 01:34:12 2020.
 Gaussian 16:  ES64L-G16RevA.03 25-Dec-2016

 ----------------------------------------------------------------------
 # B3LYP/6-311++G(d,p) empiricaldispersion=gd3bj scf=xqc pop=npa geom=c
 heck
 ----------------------------------------------------------------------

 -----------------------------------
 CID_62267643_JID_6907_Energie_anion
 -----------------------------------
 Structure from the checkpoint file:  "JID_6907.chk"
 Charge = -1 Multiplicity = 2

                         Standard orientation:
 ---------------------------------------------------------------------
 Center     Atomic      Atomic             Coordinates (Angstroms)
 Number     Number       Type             X           Y           Z
 ---------------------------------------------------------------------
      1          6           0       -3.488606   -1.340328   -0.517939
      2          6           0       -4.375958   -0.077000   -0.492890
      3          7           0       -3.799447    1.163340   -1.005808
      4          6           0       -2.935955    1.870237   -0.068127
      5          6           0       -1.586162    1.234458    0.295509
      6          7           0       -1.706075   -0.137746    0.791710
      7          6           0       -1.992078   -1.090314   -0.291231
      8          6           0       -0.562026   -0.531552    1.623203
      9          6           0        0.776768   -0.524486    0.948678
     10          6           0        1.786304    0.384523    0.864409
     11          6           0        2.773234   -0.173328   -0.021582
     12          6           0        2.285609   -1.388814   -0.415812
     13          8           0        1.084162   -1.618770    0.158291
     14          6           0        4.058008    0.378029   -0.458272
     15          8           0        4.834815   -0.166673   -1.218061
     16          8           0        4.302621    1.598585    0.087043
     17          1           0       -3.591310   -1.853173   -1.484592
     18          1           0       -3.863794   -2.036817    0.243124
     19          1           0       -5.300584   -0.287503   -1.046483
     20          1           0       -4.673601    0.128897    0.540517
     21          1           0       -3.331850    1.015491   -1.898008
     22          1           0       -3.514399    2.008781    0.853304
     23          1           0       -2.734704    2.871353   -0.473144
     24          1           0       -1.127222    1.849058    1.080715
     25          1           0       -0.907132    1.283955   -0.577408
     26          1           0       -1.513259   -2.046031   -0.059710
     27          1           0       -1.526261   -0.744827   -1.230515
     28          1           0       -0.511456    0.153968    2.475807
     29          1           0       -0.761872   -1.531928    2.022359
     30          1           0        1.840226    1.339507    1.365426
     31          1           0        2.677867   -2.156838   -1.063723
     32          1           0        5.170385    1.873270   -0.262844
 ---------------------------------------------------------------------

 SCF Done:  E(UB3LYP) =  -764.220746930     A.U. after   33 cycles
 SCF Done:  E(UB3LYP) =  -764.220746930     a.u. after    1 cycles

 The electronic state is 2-A.
 Alpha  occ. eigenvalues --  -19.06259 -19.04633 -18.97439 -14.20429 -14.19644
 Alpha  occ. eigenvalues --  -10.16211 -10.10638 -10.10220 -10.09326 -10.08958
 Alpha  occ. eigenvalues --  -10.08897 -10.08862 -10.08612 -10.06073 -10.05896
 Alpha  occ. eigenvalues --  -10.05127  -0.99153  -0.98127  -0.88759  -0.83111
 Alpha  occ. eigenvalues --   -0.79641  -0.69229  -0.67636  -0.66349  -0.61036
 Alpha  occ. eigenvalues --   -0.57970  -0.55966  -0.54484  -0.49600  -0.47907
 Alpha  occ. eigenvalues --   -0.46445  -0.42673  -0.41395  -0.39769  -0.38523
 Alpha  occ. eigenvalues --   -0.36612  -0.36286  -0.36143  -0.34782  -0.34084
 Alpha  occ. eigenvalues --   -0.32686  -0.32123  -0.31706  -0.31164  -0.29600
 Alpha  occ. eigenvalues --   -0.29381  -0.28385  -0.27221  -0.26589  -0.26402
 Alpha  occ. eigenvalues --   -0.25115  -0.24236  -0.23760  -0.22358  -0.20582
 Alpha  occ. eigenvalues --   -0.16761  -0.15709  -0.12964  -0.12147  -0.11112
 Alpha  occ. eigenvalues --    0.04798
 Alpha virt. eigenvalues --    0.06508   0.07233   0.07719   0.08078   0.08620
 Alpha virt. eigenvalues --    0.09761   0.10159   0.10386   0.10811   0.11503
 Alpha virt. eigenvalues --    0.11856   0.12639   0.13053   0.13304   0.13888

  Beta  occ. eigenvalues --  -19.06055 -19.04568 -18.97290 -14.20423 -14.19630
  Beta  occ. eigenvalues --  -10.15954 -10.10646 -10.10210 -10.09318 -10.08886
  Beta  occ. eigenvalues --  -10.08849 -10.08603 -10.08561 -10.06053 -10.05906
  Beta  occ. eigenvalues --  -10.05146  -0.98791  -0.97887  -0.88510  -0.83096
  Beta  occ. eigenvalues --   -0.79614  -0.69100  -0.67594  -0.66170  -0.60874
  Beta  occ. eigenvalues --   -0.57924  -0.55838  -0.53999  -0.49546  -0.47823
  Beta  occ. eigenvalues --   -0.46349  -0.42485  -0.41261  -0.39709  -0.38447
  Beta  occ. eigenvalues --   -0.36539  -0.36181  -0.35892  -0.34656  -0.33378
  Beta  occ. eigenvalues --   -0.32517  -0.31716  -0.31474  -0.30773  -0.29455
  Beta  occ. eigenvalues --   -0.29253  -0.28312  -0.27115  -0.26549  -0.26332
  Beta  occ. eigenvalues --   -0.24976  -0.24199  -0.23728  -0.22327  -0.19855
  Beta  occ. eigenvalues --   -0.16289  -0.15569  -0.12829  -0.11801  -0.10403
  Beta virt. eigenvalues --    0.06825   0.07580   0.07992   0.08129   0.08750
  Beta virt. eigenvalues --    0.09886   0.10070   0.10353   0.10411   0.10965
  Beta virt. eigenvalues --    0.11615   0.12240   0.12607   0.13173   0.13480

 Mulliken charges and spin densities:
               1          2
     1  C    0.713153  -1.041369
     2  C    0.038043  -0.440193
     3  N   -0.279069   0.177158
     4  C    0.553239  -1.197215
     5  C   -0.810323   0.637339
     6  N    0.129639   0.122056
     7  C   -0.525283   0.101354
     8  C   -0.483348  -0.331752
     9  C   -0.360717   0.120881
    10  C    0.455420   0.111679
    11  C    0.141883  -0.423624
    12  C   -0.662896   0.640941
    13  O    0.029968   0.025015
    14  C    0.344407   0.013334
    15  O   -0.399916   0.056270
    16  O   -0.210740   0.010457
    17  H   -0.169291   0.308415
    18  H   -0.184723   0.327446
    19  H   -0.274797   0.458846
    20  H    0.146655  -0.011075
    21  H    0.030349   0.193752
    22  H   -0.002707   0.162740
    23  H    0.035945   0.118999
    24  H    0.030208   0.093859
    25  H    0.094662   0.071245
    26  H    0.081643   0.101135
    27  H    0.005294   0.162814
    28  H    0.086647   0.085521
    29  H   -0.007409   0.194580
    30  H    0.100480   0.090071
    31  H    0.103138   0.047731
    32  H    0.250446   0.011590
 Sum of Mulliken charges =  -1.00000   1.00000

 Dipole moment (field-independent basis, Debye):
    X=              0.4275    Y=              2.0575    Z=              3.2669  Tot=              3.8845
 Quadrupole moment (field-independent basis, Debye-Ang):
   XX=           -186.4801   YY=           -119.2934   ZZ=           -120.5320
   XY=              4.6278   XZ=             -0.0598   YZ=             -0.7031

 Summary of Natural Population Analysis:

                                       Natural Population
                Natural  -----------------------------------------------
    Atom  No    Charge         Core      Valence    Rydberg      Total
 -----------------------------------------------------------------------
      C    1   -0.20051      0.99962     2.19158    0.00931     3.20051
      C    2   -0.08900      0.99962     2.07613    0.01325     3.08900
      N    3   -0.34148      0.99976     2.82952    0.01220     3.84148
      C    4   -0.08631      0.99961     2.07553    0.01117     3.08631
      C    5   -0.09196      0.99960     2.08230    0.01006     3.09196
      N    6   -0.28392      0.99971     2.77160    0.01261     3.78392
      C    7   -0.09034      0.99960     2.07747    0.01326     3.09034
      C    8   -0.10214      0.99957     2.09006    0.01251     3.10214
      C    9    0.12517      0.99946     1.86234    0.01303     2.87483
      C   10   -0.13509      0.99946     2.12830    0.00733     3.13509
      C   11   -0.14133      0.99947     2.13030    0.01156     3.14133
      C   12    0.17466      0.99948     1.81170    0.01416     2.82534
      O   13   -0.22278      0.99986     3.21489    0.00803     4.22278
      C   14    0.42452      0.99965     1.55191    0.02392     2.57548
      O   15   -0.31427      0.99987     3.30863    0.00576     4.31427
      O   16   -0.35072      0.99988     3.34447    0.00637     4.35072
      H   17    0.09456      0.00000     0.40378    0.00166     0.40544
      H   18    0.09589      0.00000     0.40256    0.00155     0.40411
      H   19    0.09182      0.00000     0.40708    0.00110     0.40818
      H   20    0.09070      0.00000     0.40759    0.00172     0.40930
      H   21    0.17102      0.00000     0.32628    0.00269     0.32898
      H   22    0.08857      0.00000     0.40989    0.00154     0.41143
      H   23    0.09084      0.00000     0.40815    0.00101     0.40916
      H   24    0.09468      0.00000     0.40394    0.00138     0.40532
      H   25    0.08357      0.00000     0.41449    0.00194     0.41643
      H   26    0.10269      0.00000     0.39551    0.00179     0.39731
      H   27    0.08456      0.00000     0.41350    0.00193     0.41544
      H   28    0.10047      0.00000     0.39863    0.00090     0.39953
      H   29    0.10291      0.00000     0.39595    0.00114     0.39709
      H   30    0.10958      0.00000     0.38931    0.00111     0.39042
      H   31    0.09252      0.00000     0.40662    0.00086     0.40748
      H   32    0.23112      0.00000     0.26473    0.00415     0.26888
 =======================================================================
   * Total *   -0.00000     15.99423    43.79474    0.21103    60.00000

 Normal termination of Gaussian 16 at Fri Dec 11 01:51:06 2020.
