 Gaussian 16, Revision A.03,

 -----------------------------------------------------------
 # opt freq B3LYP/6-31G(d) empiricaldispersion=gd3bj scf=xqc
 -----------------------------------------------------------

 --------------------------------
 CID_106716067_JID_10689_neutraal
 --------------------------------
 Symbolic Z-matrix:
 Charge =  0 Multiplicity = 1

 SCF Done:  E(RB3LYP) =  -1214.53977395     A.U. after   15 cycles
 SCF Done:  E(RB3LYP) =  -1214.54494632     A.U. after   12 cycles
 SCF Done:  E(RB3LYP) =  -1214.54644637     A.U. after   12 cycles
 SCF Done:  E(RB3LYP) =  -1214.54725201     A.U. after   12 cycles
 SCF Done:  E(RB3LYP) =  -1214.54745554     A.U. after   11 cycles
 SCF Done:  E(RB3LYP) =  -1214.54757404     A.U. after   11 cycles
 SCF Done:  E(RB3LYP) =  -1214.54764925     A.U. after   11 cycles
 SCF Done:  E(RB3LYP) =  -1214.54767522     A.U. after   10 cycles
 SCF Done:  E(RB3LYP) =  -1214.54771359     A.U. after   10 cycles
 SCF Done:  E(RB3LYP) =  -1214.54775003     A.U. after   11 cycles
 SCF Done:  E(RB3LYP) =  -1214.54776430     A.U. after   10 cycles
 SCF Done:  E(RB3LYP) =  -1214.54777409     A.U. after   10 cycles
 SCF Done:  E(RB3LYP) =  -1214.54777481     A.U. after    8 cycles
 SCF Done:  E(RB3LYP) =  -1214.54777495     A.U. after    8 cycles
 Optimization completed.
    -- Stationary point found.
 Normal termination of Gaussian 16 at Sun Dec 13 13:14:13 2020.

 --------------------------------------------------------------------
 #N Geom=AllCheck Guess=TCheck SCRF=Check GenChk RB3LYP/6-31G(d) Freq
 --------------------------------------------------------------------

 Structure from the checkpoint file:  "JID_10689.chk"
 --------------------------------
 CID_106716067_JID_10689_neutraal
 --------------------------------
 Charge =  0 Multiplicity = 1

 SCF Done:  E(RB3LYP) =  -1214.54777495     A.U. after    1 cycles

  Exact polarizability: 334.404   7.348 221.358   3.759   2.193  87.960
 Approx polarizability: 435.942   8.188 398.546  10.202   2.665 137.345

 ******    1 imaginary frequencies (negative Signs) ******

                      1                      2                      3
                      A                      A                      A
 Frequencies --    -19.5837                25.1606                30.4422
 Red. masses --      1.1335                 3.1072                 3.1477
 Frc consts  --      0.0003                 0.0012                 0.0017
 IR Inten    --      0.2969                 0.5448                 2.5351

                      4                      5                      6
                      A                      A                      A
 Frequencies --     44.5657                58.7136                66.0911
 Red. masses --      4.1897                 4.1070                 5.9926
 Frc consts  --      0.0049                 0.0083                 0.0154
 IR Inten    --      0.0786                 0.5956                 2.8136

                      7                      8                      9
                      A                      A                      A
 Frequencies --     87.4829               114.8682               138.0230
 Red. masses --      5.1447                 4.4004                 4.0830
 Frc consts  --      0.0232                 0.0342                 0.0458
 IR Inten    --      0.3320                 0.4795                 0.6484

                     10                     11                     12
                      A                      A                      A
 Frequencies --    183.4620               198.3952               211.0742
 Red. masses --      3.1760                 2.5270                 3.9071
 Frc consts  --      0.0630                 0.0586                 0.1026
 IR Inten    --      0.9543                 0.0837                 3.3179

                     13                     14                     15
                      A                      A                      A
 Frequencies --    226.7185               246.7134               281.7659
 Red. masses --      2.0211                 5.5365                 3.0850
 Frc consts  --      0.0612                 0.1986                 0.1443
 IR Inten    --      1.1986                 2.0947                 0.4843

                     16                     17                     18
                      A                      A                      A
 Frequencies --    296.7327               322.5498               342.0469
 Red. masses --      6.3889                 3.0513                 4.0597
 Frc consts  --      0.3314                 0.1870                 0.2798
 IR Inten    --      2.7915                 0.6721                 2.1218

                     19                     20                     21
                      A                      A                      A
 Frequencies --    378.7313               393.7692               404.5835
 Red. masses --      4.5684                 2.8777                 1.3960
 Frc consts  --      0.3861                 0.2629                 0.1346
 IR Inten    --      6.5756                24.0297               144.3198

                     22                     23                     24
                      A                      A                      A
 Frequencies --    438.1247               497.7360               526.7411
 Red. masses --      3.3401                 1.3037                 4.0594
 Frc consts  --      0.3777                 0.1903                 0.6636
 IR Inten    --      7.2742               192.5309                26.7941

                     25                     26                     27
                      A                      A                      A
 Frequencies --    555.2569               577.7383               586.0704
 Red. masses --      5.0899                 3.8994                 5.0229
 Frc consts  --      0.9246                 0.7668                 1.0165
 IR Inten    --      3.5167                 3.9394                13.5396

                     28                     29                     30
                      A                      A                      A
 Frequencies --    610.6602               619.1284               656.0209
 Red. masses --      4.0377                 3.4857                 6.6515
 Frc consts  --      0.8871                 0.7872                 1.6866
 IR Inten    --     14.5890                 4.1147                 5.9432

                     31                     32                     33
                      A                      A                      A
 Frequencies --    672.5612               700.7278               712.0831
 Red. masses --      6.1738                 3.6369                 4.7124
 Frc consts  --      1.6454                 1.0522                 1.4078
 IR Inten    --      0.9058                 4.0899                 0.6086

                     34                     35                     36
                      A                      A                      A
 Frequencies --    716.7724               753.2007               783.0500
 Red. masses --      3.0497                 5.7895                 2.0824
 Frc consts  --      0.9232                 1.9351                 0.7523
 IR Inten    --      2.0093                 1.4634                19.2361

                     37                     38                     39
                      A                      A                      A
 Frequencies --    795.9271               796.0988               807.6990
 Red. masses --      1.7622                 1.6968                 2.2684
 Frc consts  --      0.6577                 0.6336                 0.8719
 IR Inten    --     15.2788                16.1706                42.3745

                     40                     41                     42
                      A                      A                      A
 Frequencies --    827.7453               834.9132               899.8877
 Red. masses --      1.5516                 2.4989                 1.4150
 Frc consts  --      0.6264                 1.0263                 0.6751
 IR Inten    --     63.6256                 7.6463                 6.8516

                     43                     44                     45
                      A                      A                      A
 Frequencies --    912.8339               936.1772               963.3011
 Red. masses --      1.4278                 5.3092                 2.2876
 Frc consts  --      0.7010                 2.7415                 1.2507
 IR Inten    --      0.3478                11.4177                 3.7144

                     46                     47                     48
                      A                      A                      A
 Frequencies --   1001.6898              1003.3942              1038.7339
 Red. masses --      3.8127                 8.4554                 2.3413
 Frc consts  --      2.2540                 5.0157                 1.4884
 IR Inten    --     18.6511                 3.8611                13.8957

                     49                     50                     51
                      A                      A                      A
 Frequencies --   1044.8991              1078.3216              1085.5586
 Red. masses --      2.8326                 1.8099                 1.6208
 Frc consts  --      1.8222                 1.2399                 1.1254
 IR Inten    --     14.1847                 8.9332                35.0736

                     52                     53                     54
                      A                      A                      A
 Frequencies --   1093.0989              1100.1454              1118.9852
 Red. masses --      1.5752                 1.4948                 1.8976
 Frc consts  --      1.1089                 1.0660                 1.3999
 IR Inten    --      6.4532                 8.2050                17.6399

                     55                     56                     57
                      A                      A                      A
 Frequencies --   1161.7678              1179.8592              1196.7327
 Red. masses --      1.3059                 2.8587                 3.0531
 Frc consts  --      1.0385                 2.3446                 2.5762
 IR Inten    --      0.0199                13.3526                18.2332

                     58                     59                     60
                      A                      A                      A
 Frequencies --   1219.3741              1232.8411              1246.2767
 Red. masses --      1.6101                 1.6905                 1.4274
 Frc consts  --      1.4106                 1.5139                 1.3063
 IR Inten    --      6.5886                83.2343                14.9599

                     61                     62                     63
                      A                      A                      A
 Frequencies --   1301.0965              1313.1291              1330.6095
 Red. masses --      1.5915                 4.3911                 3.4878
 Frc consts  --      1.5874                 4.4611                 3.6383
 IR Inten    --      4.8414                10.5760                 4.8145

                     64                     65                     66
                      A                      A                      A
 Frequencies --   1360.8696              1380.5102              1389.5230
 Red. masses --      1.5895                 3.9640                 2.1621
 Frc consts  --      1.7344                 4.4511                 2.4596
 IR Inten    --     43.8928                57.2475                36.5163

                     67                     68                     69
                      A                      A                      A
 Frequencies --   1403.9083              1436.6716              1440.7561
 Red. masses --      5.7757                 1.2610                 5.9130
 Frc consts  --      6.7071                 1.5335                 7.2317
 IR Inten    --     27.4636                 1.5956               185.5515

                     70                     71                     72
                      A                      A                      A
 Frequencies --   1466.2067              1482.9935              1487.3288
 Red. masses --      2.0752                 2.5443                 3.6225
 Frc consts  --      2.6285                 3.2968                 4.7214
 IR Inten    --    120.2579                18.1844               124.7242

                     73                     74                     75
                      A                      A                      A
 Frequencies --   1502.8404              1508.5580              1511.8038
 Red. masses --      1.0421                 2.3991                 1.0779
 Frc consts  --      1.3866                 3.2168                 1.4515
 IR Inten    --      6.6643                 2.7259                 6.3128

                     76                     77                     78
                      A                      A                      A
 Frequencies --   1525.7319              1530.8582              1542.0074
 Red. masses --      1.0435                 1.5421                 2.2898
 Frc consts  --      1.4312                 2.1293                 3.2079
 IR Inten    --      8.5207                81.4301               191.9877

                     79                     80                     81
                      A                      A                      A
 Frequencies --   1552.8392              1597.6395              1614.3339
 Red. masses --      1.3448                 6.9837                 4.9238
 Frc consts  --      1.9105                10.5025                 7.5603
 IR Inten    --     20.3450               480.4521                17.1169

                     82                     83                     84
                      A                      A                      A
 Frequencies --   1621.1746              1635.0815              1674.0479
 Red. masses --      5.2750                 4.9020                 1.4716
 Frc consts  --      8.1683                 7.7215                 2.4298
 IR Inten    --      8.7398               485.8704               368.0670

                     85                     86                     87
                      A                      A                      A
 Frequencies --   3039.6972              3053.1517              3073.8266
 Red. masses --      1.0628                 1.0347                 1.0320
 Frc consts  --      5.7857                 5.6827                 5.7449
 IR Inten    --     37.7385                36.8424                58.0224

                     88                     89                     90
                      A                      A                      A
 Frequencies --   3080.5571              3123.2279              3130.2508
 Red. masses --      1.1004                 1.1026                 1.1036
 Frc consts  --      6.1523                 6.3371                 6.3713
 IR Inten    --     10.0549                51.5307                28.3877

                     91                     92                     93
                      A                      A                      A
 Frequencies --   3142.7782              3166.9740              3206.5567
 Red. masses --      1.1063                 1.1050                 1.0913
 Frc consts  --      6.4379                 6.5296                 6.6108
 IR Inten    --     13.2853                 9.4173                12.9651

                     94                     95                     96
                      A                      A                      A
 Frequencies --   3209.9829              3249.6254              3274.5043
 Red. masses --      1.0916                 1.0944                 1.0970
 Frc consts  --      6.6268                 6.8091                 6.9300
 IR Inten    --     17.6760                 1.4403                 0.7803

                     97                     98                     99
                      A                      A                      A
 Frequencies --   3288.2340              3579.5916              3695.7853
 Red. masses --      1.0965                 1.0465                 1.1014
 Frc consts  --      6.9853                 7.9002                 8.8636
 IR Inten    --      0.7610                45.6985                22.9670

 - Thermochemistry -
 -------------------
 Temperature   298.150 Kelvin.  Pressure   1.00000 Atm.
 Atom     1 has atomic number  6 and mass  12.00000

 Molecular mass:   285.10482 amu.
 Principal axes and moments of inertia in atomic units:
                           1         2         3
     Eigenvalues --  2608.27043********************
           X            0.99996   0.00811  -0.00288
           Y           -0.00810   0.99996   0.00332
           Z            0.00290  -0.00329   0.99999
 This molecule is an asymmetric top.
 Rotational symmetry number  1.
 Warning -- assumption of classical behavior for rotation
           may cause significant error
 Rotational temperatures (Kelvin)      0.03321     0.00647     0.00548
 Rotational constants (GHZ):           0.69193     0.13480     0.11419
    1 imaginary frequencies ignored.
 Zero-point vibrational energy     729478.5 (Joules/Mol)
                                  174.34955 (Kcal/Mol)
 Warning -- explicit consideration of  28 degrees of freedom as
           vibrations may cause significant error
 Vibrational temperatures:     36.20    43.80    64.12    84.48    95.09
          (Kelvin)            125.87   165.27   198.58   263.96   285.45
                              303.69   326.20   354.97   405.40   426.93
                              464.08   492.13   544.91   566.55   582.11
                              630.36   716.13   757.86   798.89   831.24
                              843.22   878.60   890.79   943.87   967.67
                             1008.19  1024.53  1031.28  1083.69  1126.63
                             1145.16  1145.41  1162.10  1190.94  1201.25
                             1294.74  1313.36  1346.95  1385.98  1441.21
                             1443.66  1494.51  1503.38  1551.46  1561.88
                             1572.73  1582.86  1609.97  1671.52  1697.55
                             1721.83  1754.41  1773.78  1793.11  1871.99
                             1889.30  1914.45  1957.99  1986.25  1999.21
                             2019.91  2067.05  2072.93  2109.54  2133.70
                             2139.93  2162.25  2170.48  2175.15  2195.19
                             2202.56  2218.60  2234.19  2298.65  2322.67
                             2332.51  2352.52  2408.58  4373.45  4392.80
                             4422.55  4432.23  4493.63  4503.73  4521.76
                             4556.57  4613.52  4618.45  4675.49  4711.28
                             4731.04  5150.23  5317.41

 Zero-point correction=                           0.277844 (Hartree/Particle)
 Thermal correction to Energy=                    0.295686
 Thermal correction to Enthalpy=                  0.296630
 Thermal correction to Gibbs Free Energy=         0.229721
 Sum of electronic and zero-point Energies=          -1214.269931
 Sum of electronic and thermal Energies=             -1214.252089
 Sum of electronic and thermal Enthalpies=           -1214.251145
 Sum of electronic and thermal Free Energies=        -1214.318053

                     E (Thermal)             CV                S
                      KCal/Mol        Cal/Mol-Kelvin    Cal/Mol-Kelvin
 Total                  185.545             67.648            140.820
 Electronic               0.000              0.000              0.000
 Translational            0.889              2.981             42.841
 Rotational               0.889              2.981             34.667
 Vibrational            183.768             61.686             63.313
 Vibration     1          0.593              1.985              6.178
 Vibration     2          0.594              1.984              5.800
 Vibration     3          0.595              1.980              5.045
 Vibration     4          0.596              1.974              4.500
 Vibration     5          0.597              1.970              4.267
 Vibration     6          0.601              1.958              3.716
 Vibration     7          0.608              1.937              3.185
 Vibration     8          0.614              1.915              2.831
 Vibration     9          0.631              1.862              2.293
 Vibration    10          0.637              1.842              2.148
 Vibration    11          0.643              1.824              2.034
 Vibration    12          0.650              1.800              1.905
 Vibration    13          0.661              1.768              1.754
 Vibration    14          0.681              1.707              1.523
 Vibration    15          0.690              1.680              1.435
 Vibration    16          0.708              1.630              1.297
 Vibration    17          0.721              1.591              1.203
 Vibration    18          0.749              1.515              1.044
 Vibration    19          0.761              1.483              0.986
 Vibration    20          0.770              1.460              0.946
 Vibration    21          0.798              1.387              0.833
 Vibration    22          0.853              1.255              0.664
 Vibration    23          0.882              1.191              0.595
 Vibration    24          0.911              1.128              0.533
 Vibration    25          0.934              1.079              0.490
 Vibration    26          0.943              1.062              0.474
 Vibration    27          0.970              1.009              0.432
 Vibration    28          0.979              0.992              0.418

                           ! Non-Optimized Parameters !
 Normal termination of Gaussian 16 at Sun Dec 13 13:29:04 2020.

 ----------------------------------------------------------------------
 # B3LYP/6-311++G(d,p) empiricaldispersion=gd3bj scf=xqc pop=npa geom=c
 heck
 ----------------------------------------------------------------------

 ----------------------------------------
 CID_106716067_JID_10689_Energie_neutraal
 ----------------------------------------
 Structure from the checkpoint file:  "JID_10689.chk"
 Charge =  0 Multiplicity = 1

 SCF Done:  E(RB3LYP) =  -1214.78923284     A.U. after   15 cycles
 Normal termination of Gaussian 16 at Sun Dec 13 13:36:05 2020.

 ----------------------------------------------------------------------
 # B3LYP/6-311++G(d,p) empiricaldispersion=gd3bj scf=xqc pop=npa geom=c
 heck
 ----------------------------------------------------------------------

 --------------------------------------
 CID_106716067_JID_10689_Energie_kation
 --------------------------------------
 Structure from the checkpoint file:  "JID_10689.chk"
 Charge =  1 Multiplicity = 2

 SCF Done:  E(UB3LYP) =  -1214.52094896     A.U. after   25 cycles
 Normal termination of Gaussian 16 at Sun Dec 13 13:51:42 2020.
 Gaussian 16:  ES64L-G16RevA.03 25-Dec-2016

 ----------------------------------------------------------------------
 # B3LYP/6-311++G(d,p) empiricaldispersion=gd3bj scf=xqc pop=npa geom=c
 heck
 ----------------------------------------------------------------------

 -------------------------------------
 CID_106716067_JID_10689_Energie_anion
 -------------------------------------
 Structure from the checkpoint file:  "JID_10689.chk"
 Charge = -1 Multiplicity = 2

                         Standard orientation:
 ---------------------------------------------------------------------
 Center     Atomic      Atomic             Coordinates (Angstroms)
 Number     Number       Type             X           Y           Z
 ---------------------------------------------------------------------
      1          6           0       -6.285948   -0.537669    1.015198
      2          6           0       -5.633251   -1.025886   -0.288771
      3          6           0       -4.133359   -0.978967   -0.258251
      4          6           0       -3.255979   -2.036378   -0.238575
      5          6           0       -1.892348   -1.639889   -0.179088
      6          6           0       -1.731763   -0.275311   -0.152162
      7         16           0       -3.277041    0.541919   -0.200194
      8          6           0       -0.487889    0.485379   -0.094499
      9          7           0        0.652212   -0.217111   -0.060254
     10          6           0        1.797535    0.495506   -0.006174
     11          6           0        1.790559    1.890421    0.013274
     12          6           0        0.537901    2.524177   -0.024987
     13          7           0       -0.604400    1.824007   -0.075007
     14          7           0        0.414415    3.891298   -0.053058
     15          6           0        3.033264   -0.280643    0.030864
     16          6           0        4.351770    0.159957    0.073079
     17          7           0        5.136088   -0.943835    0.093801
     18          7           0        4.415410   -2.094085    0.067948
     19          6           0        3.148313   -1.695439    0.029617
     20          6           0        6.582216   -1.013856    0.138103
     21          1           0       -5.944067   -1.136429    1.865805
     22          1           0       -7.377435   -0.611997    0.954934
     23          1           0       -6.026379    0.507016    1.216729
     24          1           0       -5.932430   -2.062363   -0.485171
     25          1           0       -6.012035   -0.428942   -1.129047
     26          1           0       -3.585165   -3.070197   -0.268185
     27          1           0       -1.045869   -2.314852   -0.157461
     28          1           0        2.708776    2.466887    0.048573
     29          1           0       -0.515697    4.236278    0.143895
     30          1           0        1.173902    4.444248    0.316906
     31          1           0        4.778929    1.152207    0.087200
     32          1           0        2.342528   -2.414049    0.001769
     33          1           0        6.903599   -1.541237    1.040474
     34          1           0        6.956748   -1.548402   -0.739078
     35          1           0        6.985058    0.000807    0.145973
 ---------------------------------------------------------------------

 SCF Done:  E(UB3LYP) =  -1214.79797329     A.U. after   33 cycles
 SCF Done:  E(UB3LYP) =  -1214.79797329     a.u. after    1 cycles

 The electronic state is 2-A.
 Alpha  occ. eigenvalues --  -88.72790 -14.28287 -14.22053 -14.21149 -14.15670
 Alpha  occ. eigenvalues --  -14.14943 -10.13043 -10.11778 -10.09400 -10.08359
 Alpha  occ. eigenvalues --  -10.07753 -10.07593 -10.07207 -10.06319 -10.05917
 Alpha  occ. eigenvalues --  -10.05485 -10.05054 -10.03900 -10.02608 -10.02580
 Alpha  occ. eigenvalues --   -7.81421  -5.77708  -5.77352  -5.77026  -0.94440
 Alpha  occ. eigenvalues --   -0.84911  -0.80057  -0.74608  -0.74169  -0.72686
 Alpha  occ. eigenvalues --   -0.68405  -0.67188  -0.64202  -0.60592  -0.59414
 Alpha  occ. eigenvalues --   -0.58559  -0.53611  -0.52569  -0.50211  -0.47494
 Alpha  occ. eigenvalues --   -0.46529  -0.43780  -0.41831  -0.41468  -0.39907
 Alpha  occ. eigenvalues --   -0.38610  -0.38311  -0.35659  -0.35403  -0.34080
 Alpha  occ. eigenvalues --   -0.33700  -0.33379  -0.31757  -0.31243  -0.30663
 Alpha  occ. eigenvalues --   -0.29550  -0.29045  -0.28353  -0.27731  -0.26472
 Alpha  occ. eigenvalues --   -0.25971  -0.24027  -0.23794  -0.22819  -0.22184
 Alpha  occ. eigenvalues --   -0.20291  -0.18954  -0.18309  -0.15981  -0.15368
 Alpha  occ. eigenvalues --   -0.12209  -0.11780  -0.11385  -0.11224  -0.08320
 Alpha  occ. eigenvalues --    0.03840
 Alpha virt. eigenvalues --    0.05824   0.06981   0.07258   0.08658   0.08839
 Alpha virt. eigenvalues --    0.09199   0.09747   0.10022   0.10483   0.10618
 Alpha virt. eigenvalues --    0.11767   0.11850   0.11974   0.12875   0.13358

  Beta  occ. eigenvalues --  -88.72763 -14.28187 -14.22076 -14.21154 -14.15771
  Beta  occ. eigenvalues --  -14.14680 -10.13046 -10.11831 -10.09277 -10.08080
  Beta  occ. eigenvalues --  -10.07589 -10.07583 -10.07226 -10.06290 -10.05650
  Beta  occ. eigenvalues --  -10.05499 -10.05040 -10.03979 -10.02395 -10.02392
  Beta  occ. eigenvalues --   -7.81396  -5.77697  -5.77341  -5.76930  -0.94332
  Beta  occ. eigenvalues --   -0.84662  -0.79973  -0.74466  -0.74003  -0.72383
  Beta  occ. eigenvalues --   -0.68248  -0.67054  -0.63887  -0.60515  -0.59243
  Beta  occ. eigenvalues --   -0.58239  -0.53273  -0.52447  -0.50090  -0.47400
  Beta  occ. eigenvalues --   -0.46393  -0.43621  -0.41706  -0.41344  -0.39712
  Beta  occ. eigenvalues --   -0.38419  -0.38178  -0.35563  -0.35307  -0.33981
  Beta  occ. eigenvalues --   -0.33623  -0.33261  -0.31621  -0.31130  -0.30294
  Beta  occ. eigenvalues --   -0.29188  -0.28692  -0.28299  -0.27559  -0.26361
  Beta  occ. eigenvalues --   -0.25861  -0.23678  -0.23601  -0.22707  -0.21759
  Beta  occ. eigenvalues --   -0.20136  -0.18962  -0.17214  -0.15793  -0.15028
  Beta  occ. eigenvalues --   -0.11630  -0.11212  -0.11018  -0.10700  -0.07199
  Beta virt. eigenvalues --    0.05744   0.06855   0.07206   0.08306   0.08745
  Beta virt. eigenvalues --    0.09103   0.09380   0.09921   0.10329   0.10408
  Beta virt. eigenvalues --    0.10546   0.11698   0.11914   0.12191   0.12797

 Mulliken charges and spin densities:
               1          2
     1  C   -0.420315  -0.126529
     2  C   -0.787784   0.046446
     3  C    0.159653   0.123539
     4  C   -0.079384  -0.080623
     5  C    0.227829   0.155026
     6  C    0.526008  -0.020124
     7  S   -0.603292   0.067939
     8  C   -0.668727   0.159007
     9  N    0.042434  -0.062558
    10  C    0.278283   0.071974
    11  C   -0.849219   0.262601
    12  C    0.232119  -0.076429
    13  N   -0.112276   0.121180
    14  N   -0.316735  -0.002964
    15  C   -0.674581  -0.057751
    16  C    0.015362   0.176291
    17  N    0.304112   0.008700
    18  N   -0.312861  -0.002934
    19  C    0.247266   0.008895
    20  C   -0.264690  -0.017897
    21  H    0.133324   0.005975
    22  H    0.011202   0.089063
    23  H    0.135193  -0.002605
    24  H    0.114415   0.024082
    25  H    0.059901   0.079861
    26  H    0.127316   0.007539
    27  H    0.118096  -0.009105
    28  H    0.097786  -0.022045
    29  H    0.263100  -0.003727
    30  H    0.193108   0.030698
    31  H    0.147140   0.011806
    32  H    0.249734   0.000504
    33  H    0.139180   0.024167
    34  H    0.159986   0.001365
    35  H    0.107320   0.008635
 Sum of Mulliken charges =  -1.00000   1.00000

 Dipole moment (field-independent basis, Debye):
    X=              3.8120    Y=              2.1500    Z=              0.8861  Tot=              4.4653
 Quadrupole moment (field-independent basis, Debye-Ang):
   XX=           -170.4353   YY=           -138.7343   ZZ=           -139.3986
   XY=             11.0669   XZ=             -1.3743   YZ=              3.6510

 Summary of Natural Population Analysis:

                                       Natural Population
                Natural  -----------------------------------------------
    Atom  No    Charge         Core      Valence    Rydberg      Total
 -----------------------------------------------------------------------
      C    1   -0.27902      0.99967     2.27425    0.00511     3.27902
      C    2   -0.20401      0.99959     2.19565    0.00876     3.20401
      C    3   -0.05464      0.99950     2.04220    0.01293     3.05464
      C    4   -0.15597      0.99947     2.14714    0.00936     3.15597
      C    5   -0.07485      0.99949     2.06640    0.00897     3.07485
      C    6   -0.11071      0.99945     2.09890    0.01236     3.11071
      S    7    0.21302      4.99939     2.76757    0.02001     7.78698
      C    8    0.24377      0.99953     1.73913    0.01758     2.75623
      N    9   -0.28078      0.99967     2.77202    0.00909     3.78078
      C   10    0.12455      0.99955     1.86071    0.01518     2.87545
      C   11   -0.09605      0.99945     2.08734    0.00926     3.09605
      C   12    0.17967      0.99964     1.80131    0.01938     2.82033
      N   13   -0.24786      0.99964     2.73786    0.01036     3.74786
      N   14   -0.39188      0.99971     2.88780    0.00437     3.89188
      C   15   -0.08952      0.99951     2.07769    0.01232     3.08952
      C   16    0.02528      0.99949     1.96363    0.01160     2.97472
      N   17   -0.10469      0.99967     2.59097    0.01405     3.60469
      N   18   -0.16996      0.99973     2.65855    0.01169     3.66996
      C   19    0.00958      0.99961     1.97723    0.01358     2.99042
      C   20   -0.16050      0.99966     2.15554    0.00530     3.16050
      H   21    0.09681      0.00000     0.40189    0.00130     0.40319
      H   22    0.08886      0.00000     0.40925    0.00189     0.41114
      H   23    0.09838      0.00000     0.40026    0.00135     0.40162
      H   24    0.09708      0.00000     0.40111    0.00181     0.40292
      H   25    0.09803      0.00000     0.39993    0.00204     0.40197
      H   26    0.09559      0.00000     0.40329    0.00112     0.40441
      H   27    0.10730      0.00000     0.39165    0.00105     0.39270
      H   28    0.08856      0.00000     0.40908    0.00236     0.41144
      H   29    0.18855      0.00000     0.30927    0.00218     0.31145
      H   30    0.18193      0.00000     0.31661    0.00146     0.31807
      H   31    0.09920      0.00000     0.39999    0.00082     0.40080
      H   32    0.10556      0.00000     0.39348    0.00096     0.39444
      H   33    0.09499      0.00000     0.40258    0.00243     0.40501
      H   34    0.09576      0.00000     0.40290    0.00134     0.40424
      H   35    0.09408      0.00000     0.40509    0.00083     0.40592
 =======================================================================
   * Total *    0.00610     23.99141    50.74829    0.25421    74.99390

 Normal termination of Gaussian 16 at Sun Dec 13 14:12:44 2020.
