 Gaussian 16, Revision A.03,

 -----------------------------------------------------------
 # opt freq B3LYP/6-31G(d) empiricaldispersion=gd3bj scf=xqc
 -----------------------------------------------------------

 ------------------------------
 CID_78826667_JID_8014_neutraal
 ------------------------------
 Symbolic Z-matrix:
 Charge =  0 Multiplicity = 1

 SCF Done:  E(RB3LYP) =  -784.452566493     A.U. after   14 cycles
 SCF Done:  E(RB3LYP) =  -784.456198945     A.U. after   12 cycles
 SCF Done:  E(RB3LYP) =  -784.456954044     A.U. after   12 cycles
 SCF Done:  E(RB3LYP) =  -784.457143515     A.U. after   12 cycles
 SCF Done:  E(RB3LYP) =  -784.457181576     A.U. after   12 cycles
 SCF Done:  E(RB3LYP) =  -784.457221566     A.U. after   10 cycles
 SCF Done:  E(RB3LYP) =  -784.457232847     A.U. after   10 cycles
 SCF Done:  E(RB3LYP) =  -784.457239392     A.U. after    9 cycles
 SCF Done:  E(RB3LYP) =  -784.457241550     A.U. after    9 cycles
 SCF Done:  E(RB3LYP) =  -784.457242875     A.U. after    9 cycles
 SCF Done:  E(RB3LYP) =  -784.457244167     A.U. after   10 cycles
 SCF Done:  E(RB3LYP) =  -784.457245023     A.U. after   10 cycles
 SCF Done:  E(RB3LYP) =  -784.457245284     A.U. after    8 cycles
 SCF Done:  E(RB3LYP) =  -784.457245300     A.U. after    7 cycles
 Optimization completed.
    -- Stationary point found.
 Normal termination of Gaussian 16 at Fri Dec 11 18:37:57 2020.

 --------------------------------------------------------------------
 #N Geom=AllCheck Guess=TCheck SCRF=Check GenChk RB3LYP/6-31G(d) Freq
 --------------------------------------------------------------------

 Structure from the checkpoint file:  "JID_8014.chk"
 ------------------------------
 CID_78826667_JID_8014_neutraal
 ------------------------------
 Charge =  0 Multiplicity = 1

 SCF Done:  E(RB3LYP) =  -784.457245300     A.U. after    1 cycles

  Exact polarizability: 189.623 -28.589 158.212   8.298   9.772 138.216
 Approx polarizability: 237.540 -45.014 235.034  18.551  29.280 246.683

                      1                      2                      3
                      A                      A                      A
 Frequencies --     21.0911                27.0137                33.4880
 Red. masses --      5.1327                 4.5095                 3.8827
 Frc consts  --      0.0013                 0.0019                 0.0026
 IR Inten    --      3.9006                 1.9559                 0.0239

                      4                      5                      6
                      A                      A                      A
 Frequencies --     54.7371                60.3338                70.0978
 Red. masses --      3.6181                 3.0458                 3.9011
 Frc consts  --      0.0064                 0.0065                 0.0113
 IR Inten    --      1.1520                 0.4269                 0.4477

                      7                      8                      9
                      A                      A                      A
 Frequencies --    112.1851               133.7223               148.5493
 Red. masses --      3.3863                 1.0911                 3.6409
 Frc consts  --      0.0251                 0.0115                 0.0473
 IR Inten    --      1.7008                 0.1011                 0.2792

                     10                     11                     12
                      A                      A                      A
 Frequencies --    204.4952               209.3931               231.0640
 Red. masses --      1.7152                 2.8048                 1.7222
 Frc consts  --      0.0423                 0.0725                 0.0542
 IR Inten    --      0.4147                 1.5807                 1.4280

                     13                     14                     15
                      A                      A                      A
 Frequencies --    241.8910               257.0808               271.6126
 Red. masses --      1.3542                 2.7464                 2.4508
 Frc consts  --      0.0467                 0.1069                 0.1065
 IR Inten    --      0.4064                 0.9707                 2.2708

                     16                     17                     18
                      A                      A                      A
 Frequencies --    310.4463               337.6313               376.8730
 Red. masses --      3.0353                 3.6052                 4.0604
 Frc consts  --      0.1724                 0.2421                 0.3398
 IR Inten    --      0.6451                 0.2165                 0.1497

                     19                     20                     21
                      A                      A                      A
 Frequencies --    411.7499               414.1564               416.2867
 Red. masses --      3.5660                 2.5536                 2.7780
 Frc consts  --      0.3562                 0.2581                 0.2836
 IR Inten    --      3.6583                 0.1775                 0.0747

                     22                     23                     24
                      A                      A                      A
 Frequencies --    426.8229               517.6628               571.0330
 Red. masses --      2.7236                 3.7151                 3.5456
 Frc consts  --      0.2923                 0.5866                 0.6812
 IR Inten    --      0.6913                 0.4100                12.5401

                     25                     26                     27
                      A                      A                      A
 Frequencies --    634.2223               637.1493               664.2371
 Red. masses --      3.9963                 5.8499                 4.2689
 Frc consts  --      0.9471                 1.3992                 1.1097
 IR Inten    --      4.8520                 0.7310                 0.5212

                     28                     29                     30
                      A                      A                      A
 Frequencies --    679.3086               714.5253               720.7298
 Red. masses --      6.1906                 1.7400                 5.1312
 Frc consts  --      1.6831                 0.5234                 1.5704
 IR Inten    --      1.0230                37.0934                20.7314

                     31                     32                     33
                      A                      A                      A
 Frequencies --    764.5237               780.3930               810.5441
 Red. masses --      1.7045                 2.5193                 4.5194
 Frc consts  --      0.5870                 0.9040                 1.7494
 IR Inten    --     53.6199                 8.5549                42.0428

                     34                     35                     36
                      A                      A                      A
 Frequencies --    851.1419               861.1930               882.1359
 Red. masses --      1.8642                 1.3467                 2.4684
 Frc consts  --      0.7957                 0.5885                 1.1317
 IR Inten    --     21.7525                 7.2178                10.3436

                     37                     38                     39
                      A                      A                      A
 Frequencies --    923.6280               946.4638               953.3091
 Red. masses --      1.4666                 1.2796                 2.1037
 Frc consts  --      0.7371                 0.6753                 1.1264
 IR Inten    --      4.1885                 1.9567                25.6563

                     40                     41                     42
                      A                      A                      A
 Frequencies --    964.9667               969.5583               981.4892
 Red. masses --      1.3557                 1.8751                 1.5398
 Frc consts  --      0.7438                 1.0385                 0.8740
 IR Inten    --      0.0609                 4.0259                 4.6509

                     43                     44                     45
                      A                      A                      A
 Frequencies --    994.8568               996.0106              1005.6072
 Red. masses --      1.3540                 3.7243                 7.1835
 Frc consts  --      0.7896                 2.1769                 4.2800
 IR Inten    --      4.6076                29.4839                 8.2986

                     46                     47                     48
                      A                      A                      A
 Frequencies --   1021.9972              1031.2556              1061.1844
 Red. masses --      6.1139                 2.4035                 2.2157
 Frc consts  --      3.7624                 1.5060                 1.4701
 IR Inten    --      1.3535                 7.8772                 0.6733

                     49                     50                     51
                      A                      A                      A
 Frequencies --   1073.9375              1083.9589              1084.5542
 Red. masses --      2.4159                 2.1735                 2.2298
 Frc consts  --      1.6417                 1.5046                 1.5453
 IR Inten    --      6.5075                12.6297                 8.5370

                     52                     53                     54
                      A                      A                      A
 Frequencies --   1107.4665              1137.0237              1154.3252
 Red. masses --      1.7498                 3.3309                 2.3709
 Frc consts  --      1.2644                 2.5372                 1.8613
 IR Inten    --      7.6192                47.9682                 8.2886

                     55                     56                     57
                      A                      A                      A
 Frequencies --   1178.2161              1194.2200              1208.2048
 Red. masses --      1.9039                 1.1008                 1.7067
 Frc consts  --      1.5572                 0.9250                 1.4679
 IR Inten    --      3.2029                 0.1593                 9.8386

                     58                     59                     60
                      A                      A                      A
 Frequencies --   1215.7919              1221.7732              1233.9731
 Red. masses --      1.1660                 2.1808                 3.6439
 Frc consts  --      1.0155                 1.9180                 3.2691
 IR Inten    --      0.4357                 1.1114                29.4902

                     61                     62                     63
                      A                      A                      A
 Frequencies --   1269.1107              1296.8409              1332.2243
 Red. masses --      1.7288                 1.6582                 1.4677
 Frc consts  --      1.6406                 1.6430                 1.5347
 IR Inten    --     15.0406                10.3558                10.5846

                     64                     65                     66
                      A                      A                      A
 Frequencies --   1363.3956              1368.6827              1378.2206
 Red. masses --      1.3971                 2.4030                 1.5272
 Frc consts  --      1.5301                 2.6522                 1.7092
 IR Inten    --      0.7758                 0.5570                 7.4195

                     67                     68                     69
                      A                      A                      A
 Frequencies --   1392.0065              1398.2288              1421.4448
 Red. masses --      1.9179                 1.3766                 1.5164
 Frc consts  --      2.1895                 1.5856                 1.8052
 IR Inten    --      5.0701                 1.5388                13.3478

                     70                     71                     72
                      A                      A                      A
 Frequencies --   1427.5686              1446.4590              1449.2232
 Red. masses --      1.2683                 1.3726                 1.4152
 Frc consts  --      1.5229                 1.6921                 1.7513
 IR Inten    --      1.6282                12.1035                 1.3262

                     73                     74                     75
                      A                      A                      A
 Frequencies --   1503.4744              1504.3341              1509.7712
 Red. masses --      2.0752                 1.0432                 1.1342
 Frc consts  --      2.7638                 1.3909                 1.5232
 IR Inten    --      4.8553                 9.0663                13.9976

                     76                     77                     78
                      A                      A                      A
 Frequencies --   1513.0401              1517.8119              1521.5070
 Red. masses --      1.2110                 1.0526                 1.0557
 Frc consts  --      1.6335                 1.4287                 1.4399
 IR Inten    --     41.7318                 1.3373                 0.7735

                     79                     80                     81
                      A                      A                      A
 Frequencies --   1522.4899              1532.9743              1543.7553
 Red. masses --      1.0935                 1.0471                 1.0773
 Frc consts  --      1.4934                 1.4498                 1.5126
 IR Inten    --      2.1239                 5.5941                 7.7597

                     82                     83                     84
                      A                      A                      A
 Frequencies --   1546.5514              1624.2905              1639.8736
 Red. masses --      2.0874                 9.1286                 8.0592
 Frc consts  --      2.9415                14.1900                12.7692
 IR Inten    --      6.1296                44.1979                36.0754

                     85                     86                     87
                      A                      A                      A
 Frequencies --   1647.6660              1666.3837              2999.7845
 Red. masses --      5.4545                 5.5732                 1.0814
 Frc consts  --      8.7246                 9.1181                 5.7333
 IR Inten    --      1.3192                 2.2187                 7.8522

                     88                     89                     90
                      A                      A                      A
 Frequencies --   3023.6990              3028.6073              3042.5496
 Red. masses --      1.0797                 1.0678                 1.0398
 Frc consts  --      5.8158                 5.7706                 5.6712
 IR Inten    --     27.5081                24.1080                16.1800

                     91                     92                     93
                      A                      A                      A
 Frequencies --   3048.3021              3064.5428              3083.1744
 Red. masses --      1.0407                 1.0378                 1.0981
 Frc consts  --      5.6978                 5.7426                 6.1500
 IR Inten    --     50.2808                11.8634                11.5695

                     94                     95                     96
                      A                      A                      A
 Frequencies --   3102.5363              3110.0281              3121.0760
 Red. masses --      1.1001                 1.0991                 1.1017
 Frc consts  --      6.2393                 6.2635                 6.3229
 IR Inten    --      6.7116                62.6013                 7.7552

                     97                     98                     99
                      A                      A                      A
 Frequencies --   3136.1286              3151.7430              3171.3567
 Red. masses --      1.1006                 1.0987                 1.0866
 Frc consts  --      6.3780                 6.4302                 6.4391
 IR Inten    --     29.9178                18.6943                12.2666

                    100                    101                    102
                      A                      A                      A
 Frequencies --   3172.3211              3174.3801              3189.2868
 Red. masses --      1.1007                 1.0873                 1.0888
 Frc consts  --      6.5264                 6.4554                 6.5250
 IR Inten    --      2.7575                 6.9198                 3.4748

                    103                    104                    105
                      A                      A                      A
 Frequencies --   3198.6183              3211.3728              3477.2646
 Red. masses --      1.0934                 1.0978                 1.0735
 Frc consts  --      6.5912                 6.6703                 7.6477
 IR Inten    --     35.7033                24.5747                 0.4150

 - Thermochemistry -
 -------------------
 Temperature   298.150 Kelvin.  Pressure   1.00000 Atm.
 Atom     1 has atomic number  6 and mass  12.00000

 Molecular mass:   245.15281 amu.
 Principal axes and moments of inertia in atomic units:
                           1         2         3
     Eigenvalues --  2688.795808374.29869**********
           X            0.99999  -0.00342  -0.00237
           Y            0.00340   0.99998  -0.00564
           Z            0.00239   0.00564   0.99998
 This molecule is an asymmetric top.
 Rotational symmetry number  1.
 Warning -- assumption of classical behavior for rotation
           may cause significant error
 Rotational temperatures (Kelvin)      0.03221     0.01034     0.00852
 Rotational constants (GHZ):           0.67121     0.21551     0.17754
 Zero-point vibrational energy     828099.3 (Joules/Mol)
                                  197.92049 (Kcal/Mol)
 Warning -- explicit consideration of  24 degrees of freedom as
           vibrations may cause significant error
 Vibrational temperatures:     30.35    38.87    48.18    78.75    86.81
          (Kelvin)            100.86   161.41   192.40   213.73   294.22
                              301.27   332.45   348.03   369.88   390.79
                              446.66   485.78   542.24   592.42   595.88
                              598.94   614.10   744.80   821.59   912.50
                              916.72   955.69   977.37  1028.04  1036.97
                             1099.98  1122.81  1166.19  1224.60  1239.06
                             1269.20  1328.89  1361.75  1371.60  1388.37
                             1394.98  1412.14  1431.38  1433.04  1446.84
                             1470.43  1483.75  1526.81  1545.16  1559.58
                             1560.43  1593.40  1635.92  1660.82  1695.19
                             1718.22  1738.34  1749.25  1757.86  1775.41
                             1825.97  1865.86  1916.77  1961.62  1969.23
                             1982.95  2002.79  2011.74  2045.14  2053.95
                             2081.13  2085.11  2163.16  2164.40  2172.22
                             2176.93  2183.79  2189.11  2190.52  2205.61
                             2221.12  2225.14  2336.99  2359.41  2370.62
                             2397.55  4316.02  4350.43  4357.49  4377.55
                             4385.83  4409.19  4436.00  4463.86  4474.64
                             4490.53  4512.19  4534.66  4562.87  4564.26
                             4567.22  4588.67  4602.10  4620.45  5003.01

 Zero-point correction=                           0.315406 (Hartree/Particle)
 Thermal correction to Energy=                    0.333116
 Thermal correction to Enthalpy=                  0.334061
 Thermal correction to Gibbs Free Energy=         0.266975
 Sum of electronic and zero-point Energies=           -784.141839
 Sum of electronic and thermal Energies=              -784.124129
 Sum of electronic and thermal Enthalpies=            -784.123185
 Sum of electronic and thermal Free Energies=         -784.190270

                     E (Thermal)             CV                S
                      KCal/Mol        Cal/Mol-Kelvin    Cal/Mol-Kelvin
 Total                  209.034             65.890            141.193
 Electronic               0.000              0.000              0.000
 Translational            0.889              2.981             42.391
 Rotational               0.889              2.981             33.792
 Vibrational            207.256             59.929             65.010
 Vibration     1          0.593              1.985              6.529
 Vibration     2          0.593              1.984              6.037
 Vibration     3          0.594              1.983              5.611
 Vibration     4          0.596              1.976              4.638
 Vibration     5          0.597              1.973              4.446
 Vibration     6          0.598              1.968              4.151
 Vibration     7          0.607              1.939              3.231
 Vibration     8          0.613              1.920              2.892
 Vibration     9          0.618              1.904              2.691
 Vibration    10          0.640              1.833              2.092
 Vibration    11          0.642              1.826              2.049
 Vibration    12          0.653              1.794              1.871
 Vibration    13          0.658              1.776              1.789
 Vibration    14          0.667              1.751              1.682
 Vibration    15          0.675              1.726              1.586
 Vibration    16          0.699              1.654              1.360
 Vibration    17          0.718              1.600              1.223
 Vibration    18          0.747              1.519              1.052
 Vibration    19          0.776              1.445              0.920
 Vibration    20          0.778              1.439              0.912
 Vibration    21          0.780              1.435              0.905
 Vibration    22          0.788              1.412              0.869
 Vibration    23          0.873              1.211              0.615
 Vibration    24          0.927              1.094              0.502

                           ! Non-Optimized Parameters !
 Normal termination of Gaussian 16 at Fri Dec 11 18:52:42 2020.

 ----------------------------------------------------------------------
 # B3LYP/6-311++G(d,p) empiricaldispersion=gd3bj scf=xqc pop=npa geom=c
 heck
 ----------------------------------------------------------------------

 --------------------------------------
 CID_78826667_JID_8014_Energie_neutraal
 --------------------------------------
 Structure from the checkpoint file:  "JID_8014.chk"
 Charge =  0 Multiplicity = 1

 SCF Done:  E(RB3LYP) =  -784.669683227     A.U. after   15 cycles
 Normal termination of Gaussian 16 at Fri Dec 11 18:58:26 2020.

 ----------------------------------------------------------------------
 # B3LYP/6-311++G(d,p) empiricaldispersion=gd3bj scf=xqc pop=npa geom=c
 heck
 ----------------------------------------------------------------------

 ------------------------------------
 CID_78826667_JID_8014_Energie_kation
 ------------------------------------
 Structure from the checkpoint file:  "JID_8014.chk"
 Charge =  1 Multiplicity = 2

 SCF Done:  E(UB3LYP) =  -784.363946459     A.U. after   31 cycles
 Normal termination of Gaussian 16 at Fri Dec 11 19:14:13 2020.
 Gaussian 16:  ES64L-G16RevA.03 25-Dec-2016

 ----------------------------------------------------------------------
 # B3LYP/6-311++G(d,p) empiricaldispersion=gd3bj scf=xqc pop=npa geom=c
 heck
 ----------------------------------------------------------------------

 -----------------------------------
 CID_78826667_JID_8014_Energie_anion
 -----------------------------------
 Structure from the checkpoint file:  "JID_8014.chk"
 Charge = -1 Multiplicity = 2

                         Standard orientation:
 ---------------------------------------------------------------------
 Center     Atomic      Atomic             Coordinates (Angstroms)
 Number     Number       Type             X           Y           Z
 ---------------------------------------------------------------------
      1          6           0       -5.629538    0.397752    0.273056
      2          6           0       -4.355308   -0.321077    0.026484
      3          7           0       -4.145363   -1.378473   -0.692657
      4          7           0       -2.773077   -1.654441   -0.596223
      5          6           0       -2.268388   -0.743652    0.173186
      6          8           0       -3.211564    0.144921    0.610298
      7          6           0       -0.844567   -0.550318    0.561940
      8          7           0       -0.284833    0.604127   -0.142899
      9          6           0        1.080800    0.950601    0.278391
     10          6           0        2.066682   -0.204718    0.152363
     11          6           0        2.271065   -0.838829   -1.080224
     12          6           0        3.165187   -1.900931   -1.197893
     13          6           0        3.871931   -2.349351   -0.079607
     14          6           0        3.674521   -1.728993    1.153417
     15          6           0        2.775575   -0.666796    1.264732
     16          6           0        1.545917    2.212698   -0.486261
     17          6           0        0.571862    3.377227   -0.273247
     18          6           0        2.970484    2.613994   -0.085764
     19          1           0       -5.872597    0.408965    1.341179
     20          1           0       -5.563997    1.436997   -0.066929
     21          1           0       -6.429393   -0.107777   -0.270592
     22          1           0       -0.785695   -0.347522    1.637858
     23          1           0       -0.317711   -1.496960    0.373847
     24          1           0       -0.289874    0.406739   -1.143455
     25          1           0        1.014256    1.218174    1.342982
     26          1           0        1.724924   -0.501564   -1.958421
     27          1           0        3.309892   -2.380837   -2.161817
     28          1           0        4.567593   -3.178651   -0.170035
     29          1           0        4.215916   -2.073255    2.030331
     30          1           0        2.622623   -0.186152    2.228416
     31          1           0        1.554656    1.958617   -1.558104
     32          1           0        0.565830    3.681455    0.781531
     33          1           0        0.873848    4.246470   -0.868460
     34          1           0       -0.448182    3.097105   -0.544473
     35          1           0        3.694697    1.823653   -0.301562
     36          1           0        3.278312    3.517045   -0.624061
     37          1           0        3.022989    2.834007    0.988400
 ---------------------------------------------------------------------

 SCF Done:  E(UB3LYP) =  -784.658516664     A.U. after   33 cycles
 SCF Done:  E(UB3LYP) =  -784.658516664     a.u. after    1 cycles

 The electronic state is 2-A.
 Alpha  occ. eigenvalues --  -19.12254 -14.25091 -14.24896 -14.22401 -10.18513
 Alpha  occ. eigenvalues --  -10.18040 -10.13006 -10.12196 -10.10315 -10.09587
 Alpha  occ. eigenvalues --  -10.09528 -10.09387 -10.09206 -10.09131 -10.09033
 Alpha  occ. eigenvalues --  -10.08969 -10.07466 -10.06997  -1.07206  -0.89212
 Alpha  occ. eigenvalues --   -0.84229  -0.77660  -0.76458  -0.72071  -0.67345
 Alpha  occ. eigenvalues --   -0.66504  -0.66111  -0.63021  -0.59876  -0.57558
 Alpha  occ. eigenvalues --   -0.54549  -0.52764  -0.51201  -0.50613  -0.48423
 Alpha  occ. eigenvalues --   -0.44067  -0.42601  -0.42006  -0.39440  -0.39285
 Alpha  occ. eigenvalues --   -0.38158  -0.36939  -0.36443  -0.35514  -0.34744
 Alpha  occ. eigenvalues --   -0.34567  -0.33968  -0.33685  -0.32593  -0.31886
 Alpha  occ. eigenvalues --   -0.30834  -0.29907  -0.29836  -0.28348  -0.27514
 Alpha  occ. eigenvalues --   -0.26258  -0.25951  -0.25421  -0.24941  -0.24324
 Alpha  occ. eigenvalues --   -0.23484  -0.19854  -0.18825  -0.17442  -0.17112
 Alpha  occ. eigenvalues --   -0.15260   0.03756
 Alpha virt. eigenvalues --    0.05093   0.06043   0.06166   0.06262   0.06744
 Alpha virt. eigenvalues --    0.06889   0.07791   0.07901   0.08124   0.08759
 Alpha virt. eigenvalues --    0.09643   0.09687   0.10075   0.10323   0.11029

  Beta  occ. eigenvalues --  -19.12233 -14.25083 -14.24894 -14.22393 -10.18500
  Beta  occ. eigenvalues --  -10.18026 -10.12997 -10.12186 -10.10265 -10.09581
  Beta  occ. eigenvalues --  -10.09521 -10.09380 -10.09193 -10.09114 -10.09013
  Beta  occ. eigenvalues --  -10.08958 -10.07454 -10.06984  -1.07177  -0.89195
  Beta  occ. eigenvalues --   -0.84211  -0.77631  -0.76428  -0.72050  -0.67311
  Beta  occ. eigenvalues --   -0.66471  -0.66054  -0.62991  -0.59848  -0.57524
  Beta  occ. eigenvalues --   -0.54513  -0.52727  -0.51164  -0.50579  -0.48390
  Beta  occ. eigenvalues --   -0.44024  -0.42560  -0.41955  -0.39406  -0.39244
  Beta  occ. eigenvalues --   -0.38120  -0.36914  -0.36416  -0.35480  -0.34709
  Beta  occ. eigenvalues --   -0.34522  -0.33935  -0.33635  -0.32553  -0.31854
  Beta  occ. eigenvalues --   -0.30809  -0.29890  -0.29799  -0.28315  -0.27488
  Beta  occ. eigenvalues --   -0.26226  -0.25910  -0.25400  -0.24915  -0.24296
  Beta  occ. eigenvalues --   -0.23470  -0.19841  -0.18761  -0.17411  -0.17076
  Beta  occ. eigenvalues --   -0.15239
  Beta virt. eigenvalues --    0.05634   0.06140   0.06338   0.06473   0.06684
  Beta virt. eigenvalues --    0.06816   0.07107   0.08181   0.08333   0.08406
  Beta virt. eigenvalues --    0.09202   0.09934   0.10037   0.10329   0.10489

 Mulliken charges and spin densities:
               1          2
     1  C    0.962769  -1.561172
     2  C   -0.665538   1.075494
     3  N    0.015092  -0.056268
     4  N   -0.104329   0.053811
     5  C   -0.246717  -0.325113
     6  O    0.006564   0.051069
     7  C    0.336607  -0.730268
     8  N    0.130077   0.015485
     9  C    2.510132  -3.513931
    10  C    0.409851   0.384045
    11  C   -1.475722   1.513164
    12  C    0.333048  -0.797085
    13  C    0.311259  -0.562759
    14  C    0.940843  -1.421917
    15  C   -1.815177   1.874700
    16  C   -1.014123   1.435617
    17  C    0.508608  -1.007669
    18  C   -0.262329  -0.505372
    19  H   -0.472152   0.652189
    20  H   -0.255348   0.427450
    21  H   -0.086824   0.257266
    22  H   -0.138963   0.309168
    23  H    0.267837  -0.073242
    24  H    0.210839   0.043396
    25  H    0.169219   0.035887
    26  H   -0.080081   0.226855
    27  H   -0.197116   0.376902
    28  H   -0.356006   0.524145
    29  H   -0.564063   0.756052
    30  H   -0.494067   0.668250
    31  H   -0.077586   0.219303
    32  H   -0.029988   0.154271
    33  H    0.071751   0.065595
    34  H    0.041425   0.113540
    35  H    0.146750  -0.004868
    36  H    0.013562   0.127314
    37  H   -0.050101   0.198696
 Sum of Mulliken charges =  -1.00000   1.00000

 Dipole moment (field-independent basis, Debye):
    X=              1.8128    Y=              2.1643    Z=             -2.1016  Tot=              3.5196
 Quadrupole moment (field-independent basis, Debye-Ang):
   XX=           -224.4052   YY=           -161.2652   ZZ=           -146.6028
   XY=              9.4628   XZ=             -4.8620   YZ=             -3.1108

 Summary of Natural Population Analysis:

                                       Natural Population
                Natural  -----------------------------------------------
    Atom  No    Charge         Core      Valence    Rydberg      Total
 -----------------------------------------------------------------------
      C    1   -0.31439      0.99962     2.30928    0.00549     3.31439
      C    2    0.26059      0.99962     1.72059    0.01920     2.73941
      N    3   -0.17062      0.99967     2.65822    0.01273     3.67062
      N    4   -0.16160      0.99966     2.64988    0.01205     3.66160
      C    5    0.25820      0.99959     1.72356    0.01865     2.74180
      O    6   -0.23636      0.99985     3.22880    0.00770     4.23636
      C    7   -0.11783      0.99957     2.10812    0.01013     3.11783
      N    8   -0.33065      0.99974     2.82061    0.01031     3.83065
      C    9   -0.01175      0.99953     1.99806    0.01416     3.01175
      C   10   -0.02340      0.99949     2.01107    0.01285     3.02340
      C   11   -0.10415      0.99949     2.09536    0.00930     3.10415
      C   12   -0.09755      0.99956     2.08759    0.01040     3.09755
      C   13   -0.10216      0.99956     2.09272    0.00988     3.10216
      C   14   -0.09532      0.99956     2.08518    0.01058     3.09532
      C   15   -0.09923      0.99950     2.08951    0.01023     3.09923
      C   16   -0.10904      0.99960     2.10049    0.00895     3.10904
      C   17   -0.28432      0.99965     2.27957    0.00510     3.28432
      C   18   -0.28489      0.99965     2.28033    0.00491     3.28489
      H   19    0.11584      0.00000     0.38159    0.00258     0.38416
      H   20    0.11389      0.00000     0.38480    0.00131     0.38611
      H   21    0.11582      0.00000     0.38288    0.00131     0.38418
      H   22    0.10617      0.00000     0.39241    0.00142     0.39383
      H   23    0.10271      0.00000     0.39520    0.00210     0.39729
      H   24    0.17258      0.00000     0.32477    0.00265     0.32742
      H   25    0.09559      0.00000     0.40236    0.00205     0.40441
      H   26    0.09824      0.00000     0.39986    0.00190     0.40176
      H   27    0.10138      0.00000     0.39778    0.00085     0.39862
      H   28    0.10244      0.00000     0.39638    0.00118     0.39756
      H   29    0.10375      0.00000     0.39469    0.00156     0.39625
      H   30    0.10188      0.00000     0.39608    0.00204     0.39812
      H   31    0.09154      0.00000     0.40676    0.00170     0.40846
      H   32    0.09601      0.00000     0.40296    0.00103     0.40399
      H   33    0.09562      0.00000     0.40348    0.00090     0.40438
      H   34    0.11013      0.00000     0.38863    0.00124     0.38987
      H   35    0.10569      0.00000     0.39332    0.00099     0.39431
      H   36    0.09804      0.00000     0.40109    0.00087     0.40196
      H   37    0.09715      0.00000     0.40175    0.00110     0.40285
 =======================================================================
   * Total *   -0.00000     17.99290    47.78573    0.22137    66.00000

 Normal termination of Gaussian 16 at Fri Dec 11 19:33:06 2020.
