 Gaussian 16, Revision A.03,

 -----------------------------------------------------------
 # opt freq B3LYP/6-31G(d) empiricaldispersion=gd3bj scf=xqc
 -----------------------------------------------------------

 -------------------------------
 CID_152561718_JID_2519_neutraal
 -------------------------------
 Symbolic Z-matrix:
 Charge =  0 Multiplicity = 1

 SCF Done:  E(RB3LYP) =  -982.794331437     A.U. after   16 cycles
 SCF Done:  E(RB3LYP) =  -982.802644608     A.U. after   14 cycles
 SCF Done:  E(RB3LYP) =  -982.803514485     A.U. after   14 cycles
 SCF Done:  E(RB3LYP) =  -982.803816367     A.U. after   15 cycles
 SCF Done:  E(RB3LYP) =  -982.804344564     A.U. after   14 cycles
 SCF Done:  E(RB3LYP) =  -982.805194160     A.U. after   15 cycles
 SCF Done:  E(RB3LYP) =  -982.805671504     A.U. after   17 cycles
 SCF Done:  E(RB3LYP) =  -982.806331510     A.U. after   14 cycles
 SCF Done:  E(RB3LYP) =  -982.806654004     A.U. after   13 cycles
 SCF Done:  E(RB3LYP) =  -982.807254634     A.U. after   16 cycles
 SCF Done:  E(RB3LYP) =  -982.809865625     A.U. after   14 cycles
 SCF Done:  E(RB3LYP) =  -982.809869327     A.U. after   12 cycles
 SCF Done:  E(RB3LYP) =  -982.809869584     A.U. after   12 cycles
 SCF Done:  E(RB3LYP) =  -982.809870897     A.U. after   11 cycles
 SCF Done:  E(RB3LYP) =  -982.809870909     A.U. after    8 cycles
 SCF Done:  E(RB3LYP) =  -982.809870925     A.U. after    8 cycles
 Optimization completed.
    -- Stationary point found.
 Normal termination of Gaussian 16 at Wed Dec  9 17:45:22 2020.

 --------------------------------------------------------------------
 #N Geom=AllCheck Guess=TCheck SCRF=Check GenChk RB3LYP/6-31G(d) Freq
 --------------------------------------------------------------------

 Structure from the checkpoint file:  "JID_2519.chk"
 -------------------------------
 CID_152561718_JID_2519_neutraal
 -------------------------------
 Charge =  0 Multiplicity = 1

 SCF Done:  E(RB3LYP) =  -982.809870925     A.U. after    1 cycles

  Exact polarizability: 113.911  -7.124 103.921   2.012  -4.455  70.704
 Approx polarizability: 138.998 -16.286 211.967   1.999 -15.286 118.008

                      1                      2                      3
                      A                      A                      A
 Frequencies --     16.6926                30.4142                35.6327
 Red. masses --      6.4160                 8.0253                 6.5771
 Frc consts  --      0.0011                 0.0044                 0.0049
 IR Inten    --      0.3053                 1.6347                 0.6230

                      4                      5                      6
                      A                      A                      A
 Frequencies --     56.8690                80.1383               128.8082
 Red. masses --     12.2413                 6.8622                 1.3211
 Frc consts  --      0.0233                 0.0260                 0.0129
 IR Inten    --      1.3849                 2.0889                 0.3790

                      7                      8                      9
                      A                      A                      A
 Frequencies --    145.6120               147.8375               198.2284
 Red. masses --      2.7501                 7.1406                 4.5218
 Frc consts  --      0.0344                 0.0920                 0.1047
 IR Inten    --      0.8526                 1.4601                 7.3907

                     10                     11                     12
                      A                      A                      A
 Frequencies --    214.8315               283.2912               302.3282
 Red. masses --     10.0829                 4.8492                 3.5303
 Frc consts  --      0.2742                 0.2293                 0.1901
 IR Inten    --      3.2230                 9.3226                21.1011

                     13                     14                     15
                      A                      A                      A
 Frequencies --    362.1853               416.3815               489.5675
 Red. masses --      4.0012                 2.5361                 4.8557
 Frc consts  --      0.3092                 0.2591                 0.6857
 IR Inten    --      4.0725                 6.9048                 8.3438

                     16                     17                     18
                      A                      A                      A
 Frequencies --    547.5577               570.5157               592.6703
 Red. masses --     15.4905                13.7204                 3.2318
 Frc consts  --      2.7364                 2.6312                 0.6688
 IR Inten    --     12.2932                11.1282                 6.6100

                     19                     20                     21
                      A                      A                      A
 Frequencies --    608.2501               696.0508               718.8089
 Red. masses --      4.8134                 5.2900                14.2664
 Frc consts  --      1.0492                 1.5100                 4.3430
 IR Inten    --     10.5733                 3.7237                 5.0844

                     22                     23                     24
                      A                      A                      A
 Frequencies --    764.6337               819.3872               902.8182
 Red. masses --      3.7262                 3.5885                 3.6020
 Frc consts  --      1.2836                 1.4195                 1.7298
 IR Inten    --      4.0816                 4.1764                 7.5213

                     25                     26                     27
                      A                      A                      A
 Frequencies --    948.3036               983.3627              1031.3964
 Red. masses --      2.7743                 2.1532                 4.7160
 Frc consts  --      1.4699                 1.2268                 2.9558
 IR Inten    --      5.6215                 3.6312                25.3662

                     28                     29                     30
                      A                      A                      A
 Frequencies --   1119.7124              1177.4429              1185.4996
 Red. masses --      1.7741                 1.3148                 1.2806
 Frc consts  --      1.3105                 1.0740                 1.0604
 IR Inten    --      2.4018               108.7388                 6.6504

                     31                     32                     33
                      A                      A                      A
 Frequencies --   1216.0960              1222.3213              1239.4241
 Red. masses --      1.5357                 6.4679                 2.1603
 Frc consts  --      1.3381                 5.6936                 1.9552
 IR Inten    --     57.0053               113.3823               300.5115

                     34                     35                     36
                      A                      A                      A
 Frequencies --   1261.1839              1294.6062              1357.0643
 Red. masses --      1.3410                 1.9788                 2.1511
 Frc consts  --      1.2567                 1.9540                 2.3341
 IR Inten    --     15.0327                37.6109               259.9098

                     37                     38                     39
                      A                      A                      A
 Frequencies --   1463.4113              1481.5925              1493.9770
 Red. masses --      1.1082                 1.0910                 1.2330
 Frc consts  --      1.3984                 1.4110                 1.6214
 IR Inten    --     24.9155                 9.2390                19.5935

                     40                     41                     42
                      A                      A                      A
 Frequencies --   1513.0163              1522.4318              1804.9097
 Red. masses --      1.0474                 1.0472                10.8544
 Frc consts  --      1.4127                 1.4301                20.8338
 IR Inten    --      7.3769                 9.0597               233.2195

                     43                     44                     45
                      A                      A                      A
 Frequencies --   1820.9381              2235.3227              3065.1849
 Red. masses --     10.7415                13.9862                 1.0671
 Frc consts  --     20.9848                41.1746                 5.9072
 IR Inten    --     97.9142               413.1976                 0.2925

                     46                     47                     48
                      A                      A                      A
 Frequencies --   3082.2140              3090.3424              3159.5644
 Red. masses --      1.0295                 1.0578                 1.1079
 Frc consts  --      5.7624                 5.9523                 6.5163
 IR Inten    --     27.1342                12.3798                17.2242

                     49                     50                     51
                      A                      A                      A
 Frequencies --   3168.3780              3173.2850              3193.5258
 Red. masses --      1.1082                 1.0962                 1.1075
 Frc consts  --      6.5544                 6.5039                 6.6547
 IR Inten    --      7.4153                 0.7634                13.6640

 - Thermochemistry -
 -------------------
 Temperature   298.150 Kelvin.  Pressure   1.00000 Atm.
 Atom     1 has atomic number  6 and mass  12.00000

 Molecular mass:   189.02081 amu.
 Principal axes and moments of inertia in atomic units:
                           1         2         3
     Eigenvalues --  1036.953384544.966045005.62324
           X            0.99997   0.00448  -0.00558
           Y           -0.00468   0.99936  -0.03544
           Z            0.00542   0.03546   0.99936
 This molecule is an asymmetric top.
 Rotational symmetry number  1.
 Warning -- assumption of classical behavior for rotation
           may cause significant error
 Rotational temperatures (Kelvin)      0.08353     0.01906     0.01730
 Rotational constants (GHZ):           1.74043     0.39709     0.36054
 Zero-point vibrational energy     349513.0 (Joules/Mol)
                                   83.53562 (Kcal/Mol)
 Warning -- explicit consideration of  19 degrees of freedom as
           vibrations may cause significant error
 Vibrational temperatures:     24.02    43.76    51.27    81.82   115.30
          (Kelvin)            185.33   209.50   212.71   285.21   309.09
                              407.59   434.98   521.10   599.08   704.38
                              787.81   820.84   852.72   875.14  1001.46
                             1034.21  1100.14  1178.92  1298.95  1364.40
                             1414.84  1483.95  1611.02  1694.08  1705.67
                             1749.69  1758.65  1783.25  1814.56  1862.65
                             1952.51  2105.52  2131.68  2149.50  2176.89
                             2190.44  2596.86  2619.92  3216.13  4410.12
                             4434.62  4446.31  4545.91  4558.59  4565.65
                             4594.77

 Zero-point correction=                           0.133122 (Hartree/Particle)
 Thermal correction to Energy=                    0.146416
 Thermal correction to Enthalpy=                  0.147360
 Thermal correction to Gibbs Free Energy=         0.089458
 Sum of electronic and zero-point Energies=           -982.676748
 Sum of electronic and thermal Energies=              -982.663455
 Sum of electronic and thermal Enthalpies=            -982.662511
 Sum of electronic and thermal Free Energies=         -982.720413

                     E (Thermal)             CV                S
                      KCal/Mol        Cal/Mol-Kelvin    Cal/Mol-Kelvin
 Total                   91.877             43.958            121.867
 Electronic               0.000              0.000              0.000
 Translational            0.889              2.981             41.616
 Rotational               0.889              2.981             31.534
 Vibrational             90.100             37.996             48.716
 Vibration     1          0.593              1.986              6.993
 Vibration     2          0.594              1.984              5.802
 Vibration     3          0.594              1.982              5.488
 Vibration     4          0.596              1.975              4.563
 Vibration     5          0.600              1.963              3.887
 Vibration     6          0.611              1.924              2.964
 Vibration     7          0.617              1.907              2.729
 Vibration     8          0.617              1.905              2.700
 Vibration     9          0.637              1.842              2.149
 Vibration    10          0.645              1.818              2.002
 Vibration    11          0.682              1.705              1.514
 Vibration    12          0.694              1.669              1.404
 Vibration    13          0.736              1.550              1.113
 Vibration    14          0.780              1.435              0.904
 Vibration    15          0.845              1.273              0.685
 Vibration    16          0.903              1.145              0.549
 Vibration    17          0.927              1.095              0.503
 Vibration    18          0.950              1.047              0.462
 Vibration    19          0.967              1.014              0.436

 Optimization completed.
    -- Stationary point found.
 Normal termination of Gaussian 16 at Wed Dec  9 17:49:41 2020.

 ----------------------------------------------------------------------
 # B3LYP/6-311++G(d,p) empiricaldispersion=gd3bj scf=xqc pop=npa geom=c
 heck
 ----------------------------------------------------------------------

 ---------------------------------------
 CID_152561718_JID_2519_Energie_neutraal
 ---------------------------------------
 Structure from the checkpoint file:  "JID_2519.chk"
 Charge =  0 Multiplicity = 1

 SCF Done:  E(RB3LYP) =  -983.011549274     A.U. after   16 cycles
 Normal termination of Gaussian 16 at Wed Dec  9 17:53:19 2020.

 ----------------------------------------------------------------------
 # B3LYP/6-311++G(d,p) empiricaldispersion=gd3bj scf=xqc pop=npa geom=c
 heck
 ----------------------------------------------------------------------

 -------------------------------------
 CID_152561718_JID_2519_Energie_kation
 -------------------------------------
 Structure from the checkpoint file:  "JID_2519.chk"
 Charge =  1 Multiplicity = 2

 SCF Done:  E(UB3LYP) =  -982.676055067     A.U. after   28 cycles
 Normal termination of Gaussian 16 at Wed Dec  9 17:58:53 2020.
 Gaussian 16:  ES64L-G16RevA.03 25-Dec-2016

 ----------------------------------------------------------------------
 # B3LYP/6-311++G(d,p) empiricaldispersion=gd3bj scf=xqc pop=npa geom=c
 heck
 ----------------------------------------------------------------------

 ------------------------------------
 CID_152561718_JID_2519_Energie_anion
 ------------------------------------
 Structure from the checkpoint file:  "JID_2519.chk"
 Charge = -1 Multiplicity = 2

                         Standard orientation:
 ---------------------------------------------------------------------
 Center     Atomic      Atomic             Coordinates (Angstroms)
 Number     Number       Type             X           Y           Z
 ---------------------------------------------------------------------
      1          6           0        4.541444    0.211139   -0.245931
      2          8           0        3.234483    0.805743   -0.362343
      3          6           0        2.203981   -0.038897   -0.202504
      4          8           0        2.330215   -1.224373    0.030607
      5          6           0        0.876928    0.680818   -0.364976
      6          6           0       -0.108577    0.347497    0.758251
      7          8           0       -0.514844    1.206005    1.512843
      8          6           0       -0.611968   -1.081621    0.841869
      9         16           0       -1.865630   -1.392339   -0.460213
     10          7           0       -3.174109   -0.361598    0.123265
     11          7           0       -3.153899    0.788465   -0.365901
     12          7           0       -3.265358    1.856547   -0.741269
     13          1           0        5.245125    1.026954   -0.407754
     14          1           0        4.671951   -0.570088   -0.998575
     15          1           0        4.672432   -0.223196    0.747978
     16          1           0        1.023257    1.760069   -0.397288
     17          1           0        0.442834    0.345962   -1.316077
     18          1           0        0.194048   -1.792258    0.631539
     19          1           0       -1.055692   -1.266525    1.821813
 ---------------------------------------------------------------------

 SCF Done:  E(UB3LYP) =  -983.023175812     A.U. after   32 cycles

 The electronic state is 2-A.
 Alpha  occ. eigenvalues --  -88.73221 -19.08149 -19.01700 -18.98387 -14.30916
 Alpha  occ. eigenvalues --  -14.22031 -14.21890 -10.20908 -10.13699 -10.13116
 Alpha  occ. eigenvalues --  -10.07890 -10.07455  -7.81715  -5.78250  -5.77756
 Alpha  occ. eigenvalues --   -5.76968  -1.02030  -0.98376  -0.92972  -0.92108
 Alpha  occ. eigenvalues --   -0.82420  -0.68836  -0.66262  -0.61872  -0.55287
 Alpha  occ. eigenvalues --   -0.48554  -0.43390  -0.40887  -0.40080  -0.38993
 Alpha  occ. eigenvalues --   -0.37525  -0.36614  -0.35857  -0.35018  -0.34172
 Alpha  occ. eigenvalues --   -0.32328  -0.30617  -0.30126  -0.28037  -0.27699
 Alpha  occ. eigenvalues --   -0.27407  -0.26057  -0.22713  -0.22178  -0.18936
 Alpha  occ. eigenvalues --   -0.18170  -0.13926  -0.11660  -0.10273   0.04067
 Alpha virt. eigenvalues --    0.05556   0.07218   0.09161   0.09638   0.09707
 Alpha virt. eigenvalues --    0.10123   0.11666   0.12162   0.12530   0.13462
 Alpha virt. eigenvalues --    0.14257   0.15183   0.15427   0.16033   0.16719

  Beta  occ. eigenvalues --  -88.73084 -19.08145 -19.01671 -18.98163 -14.30578
  Beta  occ. eigenvalues --  -14.22028 -14.21372 -10.20886 -10.13662 -10.12925
  Beta  occ. eigenvalues --  -10.07907 -10.07468  -7.81568  -5.78079  -5.77521
  Beta  occ. eigenvalues --   -5.76863  -1.02001  -0.97655  -0.92921  -0.91698
  Beta  occ. eigenvalues --   -0.81980  -0.68646  -0.65956  -0.61705  -0.54758
  Beta  occ. eigenvalues --   -0.48475  -0.43105  -0.40721  -0.39973  -0.38810
  Beta  occ. eigenvalues --   -0.37246  -0.35975  -0.35148  -0.34220  -0.33971
  Beta  occ. eigenvalues --   -0.32065  -0.30412  -0.29150  -0.27839  -0.27480
  Beta  occ. eigenvalues --   -0.27308  -0.25539  -0.22170  -0.22015  -0.18671
  Beta  occ. eigenvalues --   -0.17188  -0.13648  -0.11430  -0.09995
  Beta virt. eigenvalues --    0.06255   0.08474   0.09326   0.09598   0.09923
  Beta virt. eigenvalues --    0.10063   0.10286   0.11770   0.12497   0.12920
  Beta virt. eigenvalues --    0.13439   0.14406   0.15355   0.15656   0.16005

 Mulliken charges and spin densities:
               1          2
     1  C    0.461082  -0.710819
     2  O   -0.106711   0.047190
     3  C   -0.376136   0.256859
     4  O   -0.282195   0.008391
     5  C   -0.077503  -0.290103
     6  C    0.246504   0.132269
     7  O   -0.277620   0.073790
     8  C   -0.575073  -0.014475
     9  S    0.026032   0.136871
    10  N   -1.094685   0.020778
    11  N    0.827846   0.071367
    12  N   -0.155802   0.311682
    13  H   -0.281253   0.429506
    14  H   -0.043656   0.214384
    15  H   -0.040529   0.214271
    16  H    0.191869   0.028430
    17  H    0.134143   0.030724
    18  H    0.196439   0.011620
    19  H    0.227249   0.027263
 Sum of Mulliken charges =  -1.00000   1.00000

 Dipole moment (field-independent basis, Debye):
    X=              3.4190    Y=             -1.6383    Z=             -0.6398  Tot=              3.8449
 Quadrupole moment (field-independent basis, Debye-Ang):
   XX=           -138.2312   YY=           -103.3391   ZZ=            -89.5867
   XY=              3.4376   XZ=              0.2375   YZ=             -1.8054

 Summary of Natural Population Analysis:

                                       Natural Population
                Natural  -----------------------------------------------
    Atom  No    Charge         Core      Valence    Rydberg      Total
 -----------------------------------------------------------------------
      C    1   -0.10653      0.99960     2.09790    0.00903     3.10653
      O    2   -0.27582      0.99986     3.26748    0.00848     4.27582
      C    3    0.41207      0.99970     1.56231    0.02593     2.58793
      O    4   -0.31119      0.99987     3.30605    0.00527     4.31119
      C    5   -0.28548      0.99953     2.27590    0.01005     3.28548
      C    6    0.30017      0.99966     1.67499    0.02518     2.69983
      O    7   -0.25913      0.99987     3.25223    0.00703     4.25913
      C    8   -0.30569      0.99954     2.29528    0.01087     3.30569
      S    9    0.20506      4.99960     2.77103    0.02430     7.79494
      N   10   -0.28600      0.99975     2.76908    0.01716     3.78600
      N   11    0.13328      0.99970     2.35130    0.01571     3.36672
      N   12    0.02307      0.99981     2.46431    0.01280     3.47693
      H   13    0.09271      0.00000     0.40600    0.00129     0.40729
      H   14    0.09145      0.00000     0.40749    0.00106     0.40855
      H   15    0.09247      0.00000     0.40649    0.00104     0.40753
      H   16    0.11797      0.00000     0.38042    0.00160     0.38203
      H   17    0.12727      0.00000     0.37118    0.00155     0.37273
      H   18    0.12469      0.00000     0.37437    0.00095     0.37531
      H   19    0.10963      0.00000     0.38856    0.00182     0.39037
 =======================================================================
   * Total *   -0.00000     15.99650    32.82237    0.18113    49.00000

 Normal termination of Gaussian 16 at Wed Dec  9 18:04:31 2020.
