 Gaussian 16, Revision A.03,

 -----------------------------------------------------------
 # opt freq B3LYP/6-31G(d) empiricaldispersion=gd3bj scf=xqc
 -----------------------------------------------------------

 -------------------------------
 CID_151857977_JID_3818_neutraal
 -------------------------------
 Symbolic Z-matrix:
 Charge =  0 Multiplicity = 1

 SCF Done:  E(RB3LYP) =  -604.786717417     A.U. after   16 cycles
 SCF Done:  E(RB3LYP) =  -604.797554533     A.U. after   15 cycles
 SCF Done:  E(RB3LYP) =  -604.800266400     A.U. after   13 cycles
 SCF Done:  E(RB3LYP) =  -604.802602913     A.U. after   14 cycles
 SCF Done:  E(RB3LYP) =  -604.804468908     A.U. after   14 cycles
 SCF Done:  E(RB3LYP) =  -604.805888618     A.U. after   14 cycles
 SCF Done:  E(RB3LYP) =  -604.806808253     A.U. after   13 cycles
 SCF Done:  E(RB3LYP) =  -604.807572577     A.U. after   14 cycles
 SCF Done:  E(RB3LYP) =  -604.808428951     A.U. after   15 cycles
 SCF Done:  E(RB3LYP) =  -604.808952509     A.U. after   15 cycles
 SCF Done:  E(RB3LYP) =  -604.809335344     A.U. after   12 cycles
 SCF Done:  E(RB3LYP) =  -604.809343901     A.U. after   12 cycles
 SCF Done:  E(RB3LYP) =  -604.809345359     A.U. after   10 cycles
 SCF Done:  E(RB3LYP) =  -604.809345564     A.U. after    8 cycles
 SCF Done:  E(RB3LYP) =  -604.809345570     A.U. after    8 cycles
 SCF Done:  E(RB3LYP) =  -604.809345592     A.U. after    7 cycles
 Optimization completed.
    -- Stationary point found.

 1\1\GINC-NODE210\FOpt\RB3LYP\6-31G(d)\C7H16N6\VSC10255\14-Dec-2020\0\\
 # opt freq B3LYP/6-31G(d) empiricaldispersion=gd3bj scf=xqc\\CID_15185
 7977_JID_3818_neutraal\\0,1\C,1.1764988777,0.4628138607,-0.2164473544\
 C,0.6867322987,-0.9791688885,-0.4170411711\C,-0.8384267119,-0.83104232
 15,-0.5576420837\N,-1.1529981829,0.4606465978,0.1778763245\C,0.1003925
 048,1.0322638536,0.7072833504\N,-2.0527688192,0.2299097929,1.290875289
 1\N,-3.2308607758,0.5224582721,1.0060545322\N,-4.3505189613,0.71536051
 88,0.8932056191\N,-1.2264446124,-0.842416424,-1.945965089\C,-2.6372052

 Normal termination of Gaussian 16 at Mon Dec 14 18:51:34 2020.

 --------------------------------------------------------------------
 #N Geom=AllCheck Guess=TCheck SCRF=Check GenChk RB3LYP/6-31G(d) Freq
 --------------------------------------------------------------------

 Structure from the checkpoint file:  "JID_3818.chk"
 -------------------------------
 CID_151857977_JID_3818_neutraal
 -------------------------------
 Charge =  0 Multiplicity = 1

 SCF Done:  E(RB3LYP) =  -604.809345592     A.U. after    1 cycles

  Exact polarizability: 117.920 -10.895 128.911  -1.828   0.898  91.593
 Approx polarizability: 166.873 -32.910 207.882  -2.073   0.802 133.894

                      1                      2                      3
                      A                      A                      A
 Frequencies --     21.1777                36.6543                56.7894
 Red. masses --      4.3223                 5.3944                 3.8668
 Frc consts  --      0.0011                 0.0043                 0.0073
 IR Inten    --      0.0775                 0.8222                 0.2179

                      4                      5                      6
                      A                      A                      A
 Frequencies --     62.0324                79.0469               141.4392
 Red. masses --      3.8006                 3.3627                 2.9029
 Frc consts  --      0.0086                 0.0124                 0.0342
 IR Inten    --      0.3608                 0.5772                 6.1266

                      7                      8                      9
                      A                      A                      A
 Frequencies --    164.3840               209.2307               248.7101
 Red. masses --      6.0774                 1.9039                 1.6124
 Frc consts  --      0.0968                 0.0491                 0.0588
 IR Inten    --      2.2280                12.8625                24.5857

                     10                     11                     12
                      A                      A                      A
 Frequencies --    264.0776               302.0963               326.9814
 Red. masses --      3.3360                 1.6614                 2.6059
 Frc consts  --      0.1371                 0.0893                 0.1642
 IR Inten    --      3.0823                26.6069                 0.8655

                     13                     14                     15
                      A                      A                      A
 Frequencies --    380.9052               401.4376               432.5617
 Red. masses --      2.9233                 2.8623                 2.6997
 Frc consts  --      0.2499                 0.2718                 0.2976
 IR Inten    --      6.8268                 4.2174                 1.6155

                     16                     17                     18
                      A                      A                      A
 Frequencies --    489.8103               503.0533               536.3223
 Red. masses --      3.8096                 2.5109                 2.6515
 Frc consts  --      0.5385                 0.3744                 0.4494
 IR Inten    --      3.6066                12.3805                 3.7001

                     19                     20                     21
                      A                      A                      A
 Frequencies --    559.5402               608.7987               688.1557
 Red. masses --      7.6831                 2.2437                 1.9729
 Frc consts  --      1.4173                 0.4900                 0.5505
 IR Inten    --      7.9207                 1.9535                66.5148

                     22                     23                     24
                      A                      A                      A
 Frequencies --    737.5445               773.2188               826.0767
 Red. masses --      5.4774                 1.4391                 3.7521
 Frc consts  --      1.7555                 0.5069                 1.5086
 IR Inten    --     34.0648                10.4163                27.4186

                     25                     26                     27
                      A                      A                      A
 Frequencies --    837.8770               868.8204               885.1841
 Red. masses --      2.3988                 1.3117                 1.7418
 Frc consts  --      0.9922                 0.5834                 0.8041
 IR Inten    --     10.1947               143.2940                 1.0105

                     28                     29                     30
                      A                      A                      A
 Frequencies --    889.6442               936.6319               960.3472
 Red. masses --      2.3636                 2.2724                 2.5899
 Frc consts  --      1.1022                 1.1746                 1.4073
 IR Inten    --     19.3373                 5.4954                 4.8127

                     31                     32                     33
                      A                      A                      A
 Frequencies --    976.7370               987.8500               999.0908
 Red. masses --      1.7679                 3.0045                 1.7862
 Frc consts  --      0.9937                 1.7274                 1.0505
 IR Inten    --     13.1375                13.6666                 7.2124

                     34                     35                     36
                      A                      A                      A
 Frequencies --   1044.9942              1062.6680              1092.5338
 Red. masses --      1.5939                 1.9237                 1.8995
 Frc consts  --      1.0255                 1.2799                 1.3359
 IR Inten    --      2.1666                 0.4351                10.6157

                     37                     38                     39
                      A                      A                      A
 Frequencies --   1114.5828              1125.9214              1149.3367
 Red. masses --      4.4970                 2.3331                 1.6468
 Frc consts  --      3.2915                 1.7426                 1.2817
 IR Inten    --     54.0486                 2.3706                19.3695

                     40                     41                     42
                      A                      A                      A
 Frequencies --   1158.7599              1188.0224              1217.3033
 Red. masses --      2.0646                 1.4109                 1.7617
 Frc consts  --      1.6334                 1.1733                 1.5381
 IR Inten    --     33.2747                11.3553                 3.3590

                     43                     44                     45
                      A                      A                      A
 Frequencies --   1227.6137              1245.8353              1265.8126
 Red. masses --      1.4617                 5.7245                 1.2842
 Frc consts  --      1.2979                 5.2349                 1.2123
 IR Inten    --     12.5211                51.2972                 5.8519

                     46                     47                     48
                      A                      A                      A
 Frequencies --   1277.2630              1314.1963              1325.2187
 Red. masses --      1.3228                 1.5227                 1.2878
 Frc consts  --      1.2715                 1.5495                 1.3325
 IR Inten    --     14.1194                21.1412                 0.7055

                     49                     50                     51
                      A                      A                      A
 Frequencies --   1353.1009              1359.4061              1366.9045
 Red. masses --      1.4900                 1.1888                 1.3560
 Frc consts  --      1.6073                 1.2944                 1.4927
 IR Inten    --      3.3474                 2.4077                 1.9222

                     52                     53                     54
                      A                      A                      A
 Frequencies --   1382.0210              1391.5745              1409.4882
 Red. masses --      1.3031                 1.3095                 1.2720
 Frc consts  --      1.4664                 1.4941                 1.4889
 IR Inten    --     10.6988                 4.2234                 0.8160

                     55                     56                     57
                      A                      A                      A
 Frequencies --   1416.0940              1447.9737              1494.5578
 Red. masses --      1.3496                 1.4152                 1.0997
 Frc consts  --      1.5946                 1.7482                 1.4472
 IR Inten    --      5.3471                11.7451                 1.8866

                     58                     59                     60
                      A                      A                      A
 Frequencies --   1518.2654              1523.8763              1531.5146
 Red. masses --      1.0870                 1.1350                 1.1117
 Frc consts  --      1.4763                 1.5529                 1.5363
 IR Inten    --      2.2977                26.6465                30.4364

                     61                     62                     63
                      A                      A                      A
 Frequencies --   1535.2209              1551.4229              1552.2624
 Red. masses --      1.1231                 1.0992                 1.1165
 Frc consts  --      1.5596                 1.5588                 1.5850
 IR Inten    --     11.1506                 2.9253                 5.8159

                     64                     65                     66
                      A                      A                      A
 Frequencies --   1701.8997              2216.3948              2917.6772
 Red. masses --      1.0883                13.9596                 1.0746
 Frc consts  --      1.8573                40.4034                 5.3898
 IR Inten    --     31.1643               435.8450               107.0804

                     67                     68                     69
                      A                      A                      A
 Frequencies --   3024.3480              3036.6658              3057.7810
 Red. masses --      1.0686                 1.0674                 1.0678
 Frc consts  --      5.7588                 5.7990                 5.8823
 IR Inten    --     42.8743                43.8445                19.9707

                     70                     71                     72
                      A                      A                      A
 Frequencies --   3061.0816              3072.2386              3079.2838
 Red. masses --      1.0665                 1.0693                 1.0861
 Frc consts  --      5.8880                 5.9466                 6.0677
 IR Inten    --     14.1657                10.5275                38.5657

                     73                     74                     75
                      A                      A                      A
 Frequencies --   3083.9718              3089.0912              3096.9250
 Red. masses --      1.0886                 1.0881                 1.0965
 Frc consts  --      6.1000                 6.1176                 6.1959
 IR Inten    --     25.3965                42.9573                40.1617

                     76                     77                     78
                      A                      A                      A
 Frequencies --   3121.5704              3126.7682              3134.8682
 Red. masses --      1.0980                 1.0993                 1.1026
 Frc consts  --      6.3036                 6.3323                 6.3843
 IR Inten    --     36.5674                27.3372                26.3629

                     79                     80                     81
                      A                      A                      A
 Frequencies --   3471.4123              3504.4199              3553.7961
 Red. masses --      1.0498                 1.0731                 1.0922
 Frc consts  --      7.4539                 7.7648                 8.1273
 IR Inten    --      1.7191                 0.5298                 0.6837

 - Thermochemistry -
 -------------------
 Temperature   298.150 Kelvin.  Pressure   1.00000 Atm.
 Atom     1 has atomic number  6 and mass  12.00000

 Molecular mass:   184.14364 amu.
 Principal axes and moments of inertia in atomic units:
                           1         2         3
     Eigenvalues --  1958.938232966.053434112.42489
           X            0.99897  -0.04527   0.00210
           Y            0.04525   0.99893   0.00942
           Z           -0.00253  -0.00932   0.99995
 This molecule is an asymmetric top.
 Rotational symmetry number  1.
 Warning -- assumption of classical behavior for rotation
           may cause significant error
 Rotational temperatures (Kelvin)      0.04421     0.02920     0.02106
 Rotational constants (GHZ):           0.92129     0.60847     0.43885
 Zero-point vibrational energy     665041.0 (Joules/Mol)
                                  158.94860 (Kcal/Mol)
 Warning -- explicit consideration of  20 degrees of freedom as
           vibrations may cause significant error
 Vibrational temperatures:     30.47    52.74    81.71    89.25   113.73
          (Kelvin)            203.50   236.51   301.04   357.84   379.95
                              434.65   470.45   548.04   577.58   622.36
                              704.73   723.78   771.65   805.05   875.93
                              990.10  1061.16  1112.49  1188.54  1205.52
                             1250.04  1273.58  1280.00  1347.60  1381.73
                             1405.31  1421.30  1437.47  1503.51  1528.94
                             1571.91  1603.64  1619.95  1653.64  1667.20
                             1709.30  1751.43  1766.26  1792.48  1821.22
                             1837.70  1890.84  1906.69  1946.81  1955.88
                             1966.67  1988.42  2002.17  2027.94  2037.44
                             2083.31  2150.34  2184.45  2192.52  2203.51
                             2208.84  2232.15  2233.36  2448.65  3188.90
                             4197.89  4351.36  4369.08  4399.46  4404.21
                             4420.27  4430.40  4437.15  4444.51  4455.78
                             4491.24  4498.72  4510.38  4994.59  5042.08
                             5113.12

 Zero-point correction=                           0.253301 (Hartree/Particle)
 Thermal correction to Energy=                    0.266986
 Thermal correction to Enthalpy=                  0.267930
 Thermal correction to Gibbs Free Energy=         0.210872
 Sum of electronic and zero-point Energies=           -604.556045
 Sum of electronic and thermal Energies=              -604.542360
 Sum of electronic and thermal Enthalpies=            -604.541416
 Sum of electronic and thermal Free Energies=         -604.598474

                     E (Thermal)             CV                S
                      KCal/Mol        Cal/Mol-Kelvin    Cal/Mol-Kelvin
 Total                  167.536             50.285            120.089
 Electronic               0.000              0.000              0.000
 Translational            0.889              2.981             41.538
 Rotational               0.889              2.981             31.547
 Vibrational            165.759             44.323             47.004
 Vibration     1          0.593              1.985              6.521
 Vibration     2          0.594              1.982              5.432
 Vibration     3          0.596              1.975              4.566
 Vibration     4          0.597              1.972              4.391
 Vibration     5          0.600              1.963              3.914
 Vibration     6          0.615              1.912              2.784
 Vibration     7          0.623              1.886              2.499
 Vibration     8          0.642              1.827              2.050
 Vibration     9          0.662              1.765              1.740
 Vibration    10          0.671              1.739              1.635
 Vibration    11          0.694              1.670              1.405
 Vibration    12          0.711              1.622              1.275
 Vibration    13          0.751              1.511              1.036
 Vibration    14          0.767              1.467              0.957
 Vibration    15          0.793              1.399              0.850
 Vibration    16          0.846              1.273              0.684
 Vibration    17          0.858              1.243              0.651
 Vibration    18          0.891              1.170              0.573
 Vibration    19          0.915              1.119              0.525
 Vibration    20          0.968              1.013              0.435

 Optimization completed.
    -- Stationary point found.

 1\1\GINC-NODE210\Freq\RB3LYP\6-31G(d)\C7H16N6\VSC10255\14-Dec-2020\0\\
 #N Geom=AllCheck Guess=TCheck SCRF=Check GenChk RB3LYP/6-31G(d) Freq\\
 CID_151857977_JID_3818_neutraal\\0,1\C,1.1764988777,0.4628138607,-0.21
 64473544\C,0.6867322987,-0.9791688885,-0.4170411711\C,-0.8384267119,-0
 .8310423215,-0.5576420837\N,-1.1529981829,0.4606465978,0.1778763245\C,
 0.1003925048,1.0322638536,0.7072833504\N,-2.0527688192,0.2299097929,1.
 2908752891\N,-3.2308607758,0.5224582721,1.0060545322\N,-4.3505189613,0
 .7153605188,0.8932056191\N,-1.2264446124,-0.842416424,-1.945965089\C,-

 Normal termination of Gaussian 16 at Mon Dec 14 18:59:17 2020.

 ----------------------------------------------------------------------
 # B3LYP/6-311++G(d,p) empiricaldispersion=gd3bj scf=xqc pop=npa geom=c
 heck
 ----------------------------------------------------------------------

 ---------------------------------------
 CID_151857977_JID_3818_Energie_neutraal
 ---------------------------------------
 Structure from the checkpoint file:  "JID_3818.chk"
 Charge =  0 Multiplicity = 1

 SCF Done:  E(RB3LYP) =  -604.988628223     A.U. after   15 cycles
 Normal termination of Gaussian 16 at Mon Dec 14 19:02:49 2020.

 ----------------------------------------------------------------------
 # B3LYP/6-311++G(d,p) empiricaldispersion=gd3bj scf=xqc pop=npa geom=c
 heck
 ----------------------------------------------------------------------

 -------------------------------------
 CID_151857977_JID_3818_Energie_kation
 -------------------------------------
 Structure from the checkpoint file:  "JID_3818.chk"
 Charge =  1 Multiplicity = 2

 SCF Done:  E(UB3LYP) =  -604.689112023     A.U. after   26 cycles
 Normal termination of Gaussian 16 at Mon Dec 14 19:11:05 2020.
 Gaussian 16:  ES64L-G16RevA.03 25-Dec-2016

 ------------------------------------
 CID_151857977_JID_3818_Energie_anion
 ------------------------------------
 Structure from the checkpoint file:  "JID_3818.chk"
 Charge = -1 Multiplicity = 2

                         Standard orientation:
 ---------------------------------------------------------------------
 Center     Atomic      Atomic             Coordinates (Angstroms)
 Number     Number       Type             X           Y           Z
 ---------------------------------------------------------------------
      1          6           0        1.858501   -2.109501   -0.738967
      2          6           0        1.663632   -1.968152    0.778093
      3          6           0        0.901232   -0.639799    0.926571
      4          7           0        1.274963    0.141592   -0.321691
      5          6           0        2.187584   -0.673810   -1.146463
      6          7           0        1.949183    1.380790    0.012087
      7          7           0        1.177853    2.359119   -0.038221
      8          7           0        0.598655    3.342675   -0.011225
      9          7           0       -0.511558   -0.877395    1.086883
     10          6           0       -1.393049    0.295034    1.113262
     11          6           0       -1.929769    0.774325   -0.247297
     12          6           0       -2.752701   -0.279117   -0.993654
     13          7           0       -3.934000   -0.684849   -0.223967
     14          1           0        2.651741   -2.810659   -1.013009
     15          1           0        0.932861   -2.444964   -1.222725
     16          1           0        2.641152   -1.887164    1.265946
     17          1           0        1.121285   -2.795280    1.242457
     18          1           0        1.243001   -0.049507    1.782333
     19          1           0        3.234328   -0.438419   -0.905656
     20          1           0        2.026486   -0.466238   -2.209211
     21          1           0       -0.832353   -1.547453    0.391630
     22          1           0       -2.243532    0.072575    1.771595
     23          1           0       -0.847077    1.111440    1.599899
     24          1           0       -2.565159    1.651913   -0.077196
     25          1           0       -1.093477    1.073581   -0.885176
     26          1           0       -3.105029    0.158200   -1.934816
     27          1           0       -2.093390   -1.121797   -1.281995
     28          1           0       -4.517418   -1.300720   -0.787177
     29          1           0       -3.651661   -1.232917    0.586767
 ---------------------------------------------------------------------

 SCF Done:  E(UB3LYP) =  -604.986513691     A.U. after   30 cycles

 The electronic state is 2-A.
 Alpha  occ. eigenvalues --  -14.30854 -14.23083 -14.22227 -14.21063 -14.19091
 Alpha  occ. eigenvalues --  -14.18497 -10.10986 -10.08534 -10.08056 -10.07939
 Alpha  occ. eigenvalues --  -10.06332 -10.06152 -10.04710  -0.98900  -0.86723
 Alpha  occ. eigenvalues --   -0.80638  -0.77970  -0.75331  -0.65921  -0.64463
 Alpha  occ. eigenvalues --   -0.60003  -0.55001  -0.49239  -0.48126  -0.46697
 Alpha  occ. eigenvalues --   -0.43785  -0.39773  -0.38352  -0.37430  -0.36103
 Alpha  occ. eigenvalues --   -0.35606  -0.34822  -0.33258  -0.32534  -0.31482
 Alpha  occ. eigenvalues --   -0.30765  -0.29347  -0.28506  -0.26850  -0.25600
 Alpha  occ. eigenvalues --   -0.24493  -0.24175  -0.23125  -0.23018  -0.22319
 Alpha  occ. eigenvalues --   -0.20722  -0.14367  -0.13876  -0.11098  -0.09556
 Alpha  occ. eigenvalues --    0.04463
 Alpha virt. eigenvalues --    0.06285   0.07381   0.08640   0.09202   0.09853
 Alpha virt. eigenvalues --    0.10108   0.10716   0.11369   0.12201   0.12809
 Alpha virt. eigenvalues --    0.13130   0.13862   0.14404   0.14704   0.14903

  Beta  occ. eigenvalues --  -14.30498 -14.23137 -14.21703 -14.20928 -14.19060
  Beta  occ. eigenvalues --  -14.18486 -10.10982 -10.08515 -10.08052 -10.07923
  Beta  occ. eigenvalues --  -10.06305 -10.06136 -10.04711  -0.98195  -0.86427
  Beta  occ. eigenvalues --   -0.80526  -0.77906  -0.75152  -0.65755  -0.64406
  Beta  occ. eigenvalues --   -0.59952  -0.54948  -0.49043  -0.48044  -0.46659
  Beta  occ. eigenvalues --   -0.43584  -0.39689  -0.38276  -0.36977  -0.35557
  Beta  occ. eigenvalues --   -0.35314  -0.34298  -0.33182  -0.32352  -0.31050
  Beta  occ. eigenvalues --   -0.30083  -0.29275  -0.28374  -0.26682  -0.25568
  Beta  occ. eigenvalues --   -0.24412  -0.24133  -0.23088  -0.22963  -0.22285
  Beta  occ. eigenvalues --   -0.19768  -0.14322  -0.13788  -0.11000  -0.09391
  Beta virt. eigenvalues --    0.06903   0.07699   0.08761   0.09359   0.10129
  Beta virt. eigenvalues --    0.10182   0.10379   0.11315   0.11649   0.12398
  Beta virt. eigenvalues --    0.12874   0.13218   0.13930   0.14428   0.14898

 Mulliken charges and spin densities:
               1          2
     1  C    0.274637  -0.429932
     2  C   -0.184887  -0.108998
     3  C   -0.859014  -0.241163
     4  N    0.315789   0.123595
     5  C    0.145197  -0.507757
     6  N   -0.187406   0.115692
     7  N    0.312809   0.046643
     8  N   -0.619295   0.281120
     9  N    0.144257   0.016140
    10  C    0.026087  -0.163290
    11  C   -0.409623   0.280857
    12  C    0.262923  -0.843799
    13  N   -0.354709  -0.004375
    14  H   -0.291296   0.469636
    15  H    0.004287   0.114806
    16  H    0.006932   0.129905
    17  H   -0.155503   0.327428
    18  H    0.039397   0.115504
    19  H   -0.042026   0.178388
    20  H    0.063737   0.103316
    21  H    0.250405  -0.039291
    22  H    0.113477   0.066273
    23  H    0.098779   0.020334
    24  H    0.163929  -0.010880
    25  H    0.153069  -0.029313
    26  H   -0.031596   0.182180
    27  H   -0.213250   0.333348
    28  H   -0.070848   0.304486
    29  H    0.043739   0.169145
 Sum of Mulliken charges =  -1.00000   1.00000

 Dipole moment (field-independent basis, Debye):
    X=              0.3241    Y=             -0.6232    Z=              0.4229  Tot=              0.8199
 Quadrupole moment (field-independent basis, Debye-Ang):
   XX=           -134.8308   YY=           -127.4123   ZZ=            -98.7998
   XY=             -2.7874   XZ=             -0.6612   YZ=             -1.3887

 Summary of Natural Population Analysis:

                                       Natural Population
                Natural  -----------------------------------------------
    Atom  No    Charge         Core      Valence    Rydberg      Total
 -----------------------------------------------------------------------
      C    1   -0.19910      0.99963     2.19100    0.00848     3.19910
      C    2   -0.20013      0.99961     2.19131    0.00921     3.20013
      C    3    0.08871      0.99959     1.89535    0.01635     2.91129
      N    4   -0.20149      0.99970     2.68934    0.01245     3.70149
      C    5   -0.08282      0.99962     2.07094    0.01226     3.08282
      N    6   -0.15148      0.99972     2.63688    0.01489     3.65148
      N    7    0.13748      0.99971     2.34762    0.01519     3.36252
      N    8    0.01392      0.99982     2.47313    0.01313     3.48608
      N    9   -0.34561      0.99972     2.83415    0.01173     3.84561
      C   10   -0.09132      0.99962     2.07980    0.01190     3.09132
      C   11   -0.20401      0.99962     2.19631    0.00808     3.20401
      C   12   -0.09242      0.99964     2.08042    0.01237     3.09242
      N   13   -0.42623      0.99977     2.91545    0.01101     3.92623
      H   14    0.10216      0.00000     0.39629    0.00155     0.39784
      H   15    0.09535      0.00000     0.40294    0.00170     0.40465
      H   16    0.09997      0.00000     0.39875    0.00127     0.40003
      H   17    0.10476      0.00000     0.39399    0.00125     0.39524
      H   18    0.09445      0.00000     0.40413    0.00141     0.40555
      H   19    0.08963      0.00000     0.40833    0.00204     0.41037
      H   20    0.09282      0.00000     0.40600    0.00118     0.40718
      H   21    0.17113      0.00000     0.32525    0.00362     0.32887
      H   22    0.08719      0.00000     0.41161    0.00120     0.41281
      H   23    0.09791      0.00000     0.40102    0.00106     0.40209
      H   24    0.09701      0.00000     0.40186    0.00113     0.40299
      H   25    0.11010      0.00000     0.38854    0.00136     0.38990
      H   26    0.08971      0.00000     0.40918    0.00112     0.41029
      H   27    0.07565      0.00000     0.42213    0.00222     0.42435
      H   28    0.17454      0.00000     0.32347    0.00199     0.32546
      H   29    0.17213      0.00000     0.32613    0.00174     0.32787
 =======================================================================
   * Total *    0.00000     12.99576    36.82132    0.18292    50.00000

 Normal termination of Gaussian 16 at Mon Dec 14 19:20:04 2020.
