 Gaussian 16, Revision A.03,

 -----------------------------------------------------------
 # opt freq B3LYP/6-31G(d) empiricaldispersion=gd3bj scf=xqc
 -----------------------------------------------------------

 -------------------------------
 CID_103228901_JID_8367_neutraal
 -------------------------------
 Symbolic Z-matrix:
 Charge =  0 Multiplicity = 1

 SCF Done:  E(RB3LYP) =  -825.155302530     A.U. after   14 cycles
 SCF Done:  E(RB3LYP) =  -825.158844003     A.U. after   13 cycles
 SCF Done:  E(RB3LYP) =  -825.154155516     A.U. after   14 cycles
 SCF Done:  E(RB3LYP) =  -825.159684890     A.U. after   12 cycles
 SCF Done:  E(RB3LYP) =  -825.161341355     A.U. after   12 cycles
 SCF Done:  E(RB3LYP) =  -825.163048601     A.U. after   12 cycles
 SCF Done:  E(RB3LYP) =  -825.163965323     A.U. after   13 cycles
 SCF Done:  E(RB3LYP) =  -825.164813246     A.U. after   12 cycles
 SCF Done:  E(RB3LYP) =  -825.165179815     A.U. after   12 cycles
 SCF Done:  E(RB3LYP) =  -825.165766939     A.U. after   11 cycles
 SCF Done:  E(RB3LYP) =  -825.166723940     A.U. after    8 cycles
 SCF Done:  E(RB3LYP) =  -825.166724036     A.U. after    7 cycles
 SCF Done:  E(RB3LYP) =  -825.166724096     A.U. after    7 cycles
 SCF Done:  E(RB3LYP) =  -825.166724107     A.U. after    6 cycles
 SCF Done:  E(RB3LYP) =  -825.166724116     A.U. after    6 cycles
 Optimization completed.
    -- Stationary point found.
 Normal termination of Gaussian 16 at Mon Dec 14 13:50:27 2020.

 --------------------------------------------------------------------
 #N Geom=AllCheck Guess=TCheck SCRF=Check GenChk RB3LYP/6-31G(d) Freq
 --------------------------------------------------------------------

 Structure from the checkpoint file:  "JID_8367.chk"
 -------------------------------
 CID_103228901_JID_8367_neutraal
 -------------------------------
 Charge =  0 Multiplicity = 1

 SCF Done:  E(RB3LYP) =  -825.166724116     A.U. after    1 cycles

  Exact polarizability: 169.621  -7.374 162.892  -5.399  -9.672 147.279
 Approx polarizability: 218.027 -19.689 228.514 -11.137 -15.311 234.160

                      1                      2                      3
                      A                      A                      A
 Frequencies --     30.1709                38.7339                42.8771
 Red. masses --      3.2143                 3.1907                 3.0993
 Frc consts  --      0.0017                 0.0028                 0.0034
 IR Inten    --      0.0107                 0.2005                 0.9647

                      4                      5                      6
                      A                      A                      A
 Frequencies --     57.3136                67.9333                80.5449
 Red. masses --      3.4194                 3.7563                 2.6887
 Frc consts  --      0.0066                 0.0102                 0.0103
 IR Inten    --      0.2270                 0.2973                 0.1050

                      7                      8                      9
                      A                      A                      A
 Frequencies --     89.0584                96.3643               108.3820
 Red. masses --      3.0148                 1.0677                 1.3493
 Frc consts  --      0.0141                 0.0058                 0.0093
 IR Inten    --      1.0484                 0.2572                 0.6278

                     10                     11                     12
                      A                      A                      A
 Frequencies --    121.4471               139.3669               152.0814
 Red. masses --      2.9014                 2.1496                 3.5250
 Frc consts  --      0.0252                 0.0246                 0.0480
 IR Inten    --      0.1156                 1.5213                 0.9089

                     13                     14                     15
                      A                      A                      A
 Frequencies --    178.9933               201.2078               225.1837
 Red. masses --      2.6715                 1.5048                 1.1924
 Frc consts  --      0.0504                 0.0359                 0.0356
 IR Inten    --     11.0532                 0.9123                 0.0347

                     16                     17                     18
                      A                      A                      A
 Frequencies --    228.0716               244.1031               251.5948
 Red. masses --      2.4614                 1.5486                 1.9960
 Frc consts  --      0.0754                 0.0544                 0.0744
 IR Inten    --      0.5694                 1.2265                 4.1109

                     19                     20                     21
                      A                      A                      A
 Frequencies --    277.9383               282.9756               310.9556
 Red. masses --      2.6084                 2.4042                 2.0562
 Frc consts  --      0.1187                 0.1134                 0.1171
 IR Inten    --      2.3516                 2.0137                 0.5689

                     22                     23                     24
                      A                      A                      A
 Frequencies --    333.7888               347.7761               374.7767
 Red. masses --      3.5465                 3.7145                 2.4448
 Frc consts  --      0.2328                 0.2647                 0.2023
 IR Inten    --      1.7099                 1.1212                 0.6714

                     25                     26                     27
                      A                      A                      A
 Frequencies --    415.1145               427.0982               436.2086
 Red. masses --      2.5954                 1.9809                 3.4537
 Frc consts  --      0.2635                 0.2129                 0.3872
 IR Inten    --      5.8265                 1.5127                 5.1380

                     28                     29                     30
                      A                      A                      A
 Frequencies --    489.6304               518.2712               542.9573
 Red. masses --      2.3976                 3.5555                 3.2247
 Frc consts  --      0.3387                 0.5627                 0.5601
 IR Inten    --      6.3625                 2.8352                14.3802

                     31                     32                     33
                      A                      A                      A
 Frequencies --    589.6121               655.2733               667.3260
 Red. masses --      5.6430                 4.8676                 5.7697
 Frc consts  --      1.1558                 1.2314                 1.5138
 IR Inten    --      8.0637                10.7365                 2.5493

                     34                     35                     36
                      A                      A                      A
 Frequencies --    681.9918               730.2459               760.4420
 Red. masses --      3.9028                 1.8479                 2.1755
 Frc consts  --      1.0695                 0.5806                 0.7412
 IR Inten    --      1.5857                30.5952                47.7818

                     37                     38                     39
                      A                      A                      A
 Frequencies --    780.0806               805.8480               840.1495
 Red. masses --      1.6273                 3.4228                 2.2961
 Frc consts  --      0.5834                 1.3096                 0.9549
 IR Inten    --     13.2824                 9.9344                24.0865

                     40                     41                     42
                      A                      A                      A
 Frequencies --    872.2138               897.7112               915.5130
 Red. masses --      1.7224                 2.3397                 2.5876
 Frc consts  --      0.7720                 1.1109                 1.2778
 IR Inten    --     20.3796                17.6562                23.2347

                     43                     44                     45
                      A                      A                      A
 Frequencies --    935.2446               952.0149               967.8075
 Red. masses --      1.3462                 1.8637                 2.4671
 Frc consts  --      0.6938                 0.9952                 1.3615
 IR Inten    --      3.9645                13.3240                12.9027

                     46                     47                     48
                      A                      A                      A
 Frequencies --    977.2760               981.8805              1004.0677
 Red. masses --      1.5299                 1.7635                 1.6347
 Frc consts  --      0.8609                 1.0017                 0.9710
 IR Inten    --      2.3396                 3.5446                 2.3171

                     49                     50                     51
                      A                      A                      A
 Frequencies --   1032.4069              1074.3428              1076.0854
 Red. masses --      3.2101                 2.3521                 2.7836
 Frc consts  --      2.0159                 1.5995                 1.8991
 IR Inten    --     15.8015                10.8056                38.3757

                     52                     53                     54
                      A                      A                      A
 Frequencies --   1077.3475              1096.8189              1121.9521
 Red. masses --      1.5355                 1.8710                 2.4895
 Frc consts  --      1.0501                 1.3261                 1.8463
 IR Inten    --      3.7093                43.6569                32.3672

                     55                     56                     57
                      A                      A                      A
 Frequencies --   1150.2040              1165.5651              1170.9543
 Red. masses --      2.3757                 1.2984                 2.9131
 Frc consts  --      1.8518                 1.0393                 2.3533
 IR Inten    --      2.4739                 2.7323                12.9946

                     58                     59                     60
                      A                      A                      A
 Frequencies --   1181.7641              1185.6088              1190.0227
 Red. masses --      1.5755                 3.6549                 1.3032
 Frc consts  --      1.2964                 3.0269                 1.0874
 IR Inten    --     20.9526               114.2298                 2.8303

                     61                     62                     63
                      A                      A                      A
 Frequencies --   1192.7134              1209.1691              1210.2330
 Red. masses --      1.8391                 2.6532                 2.4036
 Frc consts  --      1.5415                 2.2855                 2.0742
 IR Inten    --      3.2817                28.7690                26.6365

                     64                     65                     66
                      A                      A                      A
 Frequencies --   1236.5603              1269.2313              1294.4374
 Red. masses --      1.7492                 1.1798                 1.4044
 Frc consts  --      1.5759                 1.1198                 1.3864
 IR Inten    --     45.8510                18.7017                 3.4023

                     67                     68                     69
                      A                      A                      A
 Frequencies --   1314.3644              1328.4317              1344.8425
 Red. masses --      5.1618                 1.2282                 1.2584
 Frc consts  --      5.2539                 1.2770                 1.3410
 IR Inten    --     21.7992                 8.3307                 4.3407

                     70                     71                     72
                      A                      A                      A
 Frequencies --   1361.8750              1388.6923              1403.4342
 Red. masses --      1.3250                 1.3463                 1.2766
 Frc consts  --      1.4479                 1.5297                 1.4815
 IR Inten    --      9.7664                 7.2898                23.6265

                     73                     74                     75
                      A                      A                      A
 Frequencies --   1411.6335              1417.6727              1426.8261
 Red. masses --      1.3277                 1.3793                 1.7996
 Frc consts  --      1.5589                 1.6333                 2.1586
 IR Inten    --     11.3919                 3.0406                 8.4011

                     76                     77                     78
                      A                      A                      A
 Frequencies --   1431.9569              1437.9604              1440.9657
 Red. masses --      1.2930                 1.3707                 1.8744
 Frc consts  --      1.5620                 1.6699                 2.2931
 IR Inten    --      7.1185                 4.3938                14.6217

                     79                     80                     81
                      A                      A                      A
 Frequencies --   1453.1669              1465.8411              1491.9761
 Red. masses --      1.2548                 1.3538                 1.2322
 Frc consts  --      1.5612                 1.7139                 1.6160
 IR Inten    --      6.7406                18.8102                 9.0195

                     82                     83                     84
                      A                      A                      A
 Frequencies --   1497.5031              1504.3455              1507.0770
 Red. masses --      1.7870                 1.0841                 1.1697
 Frc consts  --      2.3611                 1.4455                 1.5653
 IR Inten    --     38.8594                 2.1810                 1.2701

                     85                     86                     87
                      A                      A                      A
 Frequencies --   1512.6418              1513.1087              1513.3796
 Red. masses --      1.7598                 1.1078                 1.0569
 Frc consts  --      2.3724                 1.4943                 1.4263
 IR Inten    --      7.7117                12.1130                 4.2530

                     88                     89                     90
                      A                      A                      A
 Frequencies --   1517.0141              1520.6583              1523.0083
 Red. masses --      1.1968                 1.1371                 1.0874
 Frc consts  --      1.6228                 1.5493                 1.4861
 IR Inten    --      9.8293                 6.8628                 2.0505

                     91                     92                     93
                      A                      A                      A
 Frequencies --   1528.6040              1531.3357              1535.7373
 Red. masses --      1.1245                 1.2513                 1.0619
 Frc consts  --      1.5480                 1.7288                 1.4756
 IR Inten    --      5.7115                 7.3610                15.0406

                     94                     95                     96
                      A                      A                      A
 Frequencies --   1537.7731              1545.1531              1548.4719
 Red. masses --      1.1089                 1.0559                 1.0598
 Frc consts  --      1.5450                 1.4853                 1.4973
 IR Inten    --     23.9001                11.6932                17.1920

                     97                     98                     99
                      A                      A                      A
 Frequencies --   1554.6909              1602.3746              2971.0063
 Red. masses --      1.6299                 5.5158                 1.0712
 Frc consts  --      2.3211                 8.3443                 5.5709
 IR Inten    --     31.4589               148.2927                43.7884

                    100                    101                    102
                      A                      A                      A
 Frequencies --   2998.1982              3015.6253              3022.4523
 Red. masses --      1.0485                 1.0803                 1.0598
 Frc consts  --      5.5530                 5.7885                 5.7044
 IR Inten    --     52.6761                10.4449                43.5352

                    103                    104                    105
                      A                      A                      A
 Frequencies --   3036.4520              3042.4406              3049.1703
 Red. masses --      1.0373                 1.0412                 1.0380
 Frc consts  --      5.6349                 5.6785                 5.6859
 IR Inten    --     31.0266                37.2555                35.2126

                    106                    107                    108
                      A                      A                      A
 Frequencies --   3052.2030              3055.9585              3064.1897
 Red. masses --      1.0816                 1.0684                 1.1047
 Frc consts  --      5.9368                 5.8789                 6.1111
 IR Inten    --     19.7204                31.0142                35.1450

                    109                    110                    111
                      A                      A                      A
 Frequencies --   3068.3162              3085.9182              3098.1909
 Red. masses --      1.0375                 1.0855                 1.1002
 Frc consts  --      5.7552                 6.0906                 6.2221
 IR Inten    --     38.3232                36.0094                 9.9707

                    112                    113                    114
                      A                      A                      A
 Frequencies --   3099.9327              3099.9796              3103.5305
 Red. masses --      1.0963                 1.0953                 1.1004
 Frc consts  --      6.2073                 6.2014                 6.2445
 IR Inten    --      6.9012                25.9574                57.3414

                    115                    116                    117
                      A                      A                      A
 Frequencies --   3111.1848              3112.4961              3133.7135
 Red. masses --      1.1019                 1.0986                 1.0980
 Frc consts  --      6.2840                 6.2703                 6.3529
 IR Inten    --     41.9418                48.2201                17.4322

                    118                    119                    120
                      A                      A                      A
 Frequencies --   3135.6744              3137.3734              3144.8295
 Red. masses --      1.1034                 1.1010                 1.1002
 Frc consts  --      6.3924                 6.3851                 6.4107
 IR Inten    --     46.5729                16.2296                 9.6866

                    121                    122                    123
                      A                      A                      A
 Frequencies --   3183.0886              3288.0538              3524.0222
 Red. masses --      1.1032                 1.0970                 1.0738
 Frc consts  --      6.5856                 6.9879                 7.8569
 IR Inten    --      3.7595                 1.6520                15.4448

 - Thermochemistry -
 -------------------
 Temperature   298.150 Kelvin.  Pressure   1.00000 Atm.
 Atom     1 has atomic number  6 and mass  12.00000

 Molecular mass:   255.19468 amu.
 Principal axes and moments of inertia in atomic units:
                           1         2         3
     Eigenvalues --  3910.528495702.331137665.38027
           X            0.99956   0.02938  -0.00494
           Y           -0.02946   0.99941  -0.01747
           Z            0.00442   0.01761   0.99984
 This molecule is an asymmetric top.
 Rotational symmetry number  1.
 Warning -- assumption of classical behavior for rotation
           may cause significant error
 Rotational temperatures (Kelvin)      0.02215     0.01519     0.01130
 Rotational constants (GHZ):           0.46151     0.31649     0.23544
 Zero-point vibrational energy    1003712.1 (Joules/Mol)
                                  239.89294 (Kcal/Mol)
 Warning -- explicit consideration of  31 degrees of freedom as
           vibrations may cause significant error
 Vibrational temperatures:     43.41    55.73    61.69    82.46    97.74
          (Kelvin)            115.89   128.14   138.65   155.94   174.74
                              200.52   218.81   257.53   289.49   323.99
                              328.14   351.21   361.99   399.89   407.14
                              447.40   480.25   500.37   539.22   597.26
                              614.50   627.61   704.47   745.68   781.19
                              848.32   942.79   960.13   981.23  1050.66
                             1094.11  1122.36  1159.44  1208.79  1254.92
                             1291.61  1317.22  1345.61  1369.74  1392.46
                             1406.08  1412.71  1444.63  1485.40  1545.74
                             1548.25  1550.06  1578.08  1614.24  1654.89
                             1676.99  1684.74  1700.29  1705.83  1712.18
                             1716.05  1739.72  1741.26  1779.13  1826.14
                             1862.41  1891.08  1911.32  1934.93  1959.43
                             1998.02  2019.23  2031.03  2039.71  2052.88
                             2060.27  2068.90  2073.23  2090.78  2109.02
                             2146.62  2154.57  2164.42  2168.35  2176.35
                             2177.03  2177.42  2182.64  2187.89  2191.27
                             2199.32  2203.25  2209.58  2212.51  2223.13
                             2227.91  2236.85  2305.46  4274.62  4313.74
                             4338.81  4348.63  4368.78  4377.39  4387.08
                             4391.44  4396.84  4408.69  4414.62  4439.95
                             4457.61  4460.11  4460.18  4465.29  4476.30
                             4478.19  4508.71  4511.54  4513.98  4524.71
                             4579.75  4730.78  5070.28

 Zero-point correction=                           0.382294 (Hartree/Particle)
 Thermal correction to Energy=                    0.403280
 Thermal correction to Enthalpy=                  0.404224
 Thermal correction to Gibbs Free Energy=         0.331471
 Sum of electronic and zero-point Energies=           -824.784430
 Sum of electronic and thermal Energies=              -824.763444
 Sum of electronic and thermal Enthalpies=            -824.762500
 Sum of electronic and thermal Free Energies=         -824.835254

                     E (Thermal)             CV                S
                      KCal/Mol        Cal/Mol-Kelvin    Cal/Mol-Kelvin
 Total                  253.062             75.991            153.123
 Electronic               0.000              0.000              0.000
 Translational            0.889              2.981             42.511
 Rotational               0.889              2.981             33.502
 Vibrational            251.285             70.029             77.111
 Vibration     1          0.594              1.984              5.818
 Vibration     2          0.594              1.981              5.323
 Vibration     3          0.595              1.980              5.122
 Vibration     4          0.596              1.975              4.548
 Vibration     5          0.598              1.970              4.212
 Vibration     6          0.600              1.962              3.878
 Vibration     7          0.602              1.957              3.681
 Vibration     8          0.603              1.952              3.527
 Vibration     9          0.606              1.943              3.298
 Vibration    10          0.609              1.931              3.077
 Vibration    11          0.615              1.914              2.813
 Vibration    12          0.619              1.900              2.646
 Vibration    13          0.629              1.868              2.339
 Vibration    14          0.638              1.838              2.122
 Vibration    15          0.650              1.803              1.917
 Vibration    16          0.651              1.798              1.894
 Vibration    17          0.659              1.773              1.773
 Vibration    18          0.664              1.760              1.719
 Vibration    19          0.679              1.714              1.546
 Vibration    20          0.682              1.705              1.516
 Vibration    21          0.700              1.653              1.357
 Vibration    22          0.715              1.608              1.242
 Vibration    23          0.725              1.580              1.176
 Vibration    24          0.746              1.524              1.060
 Vibration    25          0.779              1.437              0.909
 Vibration    26          0.789              1.411              0.868
 Vibration    27          0.797              1.391              0.839
 Vibration    28          0.845              1.273              0.685
 Vibration    29          0.873              1.210              0.614
 Vibration    30          0.898              1.155              0.559
 Vibration    31          0.947              1.054              0.468

                           ! Non-Optimized Parameters !
 Normal termination of Gaussian 16 at Mon Dec 14 14:12:56 2020.

 ----------------------------------------------------------------------
 # B3LYP/6-311++G(d,p) empiricaldispersion=gd3bj scf=xqc pop=npa geom=c
 heck
 ----------------------------------------------------------------------

 ---------------------------------------
 CID_103228901_JID_8367_Energie_neutraal
 ---------------------------------------
 Structure from the checkpoint file:  "JID_8367.chk"
 Charge =  0 Multiplicity = 1

 SCF Done:  E(RB3LYP) =  -825.400034163     A.U. after   16 cycles
 Normal termination of Gaussian 16 at Mon Dec 14 14:24:05 2020.

 ----------------------------------------------------------------------
 # B3LYP/6-311++G(d,p) empiricaldispersion=gd3bj scf=xqc pop=npa geom=c
 heck
 ----------------------------------------------------------------------

 -------------------------------------
 CID_103228901_JID_8367_Energie_kation
 -------------------------------------
 Structure from the checkpoint file:  "JID_8367.chk"
 Charge =  1 Multiplicity = 2

 SCF Done:  E(UB3LYP) =  -825.107306715     A.U. after   29 cycles
 Normal termination of Gaussian 16 at Mon Dec 14 14:52:54 2020.
 Gaussian 16:  ES64L-G16RevA.03 25-Dec-2016

 ----------------------------------------------------------------------
 # B3LYP/6-311++G(d,p) empiricaldispersion=gd3bj scf=xqc pop=npa geom=c
 heck
 ----------------------------------------------------------------------

 ------------------------------------
 CID_103228901_JID_8367_Energie_anion
 ------------------------------------
 Structure from the checkpoint file:  "JID_8367.chk"
 Charge = -1 Multiplicity = 2

                         Standard orientation:
 ---------------------------------------------------------------------
 Center     Atomic      Atomic             Coordinates (Angstroms)
 Number     Number       Type             X           Y           Z
 ---------------------------------------------------------------------
      1          6           0        0.009461    3.569420   -1.813840
      2          6           0        0.290000    2.579948   -0.726571
      3          7           0       -0.361530    2.657970    0.437649
      4          7           0        0.117448    1.628036    1.184790
      5          6           0        1.062231    0.908936    0.512570
      6          6           0        1.206248    1.499351   -0.734520
      7          8           0        1.677128   -0.131418    1.118827
      8          6           0        1.348250   -1.485922    0.669015
      9          6           0       -0.161460   -1.726073    0.570622
     10          7           0       -0.724252   -1.335273   -0.715680
     11          6           0       -2.120403   -1.717953   -0.906582
     12          6           0       -3.171790   -1.054703    0.008974
     13          6           0       -3.217408    0.463792   -0.193399
     14          6           0       -4.546711   -1.684258   -0.242457
     15          6           0        2.098733   -1.870106   -0.604911
     16          8           0        3.490404   -2.026674   -0.405412
     17          6           0        4.238362   -0.824901   -0.466460
     18          6           0       -0.374820    1.411582    2.527749
     19          1           0       -0.751488    4.278668   -1.478003
     20          1           0        0.910747    4.130914   -2.087101
     21          1           0       -0.354698    3.074228   -2.721979
     22          1           0        1.884863    1.203763   -1.519436
     23          1           0        1.748048   -2.093361    1.485624
     24          1           0       -0.323737   -2.806922    0.677866
     25          1           0       -0.639376   -1.256673    1.448324
     26          1           0       -0.604751   -0.337194   -0.868212
     27          1           0       -2.382061   -1.500814   -1.951637
     28          1           0       -2.179373   -2.809225   -0.790345
     29          1           0       -2.894523   -1.257381    1.054135
     30          1           0       -3.503458    0.705329   -1.225920
     31          1           0       -3.957548    0.926945    0.469280
     32          1           0       -2.256470    0.948303    0.004737
     33          1           0       -4.531968   -2.766171   -0.064041
     34          1           0       -5.310351   -1.245267    0.409433
     35          1           0       -4.864283   -1.521638   -1.280709
     36          1           0        1.720850   -2.844844   -0.931066
     37          1           0        1.885977   -1.156832   -1.411238
     38          1           0        4.042605   -0.282019   -1.405437
     39          1           0        4.023861   -0.155763    0.374556
     40          1           0        5.293125   -1.112166   -0.442553
     41          1           0       -0.337091    2.352161    3.082182
     42          1           0       -1.408271    1.050275    2.505841
     43          1           0        0.263301    0.670614    3.009933
 ---------------------------------------------------------------------

 SCF Done:  E(UB3LYP) =  -825.386691784     A.U. after   33 cycles
 SCF Done:  E(UB3LYP) =  -825.386691784     a.u. after    1 cycles

 The electronic state is 2-A.
 Alpha  occ. eigenvalues --  -19.06635 -19.03916 -14.29644 -14.23364 -14.20441
 Alpha  occ. eigenvalues --  -10.17242 -10.14476 -10.12907 -10.12349 -10.11585
 Alpha  occ. eigenvalues --  -10.11071 -10.10723 -10.09594 -10.08311 -10.07616
 Alpha  occ. eigenvalues --  -10.07495 -10.06520 -10.05985  -0.99476  -0.95264
 Alpha  occ. eigenvalues --   -0.94364  -0.81792  -0.75987  -0.71335  -0.69817
 Alpha  occ. eigenvalues --   -0.67164  -0.65306  -0.62411  -0.59065  -0.59011
 Alpha  occ. eigenvalues --   -0.57566  -0.55203  -0.53188  -0.50331  -0.47188
 Alpha  occ. eigenvalues --   -0.45672  -0.43414  -0.42655  -0.41023  -0.40119
 Alpha  occ. eigenvalues --   -0.39198  -0.38178  -0.37171  -0.36096  -0.35778
 Alpha  occ. eigenvalues --   -0.35486  -0.34723  -0.33757  -0.33673  -0.32745
 Alpha  occ. eigenvalues --   -0.31479  -0.30895  -0.30549  -0.30072  -0.29829
 Alpha  occ. eigenvalues --   -0.29340  -0.28891  -0.28563  -0.27036  -0.25566
 Alpha  occ. eigenvalues --   -0.25203  -0.24234  -0.24042  -0.23250  -0.22639
 Alpha  occ. eigenvalues --   -0.20039  -0.17024  -0.15783  -0.14846  -0.13348
 Alpha  occ. eigenvalues --    0.04155
 Alpha virt. eigenvalues --    0.05789   0.06385   0.06817   0.07386   0.08183
 Alpha virt. eigenvalues --    0.08579   0.08730   0.09139   0.09708   0.10037
 Alpha virt. eigenvalues --    0.10408   0.10613   0.10779   0.11441   0.11912

  Beta  occ. eigenvalues --  -19.06632 -19.03911 -14.29641 -14.23357 -14.20437
  Beta  occ. eigenvalues --  -10.17240 -10.14466 -10.12902 -10.12335 -10.11547
  Beta  occ. eigenvalues --  -10.11070 -10.10698 -10.09581 -10.08293 -10.07603
  Beta  occ. eigenvalues --  -10.07489 -10.06495 -10.05968  -0.99468  -0.95254
  Beta  occ. eigenvalues --   -0.94356  -0.81777  -0.75973  -0.71312  -0.69796
  Beta  occ. eigenvalues --   -0.67148  -0.65275  -0.62382  -0.59022  -0.58974
  Beta  occ. eigenvalues --   -0.57529  -0.55164  -0.53159  -0.50309  -0.47135
  Beta  occ. eigenvalues --   -0.45644  -0.43384  -0.42632  -0.41001  -0.40101
  Beta  occ. eigenvalues --   -0.39176  -0.38160  -0.37145  -0.36067  -0.35745
  Beta  occ. eigenvalues --   -0.35458  -0.34702  -0.33733  -0.33642  -0.32715
  Beta  occ. eigenvalues --   -0.31453  -0.30869  -0.30520  -0.30047  -0.29805
  Beta  occ. eigenvalues --   -0.29313  -0.28870  -0.28542  -0.27011  -0.25542
  Beta  occ. eigenvalues --   -0.25178  -0.24216  -0.24009  -0.23211  -0.22619
  Beta  occ. eigenvalues --   -0.20020  -0.17013  -0.15770  -0.14835  -0.13334
  Beta virt. eigenvalues --    0.05929   0.06670   0.06778   0.07339   0.07978
  Beta virt. eigenvalues --    0.08487   0.08756   0.09035   0.09436   0.10025
  Beta virt. eigenvalues --    0.10275   0.10568   0.10839   0.10962   0.11714

 Mulliken charges and spin densities:
               1          2
     1  C    0.770054  -1.446723
     2  C   -0.139677  -0.017012
     3  N   -0.283927   0.206009
     4  N    0.250914  -0.046165
     5  C   -1.277359   0.131636
     6  C    0.435000   0.384099
     7  O   -0.032875  -0.007862
     8  C   -0.538204   0.599488
     9  C    0.119082  -0.758843
    10  N    0.014838   0.038275
    11  C    0.211622  -0.734473
    12  C   -0.513407   1.043570
    13  C   -0.223448  -0.341602
    14  C    0.288115  -0.974665
    15  C   -0.062970  -0.540711
    16  O   -0.101526   0.016510
    17  C    0.040195  -0.324961
    18  C    0.829636  -1.100926
    19  H    0.049447   0.103563
    20  H   -0.073070   0.224760
    21  H   -0.031215   0.192662
    22  H    0.008322   0.170931
    23  H   -0.320015   0.561568
    24  H   -0.554489   0.736367
    25  H    0.263944  -0.137741
    26  H    0.262314   0.007133
    27  H   -0.000331   0.158482
    28  H    0.070065   0.081367
    29  H   -0.177411   0.342390
    30  H   -0.001441   0.140357
    31  H   -0.114720   0.268097
    32  H    0.783907  -0.749059
    33  H   -0.287734   0.425496
    34  H   -0.160813   0.300925
    35  H    0.069919   0.052184
    36  H    0.069818   0.116429
    37  H    0.240661  -0.010781
    38  H   -0.030880   0.122396
    39  H    0.043410   0.138222
    40  H   -0.088299   0.258017
    41  H   -0.027248   0.201727
    42  H   -0.305876   0.515359
    43  H   -0.474327   0.653507
 Sum of Mulliken charges =  -1.00000   1.00000

 Dipole moment (field-independent basis, Debye):
    X=              2.5040    Y=              2.2108    Z=             -3.6589  Tot=              4.9543
 Quadrupole moment (field-independent basis, Debye-Ang):
   XX=           -184.7290   YY=           -174.5633   ZZ=           -158.0016
   XY=             -2.9290   XZ=              4.9125   YZ=              5.2347

 Summary of Natural Population Analysis:

                                       Natural Population
                Natural  -----------------------------------------------
    Atom  No    Charge         Core      Valence    Rydberg      Total
 -----------------------------------------------------------------------
      C    1   -0.29725      0.99963     2.29309    0.00454     3.29725
      C    2    0.07624      0.99961     1.90912    0.01503     2.92376
      N    3   -0.16506      0.99970     2.65437    0.01098     3.66506
      N    4   -0.12272      0.99962     2.61036    0.01274     3.62272
      C    5    0.24668      0.99939     1.73553    0.01840     2.75332
      C    6   -0.19478      0.99944     2.18646    0.00889     3.19478
      O    7   -0.29158      0.99985     3.28174    0.00998     4.29158
      C    8    0.05442      0.99950     1.93063    0.01545     2.94558
      C    9   -0.10483      0.99959     2.09348    0.01176     3.10483
      N   10   -0.34860      0.99974     2.83820    0.01066     3.84860
      C   11   -0.08075      0.99960     2.06911    0.01203     3.08075
      C   12   -0.12596      0.99961     2.11757    0.00877     3.12596
      C   13   -0.28978      0.99964     2.28299    0.00715     3.28978
      C   14   -0.28372      0.99965     2.27753    0.00654     3.28372
      C   15   -0.02096      0.99953     2.00950    0.01193     3.02096
      O   16   -0.29879      0.99989     3.28943    0.00948     4.29879
      C   17   -0.09816      0.99961     2.09029    0.00827     3.09816
      C   18   -0.17595      0.99963     2.16798    0.00834     3.17595
      H   19    0.10924      0.00000     0.38969    0.00107     0.39076
      H   20    0.10318      0.00000     0.39569    0.00113     0.39682
      H   21    0.10371      0.00000     0.39520    0.00108     0.39629
      H   22    0.11068      0.00000     0.38822    0.00110     0.38932
      H   23    0.10061      0.00000     0.39758    0.00182     0.39939
      H   24    0.10294      0.00000     0.39542    0.00164     0.39706
      H   25    0.08924      0.00000     0.40778    0.00297     0.41076
      H   26    0.18007      0.00000     0.31564    0.00429     0.31993
      H   27    0.09056      0.00000     0.40843    0.00101     0.40944
      H   28    0.09308      0.00000     0.40574    0.00118     0.40692
      H   29    0.09456      0.00000     0.40269    0.00275     0.40544
      H   30    0.09369      0.00000     0.40534    0.00097     0.40631
      H   31    0.10064      0.00000     0.39845    0.00092     0.39936
      H   32    0.10329      0.00000     0.39475    0.00196     0.39671
      H   33    0.10013      0.00000     0.39884    0.00103     0.39987
      H   34    0.10048      0.00000     0.39860    0.00092     0.39952
      H   35    0.09364      0.00000     0.40543    0.00092     0.40636
      H   36    0.09843      0.00000     0.40003    0.00154     0.40157
      H   37    0.08745      0.00000     0.41086    0.00168     0.41255
      H   38    0.07511      0.00000     0.42345    0.00143     0.42489
      H   39    0.08865      0.00000     0.40988    0.00147     0.41135
      H   40    0.08674      0.00000     0.41218    0.00108     0.41326
      H   41    0.10290      0.00000     0.39595    0.00115     0.39710
      H   42    0.10264      0.00000     0.39586    0.00150     0.39736
      H   43    0.10988      0.00000     0.38845    0.00167     0.39012
 =======================================================================
   * Total *   -0.00000     17.99323    51.77754    0.22923    70.00000

 Normal termination of Gaussian 16 at Mon Dec 14 15:23:42 2020.
