 Gaussian 16, Revision A.03,

 -----------------------------------------------------------
 # opt freq B3LYP/6-31G(d) empiricaldispersion=gd3bj scf=xqc
 -----------------------------------------------------------

 ------------------------------
 CID_66357780_JID_6262_neutraal
 ------------------------------
 Symbolic Z-matrix:
 Charge =  0 Multiplicity = 1

 SCF Done:  E(RB3LYP) =  -715.630569648     A.U. after   13 cycles
 SCF Done:  E(RB3LYP) =  -715.643028580     A.U. after   10 cycles
 SCF Done:  E(RB3LYP) =  -715.644582086     A.U. after   11 cycles
 SCF Done:  E(RB3LYP) =  -715.645153653     A.U. after   10 cycles
 SCF Done:  E(RB3LYP) =  -715.645391319     A.U. after   10 cycles
 SCF Done:  E(RB3LYP) =  -715.645498613     A.U. after   10 cycles
 SCF Done:  E(RB3LYP) =  -715.645544052     A.U. after   10 cycles
 SCF Done:  E(RB3LYP) =  -715.645579573     A.U. after    9 cycles
 SCF Done:  E(RB3LYP) =  -715.645594383     A.U. after    9 cycles
 SCF Done:  E(RB3LYP) =  -715.645602018     A.U. after    9 cycles
 SCF Done:  E(RB3LYP) =  -715.645605347     A.U. after    9 cycles
 SCF Done:  E(RB3LYP) =  -715.645606071     A.U. after    7 cycles
 SCF Done:  E(RB3LYP) =  -715.645606270     A.U. after    6 cycles
 SCF Done:  E(RB3LYP) =  -715.645606318     A.U. after    6 cycles
 SCF Done:  E(RB3LYP) =  -715.645606334     A.U. after    6 cycles
 Optimization completed.
    -- Stationary point found.
 Normal termination of Gaussian 16 at Thu Dec 10 22:04:05 2020.

 --------------------------------------------------------------------
 #N Geom=AllCheck Guess=TCheck SCRF=Check GenChk RB3LYP/6-31G(d) Freq
 --------------------------------------------------------------------

 Structure from the checkpoint file:  "JID_6262.chk"
 ------------------------------
 CID_66357780_JID_6262_neutraal
 ------------------------------
 Charge =  0 Multiplicity = 1

 SCF Done:  E(RB3LYP) =  -715.645606334     A.U. after    1 cycles

  Exact polarizability: 164.867   2.583 145.786   4.108   1.641 130.349
 Approx polarizability: 202.940   2.820 199.658   0.931   0.640 191.113

                      1                      2                      3
                      A                      A                      A
 Frequencies --     12.1381                31.7841                59.3881
 Red. masses --      3.8202                 3.4953                 2.5762
 Frc consts  --      0.0003                 0.0021                 0.0054
 IR Inten    --      0.0529                 0.2326                 0.5156

                      4                      5                      6
                      A                      A                      A
 Frequencies --     64.6700                82.0722                88.2721
 Red. masses --      2.8221                 2.6484                 2.2581
 Frc consts  --      0.0070                 0.0105                 0.0104
 IR Inten    --      1.3782                 0.1608                 0.7459

                      7                      8                      9
                      A                      A                      A
 Frequencies --    103.8153               133.1554               139.6032
 Red. masses --      2.5514                 2.9286                 2.2861
 Frc consts  --      0.0162                 0.0306                 0.0263
 IR Inten    --      3.2792                 2.3599                 0.9994

                     10                     11                     12
                      A                      A                      A
 Frequencies --    167.7547               191.6223               223.4990
 Red. masses --      2.2307                 2.5051                 2.2977
 Frc consts  --      0.0370                 0.0542                 0.0676
 IR Inten    --      1.0435                 1.2947                 0.8685

                     13                     14                     15
                      A                      A                      A
 Frequencies --    238.6477               250.2224               258.8325
 Red. masses --      1.7176                 2.1156                 1.5828
 Frc consts  --      0.0576                 0.0780                 0.0625
 IR Inten    --      2.2235                 2.3867                 1.0674

                     16                     17                     18
                      A                      A                      A
 Frequencies --    281.3844               293.7441               336.0761
 Red. masses --      2.1519                 2.4527                 2.2301
 Frc consts  --      0.1004                 0.1247                 0.1484
 IR Inten    --      1.1835                 3.7545                 0.3157

                     19                     20                     21
                      A                      A                      A
 Frequencies --    348.8778               380.2126               445.6959
 Red. masses --      2.8155                 3.3257                 2.5615
 Frc consts  --      0.2019                 0.2833                 0.2998
 IR Inten    --      4.8706                 0.3627                 0.2785

                     22                     23                     24
                      A                      A                      A
 Frequencies --    489.0534               528.0512               538.9838
 Red. masses --      2.1471                 3.1072                 2.5073
 Frc consts  --      0.3026                 0.5105                 0.4291
 IR Inten    --      2.1849                 1.9488                 4.0841

                     25                     26                     27
                      A                      A                      A
 Frequencies --    589.5999               593.0223               703.8497
 Red. masses --      2.2612                 2.4732                 2.8369
 Frc consts  --      0.4631                 0.5125                 0.8280
 IR Inten    --      5.9934                 2.6102                10.3589

                     28                     29                     30
                      A                      A                      A
 Frequencies --    719.4920               785.5073               792.2363
 Red. masses --      1.8431                 1.7327                 1.5860
 Frc consts  --      0.5621                 0.6299                 0.5865
 IR Inten    --     61.7132                14.1444                18.8909

                     31                     32                     33
                      A                      A                      A
 Frequencies --    824.3708               842.9802               861.7806
 Red. masses --      1.1577                 1.8422                 2.4961
 Frc consts  --      0.4636                 0.7713                 1.0922
 IR Inten    --      0.2965                 2.0730                14.4737

                     34                     35                     36
                      A                      A                      A
 Frequencies --    896.3042               902.4589               909.2591
 Red. masses --      2.3620                 1.8576                 2.4655
 Frc consts  --      1.1180                 0.8914                 1.2010
 IR Inten    --      1.0036                19.2532                 2.5937

                     37                     38                     39
                      A                      A                      A
 Frequencies --    920.0412               929.7837               957.3731
 Red. masses --      2.1512                 1.9968                 2.0671
 Frc consts  --      1.0728                 1.0170                 1.1163
 IR Inten    --     12.8101                 0.9530                 3.5376

                     40                     41                     42
                      A                      A                      A
 Frequencies --    965.5340               997.3072              1019.1197
 Red. masses --      2.0319                 1.9621                 1.8737
 Frc consts  --      1.1160                 1.1498                 1.1466
 IR Inten    --     13.8172                 0.6808                 7.9159

                     43                     44                     45
                      A                      A                      A
 Frequencies --   1033.8169              1056.5534              1058.5485
 Red. masses --      1.9828                 2.4329                 2.8408
 Frc consts  --      1.2486                 1.6001                 1.8755
 IR Inten    --      2.1455                23.5866                33.0621

                     46                     47                     48
                      A                      A                      A
 Frequencies --   1066.8850              1078.7312              1106.0747
 Red. masses --      1.8489                 2.4163                 1.9390
 Frc consts  --      1.2400                 1.6567                 1.3977
 IR Inten    --      1.8816                10.1236                 1.9257

                     49                     50                     51
                      A                      A                      A
 Frequencies --   1133.4654              1136.2647              1154.3625
 Red. masses --      2.0483                 2.2063                 2.0796
 Frc consts  --      1.5505                 1.6783                 1.6328
 IR Inten    --     13.8229                55.0673                67.2585

                     52                     53                     54
                      A                      A                      A
 Frequencies --   1163.5075              1173.8938              1182.9461
 Red. masses --      2.2715                 3.1930                 2.7274
 Frc consts  --      1.8117                 2.5924                 2.2487
 IR Inten    --    103.0212               123.3483                 0.9804

                     55                     56                     57
                      A                      A                      A
 Frequencies --   1191.4108              1195.4724              1219.4600
 Red. masses --      2.3158                 1.3191                 1.5017
 Frc consts  --      1.9368                 1.1107                 1.3158
 IR Inten    --     47.8697                 2.9188                 2.0194

                     58                     59                     60
                      A                      A                      A
 Frequencies --   1234.9829              1239.6664              1246.2777
 Red. masses --      1.3901                 1.7302                 1.8970
 Frc consts  --      1.2492                 1.5666                 1.7360
 IR Inten    --     11.9679                15.4914                22.6886

                     61                     62                     63
                      A                      A                      A
 Frequencies --   1254.7127              1264.4282              1274.6776
 Red. masses --      1.6868                 1.8146                 1.3681
 Frc consts  --      1.5646                 1.7093                 1.3097
 IR Inten    --      4.5156                16.1883                 0.1594

                     64                     65                     66
                      A                      A                      A
 Frequencies --   1283.4360              1304.6062              1307.4583
 Red. masses --      1.1801                 1.2505                 1.2586
 Frc consts  --      1.1453                 1.2539                 1.2677
 IR Inten    --      8.6153                 1.0033                 0.7156

                     67                     68                     69
                      A                      A                      A
 Frequencies --   1310.6923              1326.7564              1346.4662
 Red. masses --      1.3463                 1.4788                 1.3431
 Frc consts  --      1.3627                 1.5337                 1.4347
 IR Inten    --      2.6025                 7.9482                 2.1721

                     70                     71                     72
                      A                      A                      A
 Frequencies --   1352.1756              1359.7279              1366.3310
 Red. masses --      1.2449                 1.3557                 1.2922
 Frc consts  --      1.3411                 1.4768                 1.4214
 IR Inten    --     36.2420                 3.8861                 8.4655

                     73                     74                     75
                      A                      A                      A
 Frequencies --   1374.6943              1405.0720              1420.1077
 Red. masses --      1.6712                 1.2261                 1.2683
 Frc consts  --      1.8607                 1.4262                 1.5070
 IR Inten    --      1.5527                41.2952                 1.3145

                     76                     77                     78
                      A                      A                      A
 Frequencies --   1431.7507              1444.0740              1446.6002
 Red. masses --      1.2991                 1.3574                 1.4227
 Frc consts  --      1.5691                 1.6677                 1.7541
 IR Inten    --     12.6773                11.9516                 4.7769

                     79                     80                     81
                      A                      A                      A
 Frequencies --   1500.9886              1502.0477              1508.9099
 Red. masses --      1.1535                 1.1060                 1.1441
 Frc consts  --      1.5312                 1.4702                 1.5348
 IR Inten    --      4.7540                 3.4458                18.9891

                     82                     83                     84
                      A                      A                      A
 Frequencies --   1511.6340              1513.1492              1515.0483
 Red. masses --      1.1174                 1.0776                 1.0492
 Frc consts  --      1.5043                 1.4536                 1.4190
 IR Inten    --      0.7143                 0.2290                 5.0855

                     85                     86                     87
                      A                      A                      A
 Frequencies --   1521.5636              1522.5168              1527.4760
 Red. masses --      1.0769                 1.0893                 1.0735
 Frc consts  --      1.4690                 1.4877                 1.4757
 IR Inten    --      0.2583                 4.7250                14.7454

                     88                     89                     90
                      A                      A                      A
 Frequencies --   1527.5901              1532.9608              1545.3185
 Red. masses --      1.0940                 1.0708                 1.1092
 Frc consts  --      1.5041                 1.4826                 1.5606
 IR Inten    --     18.6864                 2.1319                 3.7821

                     91                     92                     93
                      A                      A                      A
 Frequencies --   1549.1454              1558.2642              2967.3042
 Red. masses --      1.0904                 1.0877                 1.0594
 Frc consts  --      1.5418                 1.5561                 5.4958
 IR Inten    --      1.0296                 3.1544                49.4675

                     94                     95                     96
                      A                      A                      A
 Frequencies --   2971.2435              2991.7109              3010.8482
 Red. masses --      1.0720                 1.0400                 1.0907
 Frc consts  --      5.5758                 5.4841                 5.8255
 IR Inten    --     63.4374                91.7678                19.8982

                     97                     98                     99
                      A                      A                      A
 Frequencies --   3029.6875              3035.0243              3043.1382
 Red. masses --      1.0720                 1.1049                 1.0531
 Frc consts  --      5.7975                 5.9965                 5.7462
 IR Inten    --     93.3866                46.9257                15.3985

                    100                    101                    102
                      A                      A                      A
 Frequencies --   3045.2745              3047.1891              3049.6122
 Red. masses --      1.0678                 1.0631                 1.0727
 Frc consts  --      5.8345                 5.8161                 5.8779
 IR Inten    --     27.0772                 8.1143                25.6476

                    103                    104                    105
                      A                      A                      A
 Frequencies --   3058.1635              3059.2476              3061.9676
 Red. masses --      1.0685                 1.0781                 1.0757
 Frc consts  --      5.8878                 5.9448                 5.9419
 IR Inten    --     31.4978                27.9682                42.7077

                    106                    107                    108
                      A                      A                      A
 Frequencies --   3064.5006              3078.0721              3080.2514
 Red. masses --      1.0683                 1.0615                 1.1004
 Frc consts  --      5.9112                 5.9255                 6.1514
 IR Inten    --     31.7247                28.1580                13.2738

                    109                    110                    111
                      A                      A                      A
 Frequencies --   3094.1042              3094.9738              3100.4572
 Red. masses --      1.0998                 1.0960                 1.1048
 Frc consts  --      6.2036                 6.1858                 6.2573
 IR Inten    --     40.7043                27.9177                21.9371

                    112                    113                    114
                      A                      A                      A
 Frequencies --   3109.4153              3110.7201              3132.2170
 Red. masses --      1.0984                 1.1052                 1.1033
 Frc consts  --      6.2569                 6.3012                 6.3774
 IR Inten    --     60.4488                84.7153                27.1799

                    115                    116                    117
                      A                      A                      A
 Frequencies --   3134.7491              3138.5336              3473.6950
 Red. masses --      1.1084                 1.0968                 1.0734
 Frc consts  --      6.4171                 6.3654                 7.6309
 IR Inten    --     21.8058                30.2159                 1.2142

 - Thermochemistry -
 -------------------
 Temperature   298.150 Kelvin.  Pressure   1.00000 Atm.
 Atom     1 has atomic number  6 and mass  12.00000

 Molecular mass:   227.18853 amu.
 Principal axes and moments of inertia in atomic units:
                           1         2         3
     Eigenvalues --  2603.297455942.635717107.37914
           X            1.00000   0.00240  -0.00057
           Y           -0.00239   0.99988   0.01515
           Z            0.00060  -0.01515   0.99989
 This molecule is an asymmetric top.
 Rotational symmetry number  1.
 Warning -- assumption of classical behavior for rotation
           may cause significant error
 Rotational temperatures (Kelvin)      0.03327     0.01458     0.01219
 Rotational constants (GHZ):           0.69325     0.30369     0.25392
 Zero-point vibrational energy     981909.1 (Joules/Mol)
                                  234.68190 (Kcal/Mol)
 Warning -- explicit consideration of  26 degrees of freedom as
           vibrations may cause significant error
 Vibrational temperatures:     17.46    45.73    85.45    93.05   118.08
          (Kelvin)            127.00   149.37   191.58   200.86   241.36
                              275.70   321.57   343.36   360.01   372.40
                              404.85   422.63   483.54   501.96   547.04
                              641.26   703.64   759.75   775.48   848.30
                              853.23  1012.68  1035.19  1130.17  1139.85
                             1186.09  1212.86  1239.91  1289.58  1298.44
                             1308.22  1323.73  1337.75  1377.45  1389.19
                             1434.90  1466.29  1487.43  1520.14  1523.02
                             1535.01  1552.05  1591.39  1630.80  1634.83
                             1660.87  1674.03  1688.97  1702.00  1714.17
                             1720.02  1754.53  1776.86  1783.60  1793.12
                             1805.25  1819.23  1833.98  1846.58  1877.04
                             1881.14  1885.79  1908.91  1937.26  1945.48
                             1956.35  1965.85  1977.88  2021.59  2043.22
                             2059.97  2077.70  2081.34  2159.59  2161.11
                             2170.98  2174.90  2177.08  2179.82  2189.19
                             2190.56  2197.70  2197.86  2205.59  2223.37
                             2228.87  2241.99  4269.29  4274.96  4304.40
                             4331.94  4359.04  4366.72  4378.40  4381.47
                             4384.23  4387.71  4400.02  4401.58  4405.49
                             4409.13  4428.66  4431.79  4451.73  4452.98
                             4460.87  4473.76  4475.63  4506.56  4510.20
                             4515.65  4997.87

 Zero-point correction=                           0.373989 (Hartree/Particle)
 Thermal correction to Energy=                    0.391779
 Thermal correction to Enthalpy=                  0.392723
 Thermal correction to Gibbs Free Energy=         0.326238
 Sum of electronic and zero-point Energies=           -715.271617
 Sum of electronic and thermal Energies=              -715.253827
 Sum of electronic and thermal Enthalpies=            -715.252883
 Sum of electronic and thermal Free Energies=         -715.319369

                     E (Thermal)             CV                S
                      KCal/Mol        Cal/Mol-Kelvin    Cal/Mol-Kelvin
 Total                  245.845             65.993            139.930
 Electronic               0.000              0.000              0.000
 Translational            0.889              2.981             42.164
 Rotational               0.889              2.981             33.064
 Vibrational            244.067             60.031             64.703
 Vibration     1          0.593              1.987              7.626
 Vibration     2          0.594              1.983              5.715
 Vibration     3          0.597              1.974              4.477
 Vibration     4          0.597              1.971              4.309
 Vibration     5          0.600              1.961              3.841
 Vibration     6          0.601              1.957              3.698
 Vibration     7          0.605              1.946              3.381
 Vibration     8          0.613              1.920              2.900
 Vibration     9          0.615              1.914              2.809
 Vibration    10          0.624              1.882              2.460
 Vibration    11          0.634              1.851              2.212
 Vibration    12          0.649              1.805              1.931
 Vibration    13          0.657              1.781              1.813
 Vibration    14          0.663              1.762              1.729
 Vibration    15          0.668              1.748              1.670
 Vibration    16          0.681              1.708              1.525
 Vibration    17          0.689              1.685              1.452
 Vibration    18          0.717              1.603              1.231
 Vibration    19          0.726              1.578              1.171
 Vibration    20          0.750              1.512              1.038
 Vibration    21          0.805              1.370              0.809
 Vibration    22          0.845              1.274              0.686
 Vibration    23          0.883              1.188              0.592
 Vibration    24          0.894              1.164              0.567
 Vibration    25          0.947              1.054              0.468
 Vibration    26          0.951              1.047              0.462

 Optimization completed on the basis of negligible forces.
    -- Stationary point found.
 Normal termination of Gaussian 16 at Thu Dec 10 22:20:01 2020.

 ----------------------------------------------------------------------
 # B3LYP/6-311++G(d,p) empiricaldispersion=gd3bj scf=xqc pop=npa geom=c
 heck
 ----------------------------------------------------------------------

 --------------------------------------
 CID_66357780_JID_6262_Energie_neutraal
 --------------------------------------
 Structure from the checkpoint file:  "JID_6262.chk"
 Charge =  0 Multiplicity = 1

 SCF Done:  E(RB3LYP) =  -715.850484278     A.U. after   13 cycles
 Normal termination of Gaussian 16 at Thu Dec 10 22:27:11 2020.

 ----------------------------------------------------------------------
 # B3LYP/6-311++G(d,p) empiricaldispersion=gd3bj scf=xqc pop=npa geom=c
 heck
 ----------------------------------------------------------------------

 ------------------------------------
 CID_66357780_JID_6262_Energie_kation
 ------------------------------------
 Structure from the checkpoint file:  "JID_6262.chk"
 Charge =  1 Multiplicity = 2

 SCF Done:  E(UB3LYP) =  -715.565167955     A.U. after   22 cycles
 Normal termination of Gaussian 16 at Thu Dec 10 22:45:07 2020.
 Gaussian 16:  ES64L-G16RevA.03 25-Dec-2016

 ----------------------------------------------------------------------
 # B3LYP/6-311++G(d,p) empiricaldispersion=gd3bj scf=xqc pop=npa geom=c
 heck
 ----------------------------------------------------------------------

 -----------------------------------
 CID_66357780_JID_6262_Energie_anion
 -----------------------------------
 Structure from the checkpoint file:  "JID_6262.chk"
 Charge = -1 Multiplicity = 2

                         Standard orientation:
 ---------------------------------------------------------------------
 Center     Atomic      Atomic             Coordinates (Angstroms)
 Number     Number       Type             X           Y           Z
 ---------------------------------------------------------------------
      1          6           0        3.667717    2.859457    0.247718
      2          6           0        3.190629    1.496904   -0.244697
      3          7           0        1.790278    1.560775   -0.659383
      4          6           0        1.231938    0.293528   -1.090485
      5          6           0       -0.211189    0.408518   -1.652040
      6          6           0       -0.735799   -0.247825   -0.354587
      7          6           0        0.685206   -0.738271   -0.014100
      8          6           0        1.015462   -2.186244   -0.401302
      9          6           0        2.387524   -2.403988    0.251910
     10          6           0        2.264234   -1.710274    1.628879
     11          6           0        1.149219   -0.641751    1.447986
     12          8           0       -1.691185   -1.288659   -0.451003
     13          6           0       -2.964241   -0.891012   -0.926106
     14          6           0       -3.831469   -0.202965    0.117533
     15          8           0       -3.394003    1.131955    0.301752
     16          6           0       -4.129108    1.809489    1.297368
     17          1           0        3.507238    3.621843   -0.521331
     18          1           0        4.732673    2.833403    0.502003
     19          1           0        3.119163    3.165827    1.147829
     20          1           0        3.775442    1.194936   -1.123795
     21          1           0        3.386475    0.735884    0.531243
     22          1           0        1.226478    1.961316    0.089829
     23          1           0        1.953447   -0.154544   -1.783219
     24          1           0       -0.551423    1.421422   -1.884170
     25          1           0       -0.365867   -0.237999   -2.521398
     26          1           0       -1.078948    0.512386    0.357073
     27          1           0        0.266754   -2.861713    0.029017
     28          1           0        1.018501   -2.352072   -1.484487
     29          1           0        3.160777   -1.906551   -0.347702
     30          1           0        2.666905   -3.460099    0.327864
     31          1           0        3.214493   -1.272423    1.951330
     32          1           0        1.973856   -2.435336    2.397312
     33          1           0        1.483605    0.369642    1.704197
     34          1           0        0.296275   -0.860779    2.101941
     35          1           0       -2.871611   -0.236686   -1.805627
     36          1           0       -3.466447   -1.813515   -1.238523
     37          1           0       -4.884021   -0.212468   -0.218181
     38          1           0       -3.775459   -0.764892    1.064293
     39          1           0       -5.200520    1.861510    1.044667
     40          1           0       -4.029682    1.321100    2.279900
     41          1           0       -3.729285    2.824617    1.361170
 ---------------------------------------------------------------------

 SCF Done:  E(UB3LYP) =  -715.835741287     A.U. after   30 cycles

 The electronic state is 2-A.
 Alpha  occ. eigenvalues --  -19.03458 -19.03055 -14.20539 -10.12641 -10.12304
 Alpha  occ. eigenvalues --  -10.11673 -10.11532 -10.10408 -10.10032 -10.07815
 Alpha  occ. eigenvalues --  -10.07386 -10.07233 -10.06943 -10.06910 -10.06818
 Alpha  occ. eigenvalues --  -10.06791  -0.95335  -0.93822  -0.82262  -0.75627
 Alpha  occ. eigenvalues --   -0.70892  -0.66756  -0.64356  -0.61767  -0.59685
 Alpha  occ. eigenvalues --   -0.58866  -0.54415  -0.52045  -0.51482  -0.49764
 Alpha  occ. eigenvalues --   -0.47663  -0.44365  -0.41788  -0.40927  -0.40377
 Alpha  occ. eigenvalues --   -0.38932  -0.38514  -0.37253  -0.36515  -0.35491
 Alpha  occ. eigenvalues --   -0.34630  -0.33593  -0.32621  -0.31927  -0.31152
 Alpha  occ. eigenvalues --   -0.30529  -0.29915  -0.28991  -0.27772  -0.26793
 Alpha  occ. eigenvalues --   -0.26251  -0.25979  -0.24885  -0.24717  -0.24072
 Alpha  occ. eigenvalues --   -0.23531  -0.22843  -0.22280  -0.21861  -0.19710
 Alpha  occ. eigenvalues --   -0.17501  -0.15669  -0.12860   0.04188
 Alpha virt. eigenvalues --    0.05613   0.06485   0.07011   0.07606   0.08002
 Alpha virt. eigenvalues --    0.08643   0.08854   0.09313   0.09766   0.10011
 Alpha virt. eigenvalues --    0.10539   0.10747   0.11305   0.11744   0.12149

  Beta  occ. eigenvalues --  -19.03448 -19.03052 -14.20529 -10.12631 -10.12278
  Beta  occ. eigenvalues --  -10.11670 -10.11487 -10.10404 -10.10019 -10.07816
  Beta  occ. eigenvalues --  -10.07379 -10.07221 -10.06939 -10.06881 -10.06816
  Beta  occ. eigenvalues --  -10.06777  -0.95321  -0.93812  -0.82247  -0.75616
  Beta  occ. eigenvalues --   -0.70879  -0.66725  -0.64320  -0.61745  -0.59666
  Beta  occ. eigenvalues --   -0.58810  -0.54362  -0.51982  -0.51444  -0.49740
  Beta  occ. eigenvalues --   -0.47629  -0.44345  -0.41773  -0.40880  -0.40349
  Beta  occ. eigenvalues --   -0.38909  -0.38488  -0.37221  -0.36485  -0.35469
  Beta  occ. eigenvalues --   -0.34603  -0.33565  -0.32596  -0.31904  -0.31123
  Beta  occ. eigenvalues --   -0.30506  -0.29889  -0.28957  -0.27739  -0.26775
  Beta  occ. eigenvalues --   -0.26216  -0.25957  -0.24864  -0.24693  -0.24043
  Beta  occ. eigenvalues --   -0.23492  -0.22827  -0.22263  -0.21847  -0.19700
  Beta  occ. eigenvalues --   -0.17480  -0.15650  -0.12841
  Beta virt. eigenvalues --    0.06027   0.06671   0.06905   0.07324   0.07989
  Beta virt. eigenvalues --    0.08450   0.08976   0.09074   0.09412   0.10040
  Beta virt. eigenvalues --    0.10540   0.10856   0.10979   0.11420   0.11969

 Mulliken charges and spin densities:
               1          2
     1  C    0.696022  -1.278322
     2  C   -0.556624   0.402068
     3  N    0.062180   0.038781
     4  C   -0.178364  -0.226880
     5  C   -0.715135  -0.051463
     6  C   -0.410942   0.219395
     7  C    0.154859   0.470781
     8  C   -0.309045  -0.304212
     9  C   -0.104096  -0.208350
    10  C   -0.273022  -0.145202
    11  C    0.402158  -0.825859
    12  O   -0.006666   0.010156
    13  C   -0.275275  -0.019857
    14  C    0.418536  -0.603944
    15  O   -0.198200   0.087019
    16  C    0.836699  -1.105313
    17  H   -0.000422   0.154310
    18  H   -0.334181   0.466427
    19  H   -0.249206   0.375194
    20  H   -0.184420   0.316609
    21  H    0.588074  -0.452255
    22  H    0.263487  -0.026332
    23  H    0.226550  -0.021637
    24  H    0.084848   0.093566
    25  H    0.097104   0.049478
    26  H    0.272684   0.002458
    27  H    0.163299   0.022264
    28  H    0.098930   0.054329
    29  H    0.005346   0.110650
    30  H   -0.061835   0.237123
    31  H   -0.224606   0.378711
    32  H    0.022674   0.107744
    33  H    0.054418   0.108470
    34  H   -0.013935   0.202359
    35  H    0.188740  -0.026298
    36  H   -0.254435   0.418334
    37  H   -0.347961   0.484654
    38  H    0.084145   0.058668
    39  H   -0.410634   0.539192
    40  H   -0.314855   0.451589
    41  H   -0.296896   0.435593
 Sum of Mulliken charges =  -1.00000   1.00000

 Dipole moment (field-independent basis, Debye):
    X=              2.9172    Y=             -3.7190    Z=             -3.3810  Tot=              5.8113
 Quadrupole moment (field-independent basis, Debye-Ang):
   XX=           -206.6788   YY=           -152.1108   ZZ=           -137.8013
   XY=             -0.6065   XZ=              3.7319   YZ=             -3.3895

 Summary of Natural Population Analysis:

                                       Natural Population
                Natural  -----------------------------------------------
    Atom  No    Charge         Core      Valence    Rydberg      Total
 -----------------------------------------------------------------------
      C    1   -0.28804      0.99967     2.28319    0.00518     3.28804
      C    2   -0.08793      0.99964     2.07801    0.01028     3.08793
      N    3   -0.34072      0.99972     2.82894    0.01206     3.84072
      C    4    0.00238      0.99955     1.98511    0.01296     2.99762
      C    5   -0.20559      0.99961     2.19816    0.00783     3.20559
      C    6    0.06637      0.99943     1.91836    0.01584     2.93363
      C    7   -0.04602      0.99953     2.03191    0.01458     3.04602
      C    8   -0.18966      0.99958     2.18169    0.00838     3.18966
      C    9   -0.19127      0.99964     2.18471    0.00692     3.19127
      C   10   -0.19336      0.99964     2.18571    0.00801     3.19336
      C   11   -0.19515      0.99959     2.18571    0.00985     3.19515
      O   12   -0.30115      0.99987     3.29218    0.00910     4.30115
      C   13   -0.01797      0.99956     2.00459    0.01382     3.01797
      C   14   -0.02208      0.99959     2.01016    0.01234     3.02208
      O   15   -0.30086      0.99988     3.29143    0.00954     4.30086
      C   16   -0.09716      0.99962     2.08819    0.00935     3.09716
      H   17    0.09944      0.00000     0.39946    0.00110     0.40056
      H   18    0.10051      0.00000     0.39842    0.00107     0.39949
      H   19    0.09658      0.00000     0.40223    0.00119     0.40342
      H   20    0.08787      0.00000     0.41066    0.00146     0.41213
      H   21    0.08047      0.00000     0.41738    0.00215     0.41953
      H   22    0.17149      0.00000     0.32499    0.00352     0.32851
      H   23    0.09058      0.00000     0.40777    0.00165     0.40942
      H   24    0.10403      0.00000     0.39472    0.00125     0.39597
      H   25    0.10080      0.00000     0.39805    0.00116     0.39920
      H   26    0.09351      0.00000     0.40377    0.00272     0.40649
      H   27    0.10461      0.00000     0.39395    0.00144     0.39539
      H   28    0.09943      0.00000     0.39967    0.00090     0.40057
      H   29    0.09325      0.00000     0.40525    0.00150     0.40675
      H   30    0.09729      0.00000     0.40173    0.00097     0.40271
      H   31    0.09811      0.00000     0.40061    0.00128     0.40189
      H   32    0.09539      0.00000     0.40350    0.00110     0.40461
      H   33    0.10073      0.00000     0.39785    0.00142     0.39927
      H   34    0.10303      0.00000     0.39563    0.00133     0.39697
      H   35    0.08412      0.00000     0.41441    0.00146     0.41588
      H   36    0.09068      0.00000     0.40829    0.00103     0.40932
      H   37    0.08209      0.00000     0.41578    0.00214     0.41791
      H   38    0.08302      0.00000     0.41536    0.00162     0.41698
      H   39    0.07974      0.00000     0.41795    0.00231     0.42026
      H   40    0.08004      0.00000     0.41812    0.00184     0.41996
      H   41    0.09139      0.00000     0.40734    0.00126     0.40861
 =======================================================================
   * Total *   -0.00000     15.99413    46.80099    0.20489    63.00000

 Normal termination of Gaussian 16 at Thu Dec 10 23:09:17 2020.
