 Gaussian 16, Revision A.03,

 -----------------------------------------------------------
 # opt freq B3LYP/6-31G(d) empiricaldispersion=gd3bj scf=xqc
 -----------------------------------------------------------

 -------------------------------
 CID_115213579_JID_5983_neutraal
 -------------------------------
 Symbolic Z-matrix:
 Charge =  0 Multiplicity = 1

 SCF Done:  E(RB3LYP) =  -634.197743235     A.U. after   14 cycles
 SCF Done:  E(RB3LYP) =  -634.203296810     A.U. after   12 cycles
 SCF Done:  E(RB3LYP) =  -634.204348983     A.U. after   11 cycles
 SCF Done:  E(RB3LYP) =  -634.204931678     A.U. after   12 cycles
 SCF Done:  E(RB3LYP) =  -634.205718081     A.U. after   11 cycles
 SCF Done:  E(RB3LYP) =  -634.206078905     A.U. after   11 cycles
 SCF Done:  E(RB3LYP) =  -634.206162693     A.U. after   11 cycles
 SCF Done:  E(RB3LYP) =  -634.206205673     A.U. after   10 cycles
 SCF Done:  E(RB3LYP) =  -634.206241583     A.U. after   11 cycles
 SCF Done:  E(RB3LYP) =  -634.206268396     A.U. after   10 cycles
 SCF Done:  E(RB3LYP) =  -634.206288853     A.U. after    7 cycles
 SCF Done:  E(RB3LYP) =  -634.206288987     A.U. after    7 cycles
 SCF Done:  E(RB3LYP) =  -634.206289075     A.U. after    7 cycles
 SCF Done:  E(RB3LYP) =  -634.206289137     A.U. after    7 cycles
 SCF Done:  E(RB3LYP) =  -634.206289147     A.U. after    6 cycles
 Optimization completed.
    -- Stationary point found.
 Normal termination of Gaussian 16 at Thu Dec 10 17:48:46 2020.

 --------------------------------------------------------------------
 #N Geom=AllCheck Guess=TCheck SCRF=Check GenChk RB3LYP/6-31G(d) Freq
 --------------------------------------------------------------------

 Structure from the checkpoint file:  "JID_5983.chk"
 -------------------------------
 CID_115213579_JID_5983_neutraal
 -------------------------------
 Charge =  0 Multiplicity = 1

 SCF Done:  E(RB3LYP) =  -634.206289147     A.U. after    1 cycles

  Exact polarizability: 180.959   1.463 133.891  -5.681  -0.313 104.989
 Approx polarizability: 219.229   6.091 214.731 -10.776  -3.814 158.073

                      1                      2                      3
                      A                      A                      A
 Frequencies --     13.6229                31.7261                38.8120
 Red. masses --      2.1466                 4.2964                 3.2022
 Frc consts  --      0.0002                 0.0025                 0.0028
 IR Inten    --      1.3683                 0.6687                 1.0208

                      4                      5                      6
                      A                      A                      A
 Frequencies --     58.0283                96.2832               136.6551
 Red. masses --      3.9166                 4.0044                 2.7287
 Frc consts  --      0.0078                 0.0219                 0.0300
 IR Inten    --      0.0825                 0.5195                 2.1503

                      7                      8                      9
                      A                      A                      A
 Frequencies --    178.5312               197.6912               263.0689
 Red. masses --      4.3709                 1.8953                 2.6804
 Frc consts  --      0.0821                 0.0436                 0.1093
 IR Inten    --      0.1727                 0.8327                 1.5356

                     10                     11                     12
                      A                      A                      A
 Frequencies --    266.3756               270.3679               287.8281
 Red. masses --      1.5928                 2.1965                 3.1912
 Frc consts  --      0.0666                 0.0946                 0.1558
 IR Inten    --      0.4569                 1.3856                11.6781

                     13                     14                     15
                      A                      A                      A
 Frequencies --    300.1489               349.9582               388.7363
 Red. masses --      2.3889                 1.3688                 2.2758
 Frc consts  --      0.1268                 0.0988                 0.2026
 IR Inten    --      1.5723                84.7132                 0.7386

                     16                     17                     18
                      A                      A                      A
 Frequencies --    416.9428               429.7577               461.2225
 Red. masses --      2.2362                 2.3319                 2.7119
 Frc consts  --      0.2290                 0.2538                 0.3399
 IR Inten    --     12.0732                 3.1060                 3.8050

                     19                     20                     21
                      A                      A                      A
 Frequencies --    471.1448               538.8707               605.2603
 Red. masses --      2.8455                 2.4981                 1.2539
 Frc consts  --      0.3722                 0.4274                 0.2706
 IR Inten    --      8.1030                 5.2811                 6.5407

                     22                     23                     24
                      A                      A                      A
 Frequencies --    617.2694               632.9762               677.4314
 Red. masses --      2.4244                 2.1231                 2.1228
 Frc consts  --      0.5443                 0.5012                 0.5740
 IR Inten    --     30.6019                52.2685                19.1348

                     25                     26                     27
                      A                      A                      A
 Frequencies --    692.0660               731.7960               754.9703
 Red. masses --      2.7296                 1.6910                 2.1186
 Frc consts  --      0.7703                 0.5335                 0.7115
 IR Inten    --     26.8299                58.6093                37.1435

                     28                     29                     30
                      A                      A                      A
 Frequencies --    769.7398               779.6716               790.3071
 Red. masses --      1.6443                 1.5923                 2.5450
 Frc consts  --      0.5740                 0.5703                 0.9366
 IR Inten    --     82.2101                 1.3890                 0.8844

                     31                     32                     33
                      A                      A                      A
 Frequencies --    804.4195               834.4704               907.4418
 Red. masses --      1.2886                 2.4532                 4.6833
 Frc consts  --      0.4913                 1.0065                 2.2722
 IR Inten    --     13.2193                 5.3642                 3.3187

                     34                     35                     36
                      A                      A                      A
 Frequencies --    911.1469               931.2687               951.6859
 Red. masses --      2.3981                 1.8857                 1.4055
 Frc consts  --      1.1730                 0.9636                 0.7500
 IR Inten    --      5.9438                 3.6870                 4.6585

                     37                     38                     39
                      A                      A                      A
 Frequencies --    980.2225               982.0447              1002.9748
 Red. masses --      1.8165                 2.1364                 2.2312
 Frc consts  --      1.0284                 1.2139                 1.3224
 IR Inten    --      6.0227                 4.6944                14.1557

                     40                     41                     42
                      A                      A                      A
 Frequencies --   1054.5367              1082.5837              1090.5667
 Red. masses --      1.9831                 2.0792                 1.5531
 Frc consts  --      1.2993                 1.4357                 1.0883
 IR Inten    --      9.6753                 8.3463                30.5632

                     43                     44                     45
                      A                      A                      A
 Frequencies --   1099.2639              1108.4031              1115.9861
 Red. masses --      1.8614                 2.1223                 2.2061
 Frc consts  --      1.3252                 1.5362                 1.6188
 IR Inten    --     10.4512                 2.6402                 0.5201

                     46                     47                     48
                      A                      A                      A
 Frequencies --   1124.1518              1141.2904              1153.4329
 Red. masses --      2.0890                 1.5060                 1.7831
 Frc consts  --      1.5554                 1.1557                 1.3977
 IR Inten    --      4.7739                 2.6270                10.9144

                     49                     50                     51
                      A                      A                      A
 Frequencies --   1175.5465              1176.1334              1197.7089
 Red. masses --      1.3419                 1.4836                 2.4189
 Frc consts  --      1.0925                 1.2091                 2.0444
 IR Inten    --      1.2070                 8.5210                25.8551

                     52                     53                     54
                      A                      A                      A
 Frequencies --   1205.0471              1220.2704              1253.0280
 Red. masses --      1.4412                 1.4517                 1.3718
 Frc consts  --      1.2331                 1.2736                 1.2690
 IR Inten    --      2.3781                13.0899                20.2914

                     55                     56                     57
                      A                      A                      A
 Frequencies --   1279.7614              1305.9313              1315.5983
 Red. masses --      1.5627                 1.2884                 1.3672
 Frc consts  --      1.5079                 1.2947                 1.3942
 IR Inten    --     21.9931                 3.4505                18.8270

                     58                     59                     60
                      A                      A                      A
 Frequencies --   1326.2841              1340.0924              1360.7986
 Red. masses --      2.3708                 1.3147                 1.3056
 Frc consts  --      2.4571                 1.3910                 1.4244
 IR Inten    --     48.5251                 6.4766                 2.5778

                     61                     62                     63
                      A                      A                      A
 Frequencies --   1368.6367              1390.9950              1399.2653
 Red. masses --      1.4887                 1.3998                 1.4941
 Frc consts  --      1.6430                 1.5957                 1.7235
 IR Inten    --      9.5369                 0.5851                 1.2882

                     64                     65                     66
                      A                      A                      A
 Frequencies --   1403.9368              1406.9402              1420.3980
 Red. masses --      1.4901                 1.5575                 1.3411
 Frc consts  --      1.7304                 1.8164                 1.5942
 IR Inten    --      1.0356                 1.0826                 7.5422

                     67                     68                     69
                      A                      A                      A
 Frequencies --   1433.0919              1441.0360              1485.3660
 Red. masses --      1.4127                 2.2927                 1.1803
 Frc consts  --      1.7094                 2.8051                 1.5343
 IR Inten    --     14.3424                 1.0639                 2.4215

                     70                     71                     72
                      A                      A                      A
 Frequencies --   1495.2823              1503.3463              1509.3314
 Red. masses --      2.2993                 1.1068                 1.1727
 Frc consts  --      3.0290                 1.4738                 1.5740
 IR Inten    --     13.9882                 2.7929                 8.0989

                     73                     74                     75
                      A                      A                      A
 Frequencies --   1510.7806              1513.1805              1529.9307
 Red. masses --      1.6274                 1.0929                 1.1131
 Frc consts  --      2.1885                 1.4744                 1.5350
 IR Inten    --     44.2855                 0.6377                 5.4692

                     76                     77                     78
                      A                      A                      A
 Frequencies --   1531.6531              1533.9507              1547.5439
 Red. masses --      1.1595                 1.0749                 1.0866
 Frc consts  --      1.6026                 1.4902                 1.5333
 IR Inten    --      0.3315                 7.5097                24.2631

                     79                     80                     81
                      A                      A                      A
 Frequencies --   1556.3588              1557.5419              1645.6972
 Red. masses --      1.7439                 1.3288                 4.7251
 Frc consts  --      2.4888                 1.8993                 7.5399
 IR Inten    --     36.8709                24.1078                82.8340

                     82                     83                     84
                      A                      A                      A
 Frequencies --   2926.6761              2980.4455              3013.4019
 Red. masses --      1.0731                 1.0583                 1.0698
 Frc consts  --      5.4153                 5.5388                 5.7238
 IR Inten    --     58.8197                69.9249                 4.0158

                     85                     86                     87
                      A                      A                      A
 Frequencies --   3017.0185              3025.7604              3033.6618
 Red. masses --      1.0816                 1.0733                 1.0635
 Frc consts  --      5.8008                 5.7897                 5.7664
 IR Inten    --     13.9312                29.5122                67.0072

                     88                     89                     90
                      A                      A                      A
 Frequencies --   3039.4688              3044.6641              3048.9474
 Red. masses --      1.0688                 1.0723                 1.0818
 Frc consts  --      5.8173                 5.8564                 5.9252
 IR Inten    --     54.8356                19.9100                43.2812

                     91                     92                     93
                      A                      A                      A
 Frequencies --   3057.2187              3075.2457              3082.6166
 Red. masses --      1.0990                 1.0942                 1.0944
 Frc consts  --      6.0521                 6.0967                 6.1274
 IR Inten    --     36.5860                44.2148                94.1682

                     94                     95                     96
                      A                      A                      A
 Frequencies --   3085.7472              3093.5026              3129.7042
 Red. masses --      1.0853                 1.0996                 1.0990
 Frc consts  --      6.0888                 6.2000                 6.3426
 IR Inten    --      8.7768                80.1385                27.0430

                     97                     98                     99
                      A                      A                      A
 Frequencies --   3250.5859              3279.4278              3293.2750
 Red. masses --      1.0914                 1.1010                 1.0961
 Frc consts  --      6.7942                 6.9767                 7.0042
 IR Inten    --      4.7027                 5.9259                 2.7852

                    100                    101                    102
                      A                      A                      A
 Frequencies --   3492.5773              3547.7057              3684.5817
 Red. masses --      1.0739                 1.0738                 1.0806
 Frc consts  --      7.7179                 7.9629                 8.6437
 IR Inten    --      2.3843                 1.8731                59.8027

 - Thermochemistry -
 -------------------
 Temperature   298.150 Kelvin.  Pressure   1.00000 Atm.
 Atom     1 has atomic number  6 and mass  12.00000

 Molecular mass:   207.17355 amu.
 Principal axes and moments of inertia in atomic units:
                           1         2         3
     Eigenvalues --  1062.527858521.877698674.26618
           X            1.00000  -0.00001   0.00175
           Y            0.00000   1.00000   0.00236
           Z           -0.00175  -0.00236   1.00000
 This molecule is an asymmetric top.
 Rotational symmetry number  1.
 Warning -- assumption of classical behavior for rotation
           may cause significant error
 Rotational temperatures (Kelvin)      0.08152     0.01016     0.00999
 Rotational constants (GHZ):           1.69854     0.21178     0.20806
 Zero-point vibrational energy     855723.8 (Joules/Mol)
                                  204.52290 (Kcal/Mol)
 Warning -- explicit consideration of  22 degrees of freedom as
           vibrations may cause significant error
 Vibrational temperatures:     19.60    45.65    55.84    83.49   138.53
          (Kelvin)            196.62   256.87   284.43   378.50   383.26
                              389.00   414.12   431.85   503.51   559.30
                              599.89   618.33   663.60   677.87   775.31
                              870.83   888.11   910.71   974.67   995.73
                             1052.89  1086.23  1107.48  1121.77  1137.08
                             1157.38  1200.62  1305.61  1310.94  1339.89
                             1369.26  1410.32  1412.94  1443.06  1517.24
                             1557.60  1569.08  1581.60  1594.74  1605.66
                             1617.40  1642.06  1659.53  1691.35  1692.19
                             1723.24  1733.79  1755.70  1802.83  1841.29
                             1878.94  1892.85  1908.23  1928.09  1957.89
                             1969.16  2001.33  2013.23  2019.95  2024.27
                             2043.64  2061.90  2073.33  2137.11  2151.38
                             2162.98  2171.59  2173.68  2177.13  2201.23
                             2203.71  2207.01  2226.57  2239.25  2240.96
                             2367.79  4210.83  4288.20  4335.61  4340.82
                             4353.39  4364.76  4373.12  4380.59  4386.76
                             4398.66  4424.59  4435.20  4439.70  4450.86
                             4502.95  4676.87  4718.37  4738.29  5025.04
                             5104.36  5301.29

 Zero-point correction=                           0.325928 (Hartree/Particle)
 Thermal correction to Energy=                    0.341081
 Thermal correction to Enthalpy=                  0.342025
 Thermal correction to Gibbs Free Energy=         0.281346
 Sum of electronic and zero-point Energies=           -633.880361
 Sum of electronic and thermal Energies=              -633.865208
 Sum of electronic and thermal Enthalpies=            -633.864264
 Sum of electronic and thermal Free Energies=         -633.924943

                     E (Thermal)             CV                S
                      KCal/Mol        Cal/Mol-Kelvin    Cal/Mol-Kelvin
 Total                  214.031             58.506            127.709
 Electronic               0.000              0.000              0.000
 Translational            0.889              2.981             41.889
 Rotational               0.889              2.981             32.729
 Vibrational            212.254             52.544             53.090
 Vibration     1          0.593              1.986              7.397
 Vibration     2          0.594              1.983              5.718
 Vibration     3          0.594              1.981              5.319
 Vibration     4          0.596              1.974              4.523
 Vibration     5          0.603              1.952              3.528
 Vibration     6          0.614              1.917              2.850
 Vibration     7          0.629              1.869              2.344
 Vibration     8          0.637              1.843              2.154
 Vibration     9          0.670              1.741              1.641
 Vibration    10          0.672              1.735              1.620
 Vibration    11          0.674              1.728              1.594
 Vibration    12          0.685              1.696              1.487
 Vibration    13          0.693              1.673              1.416
 Vibration    14          0.727              1.575              1.166
 Vibration    15          0.757              1.494              1.005
 Vibration    16          0.780              1.433              0.902
 Vibration    17          0.791              1.405              0.859
 Vibration    18          0.819              1.336              0.763
 Vibration    19          0.828              1.314              0.734
 Vibration    20          0.894              1.164              0.568
 Vibration    21          0.964              1.021              0.441
 Vibration    22          0.977              0.995              0.421

                           ! Non-Optimized Parameters !
 Normal termination of Gaussian 16 at Thu Dec 10 17:59:02 2020.

 ----------------------------------------------------------------------
 # B3LYP/6-311++G(d,p) empiricaldispersion=gd3bj scf=xqc pop=npa geom=c
 heck
 ----------------------------------------------------------------------

 ---------------------------------------
 CID_115213579_JID_5983_Energie_neutraal
 ---------------------------------------
 Structure from the checkpoint file:  "JID_5983.chk"
 Charge =  0 Multiplicity = 1

 SCF Done:  E(RB3LYP) =  -634.390629831     A.U. after   14 cycles
 Normal termination of Gaussian 16 at Thu Dec 10 18:03:40 2020.

 ----------------------------------------------------------------------
 # B3LYP/6-311++G(d,p) empiricaldispersion=gd3bj scf=xqc pop=npa geom=c
 heck
 ----------------------------------------------------------------------

 -------------------------------------
 CID_115213579_JID_5983_Energie_kation
 -------------------------------------
 Structure from the checkpoint file:  "JID_5983.chk"
 Charge =  1 Multiplicity = 2

 SCF Done:  E(UB3LYP) =  -634.137678248     A.U. after   28 cycles
 Normal termination of Gaussian 16 at Thu Dec 10 18:15:08 2020.
 Gaussian 16:  ES64L-G16RevA.03 25-Dec-2016

 ----------------------------------------------------------------------
 # B3LYP/6-311++G(d,p) empiricaldispersion=gd3bj scf=xqc pop=npa geom=c
 heck
 ----------------------------------------------------------------------

 ------------------------------------
 CID_115213579_JID_5983_Energie_anion
 ------------------------------------
 Structure from the checkpoint file:  "JID_5983.chk"
 Charge = -1 Multiplicity = 2

                         Standard orientation:
 ---------------------------------------------------------------------
 Center     Atomic      Atomic             Coordinates (Angstroms)
 Number     Number       Type             X           Y           Z
 ---------------------------------------------------------------------
      1          6           0        3.711753   -0.862296    1.780216
      2          7           0        4.418717   -0.107517    0.752151
      3          6           0        3.674119    0.436177   -0.394930
      4          6           0        3.061505   -0.667514   -1.280870
      5          6           0        1.648167   -1.124467   -0.888274
      6          6           0        0.673739    0.052572   -0.736168
      7          6           0        1.230401    1.047204    0.294619
      8          6           0        2.631900    1.543309   -0.091145
      9          6           0       -0.723008   -0.455991   -0.371478
     10          7           0       -1.724475    0.598260   -0.409216
     11          6           0       -3.036224    0.231139   -0.065215
     12          6           0       -3.550740   -1.048553    0.057113
     13          7           0       -4.899496   -0.925912    0.350456
     14          6           0       -5.240935    0.397931    0.429283
     15          6           0       -4.110586    1.144684    0.174335
     16          1           0        3.320940   -1.792492    1.358460
     17          1           0        2.875737   -0.338186    2.273749
     18          1           0        4.432665   -1.140804    2.556761
     19          1           0        4.911225    0.664615    1.196177
     20          1           0        4.458376    0.914762   -0.996305
     21          1           0        3.009331   -0.274133   -2.305127
     22          1           0        3.751968   -1.518078   -1.305293
     23          1           0        1.667674   -1.687671    0.052837
     24          1           0        1.272365   -1.817385   -1.652451
     25          1           0        0.594786    0.568602   -1.704976
     26          1           0        1.245577    0.562576    1.278945
     27          1           0        0.570843    1.920206    0.389188
     28          1           0        3.028140    2.207298    0.688920
     29          1           0        2.531345    2.160842   -0.995684
     30          1           0       -1.024612   -1.219535   -1.100701
     31          1           0       -0.685350   -0.962357    0.613349
     32          1           0       -1.428871    1.418537    0.108800
     33          1           0       -3.084976   -2.015896   -0.042781
     34          1           0       -5.529981   -1.698728    0.487155
     35          1           0       -6.252114    0.704497    0.653811
     36          1           0       -4.048846    2.224336    0.146504
 ---------------------------------------------------------------------

 SCF Done:  E(UB3LYP) =  -634.379062368     A.U. after   33 cycles
 SCF Done:  E(UB3LYP) =  -634.379062368     a.u. after    1 cycles

 The electronic state is 2-A.
 Alpha  occ. eigenvalues --  -14.25241 -14.21758 -14.20296 -10.10509 -10.10290
 Alpha  occ. eigenvalues --  -10.09566 -10.09525 -10.09459 -10.08422 -10.08341
 Alpha  occ. eigenvalues --  -10.07729 -10.07713 -10.07546 -10.07320 -10.05707
 Alpha  occ. eigenvalues --   -0.87596  -0.82546  -0.81134  -0.73611  -0.67655
 Alpha  occ. eigenvalues --   -0.65619  -0.65330  -0.61983  -0.59464  -0.55690
 Alpha  occ. eigenvalues --   -0.52861  -0.49804  -0.48027  -0.47103  -0.45865
 Alpha  occ. eigenvalues --   -0.44917  -0.40410  -0.39142  -0.38478  -0.36535
 Alpha  occ. eigenvalues --   -0.36309  -0.34606  -0.33430  -0.33017  -0.32407
 Alpha  occ. eigenvalues --   -0.31832  -0.31363  -0.30726  -0.30007  -0.29466
 Alpha  occ. eigenvalues --   -0.28933  -0.27378  -0.26481  -0.26159  -0.25410
 Alpha  occ. eigenvalues --   -0.22881  -0.21967  -0.21259  -0.19957  -0.12983
 Alpha  occ. eigenvalues --   -0.12957  -0.09439   0.03872
 Alpha virt. eigenvalues --    0.04930   0.06640   0.06895   0.07316   0.07779
 Alpha virt. eigenvalues --    0.08934   0.09270   0.09344   0.09593   0.10119
 Alpha virt. eigenvalues --    0.11260   0.11475   0.11795   0.12328   0.12592

  Beta  occ. eigenvalues --  -14.25195 -14.21753 -14.20277 -10.10502 -10.10285
  Beta  occ. eigenvalues --  -10.09547 -10.09513 -10.09460 -10.08414 -10.08338
  Beta  occ. eigenvalues --  -10.07723 -10.07705 -10.07535 -10.07297 -10.05704
  Beta  occ. eigenvalues --   -0.87546  -0.82530  -0.81098  -0.73593  -0.67617
  Beta  occ. eigenvalues --   -0.65592  -0.65294  -0.61954  -0.59431  -0.55648
  Beta  occ. eigenvalues --   -0.52820  -0.49764  -0.47971  -0.47067  -0.45832
  Beta  occ. eigenvalues --   -0.44871  -0.40355  -0.39117  -0.38452  -0.36513
  Beta  occ. eigenvalues --   -0.36275  -0.34578  -0.33403  -0.32988  -0.32372
  Beta  occ. eigenvalues --   -0.31806  -0.31337  -0.30702  -0.29983  -0.29448
  Beta  occ. eigenvalues --   -0.28908  -0.27359  -0.26454  -0.26129  -0.25389
  Beta  occ. eigenvalues --   -0.22861  -0.21941  -0.21230  -0.19941  -0.12961
  Beta  occ. eigenvalues --   -0.12942  -0.09427
  Beta virt. eigenvalues --    0.05832   0.06635   0.06931   0.07212   0.07776
  Beta virt. eigenvalues --    0.08392   0.09382   0.09467   0.09646   0.09936
  Beta virt. eigenvalues --    0.10179   0.11331   0.11570   0.12044   0.12507

 Mulliken charges and spin densities:
               1          2
     1  C    0.248852  -0.700173
     2  N   -0.147065   0.027005
     3  C    0.267317  -0.042926
     4  C   -0.037176  -0.794161
     5  C   -0.130319  -0.026894
     6  C    1.216923  -0.586614
     7  C   -0.524594   0.484924
     8  C    0.227509  -0.999415
     9  C   -1.430116  -0.006157
    10  N    0.117498   0.009057
    11  C    0.918264  -1.597280
    12  C    0.000945  -0.157707
    13  N   -0.122957   0.031247
    14  C    0.359823  -0.914659
    15  C   -0.830054   1.604332
    16  H   -0.008610   0.149234
    17  H   -0.037041   0.157844
    18  H   -0.102024   0.243774
    19  H   -0.035867   0.270918
    20  H   -0.409887   0.633993
    21  H    0.007118   0.123752
    22  H    0.141469   0.051754
    23  H    0.139097  -0.029626
    24  H    0.057453   0.100729
    25  H    0.134719   0.047659
    26  H    0.071383   0.071256
    27  H   -0.016508   0.132048
    28  H   -0.367399   0.550888
    29  H    0.039667   0.092882
    30  H    0.166230   0.013893
    31  H    0.171503  -0.008859
    32  H    0.270421  -0.057953
    33  H   -0.361648   0.524695
    34  H   -0.494880   0.804716
    35  H   -0.427228   0.581720
    36  H   -0.072815   0.214104
 Sum of Mulliken charges =  -1.00000   1.00000

 Dipole moment (field-independent basis, Debye):
    X=              3.3083    Y=              0.8688    Z=             -1.2627  Tot=              3.6461
 Quadrupole moment (field-independent basis, Debye-Ang):
   XX=           -238.2314   YY=           -130.2561   ZZ=           -125.4862
   XY=            -22.0634   XZ=              0.1778   YZ=              1.7608

 Summary of Natural Population Analysis:

                                       Natural Population
                Natural  -----------------------------------------------
    Atom  No    Charge         Core      Valence    Rydberg      Total
 -----------------------------------------------------------------------
      C    1   -0.18038      0.99964     2.17220    0.00853     3.18038
      N    2   -0.34177      0.99974     2.82874    0.01329     3.84177
      C    3   -0.00791      0.99958     1.99350    0.01484     3.00791
      C    4   -0.19469      0.99961     2.18627    0.00881     3.19469
      C    5   -0.18835      0.99961     2.18153    0.00722     3.18835
      C    6   -0.11264      0.99958     2.10413    0.00893     3.11264
      C    7   -0.19263      0.99961     2.18339    0.00964     3.19263
      C    8   -0.19743      0.99961     2.18801    0.00982     3.19743
      C    9   -0.08039      0.99960     2.07122    0.00956     3.08039
      N   10   -0.31931      0.99968     2.81020    0.00944     3.81931
      C   11    0.04801      0.99950     1.94172    0.01077     2.95199
      C   12   -0.06103      0.99952     2.04752    0.01399     3.06103
      N   13   -0.26574      0.99970     2.75396    0.01208     3.76574
      C   14   -0.01717      0.99958     2.00249    0.01510     3.01717
      C   15   -0.16295      0.99953     2.15510    0.00832     3.16295
      H   16    0.08934      0.00000     0.40947    0.00119     0.41066
      H   17    0.07828      0.00000     0.42025    0.00147     0.42172
      H   18    0.09414      0.00000     0.40500    0.00086     0.40586
      H   19    0.17341      0.00000     0.32317    0.00342     0.32659
      H   20    0.09748      0.00000     0.40105    0.00148     0.40252
      H   21    0.09820      0.00000     0.40078    0.00102     0.40180
      H   22    0.10399      0.00000     0.39501    0.00099     0.39601
      H   23    0.09405      0.00000     0.40435    0.00159     0.40595
      H   24    0.09819      0.00000     0.40068    0.00112     0.40181
      H   25    0.09595      0.00000     0.40231    0.00174     0.40405
      H   26    0.09486      0.00000     0.40344    0.00170     0.40514
      H   27    0.09508      0.00000     0.40373    0.00120     0.40492
      H   28    0.10086      0.00000     0.39766    0.00148     0.39914
      H   29    0.09719      0.00000     0.40142    0.00139     0.40281
      H   30    0.09337      0.00000     0.40496    0.00167     0.40663
      H   31    0.08162      0.00000     0.41679    0.00159     0.41838
      H   32    0.17826      0.00000     0.31844    0.00330     0.32174
      H   33    0.10260      0.00000     0.39635    0.00105     0.39740
      H   34    0.20588      0.00000     0.27706    0.01705     0.29412
      H   35    0.09932      0.00000     0.39950    0.00118     0.40068
      H   36    0.10234      0.00000     0.39691    0.00075     0.39766
 =======================================================================
   * Total *    0.00000     14.99409    41.79834    0.20757    57.00000

 Normal termination of Gaussian 16 at Thu Dec 10 18:28:47 2020.
