 Gaussian 16, Revision A.03,

 -----------------------------------------------------------
 # opt freq B3LYP/6-31G(d) empiricaldispersion=gd3bj scf=xqc
 -----------------------------------------------------------

 ------------------------------
 CID_79202896_JID_5701_neutraal
 ------------------------------
 Symbolic Z-matrix:
 Charge =  0 Multiplicity = 1

 SCF Done:  E(RB3LYP) =  -656.522348739     A.U. after   14 cycles
 SCF Done:  E(RB3LYP) =  -656.527030096     A.U. after   12 cycles
 SCF Done:  E(RB3LYP) =  -656.524216955     A.U. after   12 cycles
 SCF Done:  E(RB3LYP) =  -656.526728654     A.U. after   12 cycles
 SCF Done:  E(RB3LYP) =  -656.527708107     A.U. after    9 cycles
 SCF Done:  E(RB3LYP) =  -656.528136088     A.U. after   11 cycles
 SCF Done:  E(RB3LYP) =  -656.528323453     A.U. after   10 cycles
 SCF Done:  E(RB3LYP) =  -656.528470007     A.U. after   11 cycles
 SCF Done:  E(RB3LYP) =  -656.528673551     A.U. after   11 cycles
 SCF Done:  E(RB3LYP) =  -656.528796348     A.U. after   10 cycles
 SCF Done:  E(RB3LYP) =  -656.531356143     A.U. after    8 cycles
 SCF Done:  E(RB3LYP) =  -656.531359444     A.U. after    9 cycles
 SCF Done:  E(RB3LYP) =  -656.531362021     A.U. after    9 cycles
 SCF Done:  E(RB3LYP) =  -656.531362460     A.U. after    7 cycles
 SCF Done:  E(RB3LYP) =  -656.531362487     A.U. after    6 cycles
 SCF Done:  E(RB3LYP) =  -656.531362490     A.U. after    6 cycles
 Optimization completed.
    -- Stationary point found.
 Normal termination of Gaussian 16 at Thu Dec 10 17:02:43 2020.

 --------------------------------------------------------------------
 #N Geom=AllCheck Guess=TCheck SCRF=Check GenChk RB3LYP/6-31G(d) Freq
 --------------------------------------------------------------------

 Structure from the checkpoint file:  "JID_5701.chk"
 ------------------------------
 CID_79202896_JID_5701_neutraal
 ------------------------------
 Charge =  0 Multiplicity = 1

 SCF Done:  E(RB3LYP) =  -656.531362490     A.U. after    1 cycles

  Exact polarizability: 166.807   1.057 135.006   1.387   2.564 121.108
 Approx polarizability: 209.922   9.376 194.642  -0.372   5.708 178.758

                      1                      2                      3
                      A                      A                      A
 Frequencies --     37.9107                41.8866                58.7055
 Red. masses --      3.4786                 3.6642                 2.9426
 Frc consts  --      0.0029                 0.0038                 0.0060
 IR Inten    --      0.7442                 0.4020                 0.0391

                      4                      5                      6
                      A                      A                      A
 Frequencies --     87.9274               101.0401               130.6801
 Red. masses --      2.7783                 3.6173                 1.8086
 Frc consts  --      0.0127                 0.0218                 0.0182
 IR Inten    --      0.1009                 4.1876                 0.6447

                      7                      8                      9
                      A                      A                      A
 Frequencies --    145.6698               166.8078               199.1177
 Red. masses --      2.6021                 2.6804                 2.4393
 Frc consts  --      0.0325                 0.0439                 0.0570
 IR Inten    --      1.5477                 0.4665                 0.6917

                     10                     11                     12
                      A                      A                      A
 Frequencies --    211.4155               225.8606               246.5525
 Red. masses --      2.3466                 1.0814                 1.8095
 Frc consts  --      0.0618                 0.0325                 0.0648
 IR Inten    --      1.0125                 0.0831                 0.1112

                     13                     14                     15
                      A                      A                      A
 Frequencies --    255.2928               267.7916               282.5457
 Red. masses --      1.6781                 1.9021                 2.0236
 Frc consts  --      0.0644                 0.0804                 0.0952
 IR Inten    --      0.9889                 1.7862                 0.4361

                     16                     17                     18
                      A                      A                      A
 Frequencies --    289.9088               351.8013               361.8704
 Red. masses --      1.8663                 2.3287                 1.3554
 Frc consts  --      0.0924                 0.1698                 0.1046
 IR Inten    --      1.2048                 0.9665                 2.0104

                     19                     20                     21
                      A                      A                      A
 Frequencies --    370.1193               379.4512               421.4780
 Red. masses --      2.6028                 2.6864                 2.6417
 Frc consts  --      0.2101                 0.2279                 0.2765
 IR Inten    --      0.9187                 6.1803                 3.1023

                     22                     23                     24
                      A                      A                      A
 Frequencies --    433.4410               457.5393               505.6157
 Red. masses --      2.7001                 2.9113                 4.1449
 Frc consts  --      0.2989                 0.3591                 0.6243
 IR Inten    --      1.7725                 2.7104                 6.5047

                     25                     26                     27
                      A                      A                      A
 Frequencies --    568.7377               606.0284               647.0029
 Red. masses --      3.5665                 4.4180                 2.1205
 Frc consts  --      0.6797                 0.9560                 0.5230
 IR Inten    --      7.9549                 8.9120                 1.8021

                     28                     29                     30
                      A                      A                      A
 Frequencies --    741.6874               809.9929               829.6477
 Red. masses --      4.2650                 2.7827                 2.0813
 Frc consts  --      1.3823                 1.0757                 0.8440
 IR Inten    --      2.4114                10.6397                 6.3261

                     31                     32                     33
                      A                      A                      A
 Frequencies --    854.5197               865.0731               905.9235
 Red. masses --      1.8853                 1.5034                 1.7780
 Frc consts  --      0.8111                 0.6629                 0.8597
 IR Inten    --      5.7837                86.5736                 2.4622

                     34                     35                     36
                      A                      A                      A
 Frequencies --    912.4124               928.5954               942.9744
 Red. masses --      2.1370                 2.0254                 1.2619
 Frc consts  --      1.0482                 1.0290                 0.6611
 IR Inten    --      4.6286                10.4945                 2.1706

                     37                     38                     39
                      A                      A                      A
 Frequencies --    949.5605               957.4597               969.6143
 Red. masses --      1.8721                 1.8525                 1.5561
 Frc consts  --      0.9945                 1.0006                 0.8619
 IR Inten    --      8.7998                 1.9760                 9.4322

                     40                     41                     42
                      A                      A                      A
 Frequencies --    981.9501              1001.3995              1013.1850
 Red. masses --      1.4911                 1.9963                 2.0070
 Frc consts  --      0.8471                 1.1795                 1.2139
 IR Inten    --      0.1000                 0.7077                13.9922

                     43                     44                     45
                      A                      A                      A
 Frequencies --   1062.2693              1071.2896              1108.0428
 Red. masses --      1.8705                 1.4035                 1.6861
 Frc consts  --      1.2436                 0.9490                 1.2197
 IR Inten    --      0.3152                16.4431                 7.8892

                     46                     47                     48
                      A                      A                      A
 Frequencies --   1121.7206              1136.3508              1149.8711
 Red. masses --      2.0823                 1.8107                 2.1607
 Frc consts  --      1.5437                 1.3776                 1.6833
 IR Inten    --     10.7763                10.2781                 3.1283

                     49                     50                     51
                      A                      A                      A
 Frequencies --   1168.4496              1170.4088              1183.8481
 Red. masses --      2.2711                 1.8963                 2.1243
 Frc consts  --      1.8268                 1.5305                 1.7541
 IR Inten    --     10.4082                 0.5392                30.3654

                     52                     53                     54
                      A                      A                      A
 Frequencies --   1202.9321              1210.4132              1225.7462
 Red. masses --      1.9129                 2.8857                 1.6108
 Frc consts  --      1.6309                 2.4910                 1.4259
 IR Inten    --      4.4966                16.0921                 7.3549

                     55                     56                     57
                      A                      A                      A
 Frequencies --   1230.1549              1243.0154              1267.6655
 Red. masses --      1.4836                 1.7213                 1.2106
 Frc consts  --      1.3228                 1.5670                 1.1462
 IR Inten    --     12.5428                 8.0137                 3.6393

                     58                     59                     60
                      A                      A                      A
 Frequencies --   1276.8382              1307.5397              1331.1045
 Red. masses --      1.5006                 1.3728                 1.2771
 Frc consts  --      1.4414                 1.3828                 1.3333
 IR Inten    --      4.1774                 4.8313                 3.6880

                     61                     62                     63
                      A                      A                      A
 Frequencies --   1339.1112              1346.8641              1363.8510
 Red. masses --      1.3010                 1.4035                 1.3677
 Frc consts  --      1.3745                 1.5001                 1.4989
 IR Inten    --     11.4472                 1.8895                 3.2070

                     64                     65                     66
                      A                      A                      A
 Frequencies --   1375.2092              1382.9539              1388.7742
 Red. masses --      1.3836                 1.3173                 1.5513
 Frc consts  --      1.5417                 1.4844                 1.7629
 IR Inten    --      4.4239                15.1535                 7.2459

                     67                     68                     69
                      A                      A                      A
 Frequencies --   1408.7098              1412.8236              1430.3743
 Red. masses --      1.4040                 1.3238                 1.3138
 Frc consts  --      1.6416                 1.5568                 1.5837
 IR Inten    --     10.5148                 1.0954                21.0627

                     70                     71                     72
                      A                      A                      A
 Frequencies --   1431.7979              1450.8117              1456.9138
 Red. masses --      1.6157                 1.2618                 2.2150
 Frc consts  --      1.9515                 1.5649                 2.7701
 IR Inten    --     79.8490                24.7272               225.9758

                     73                     74                     75
                      A                      A                      A
 Frequencies --   1482.8537              1515.8564              1516.4562
 Red. masses --      1.1827                 1.0589                 1.0706
 Frc consts  --      1.5322                 1.4335                 1.4506
 IR Inten    --      9.0974                18.2929                 3.7211

                     76                     77                     78
                      A                      A                      A
 Frequencies --   1521.2748              1524.4993              1531.4815
 Red. masses --      1.0600                 1.0559                 1.1209
 Frc consts  --      1.4453                 1.4459                 1.5490
 IR Inten    --      0.4178                 3.7992                 6.6715

                     79                     80                     81
                      A                      A                      A
 Frequencies --   1533.1460              1534.8252              1539.9800
 Red. masses --      1.0858                 1.0669                 1.0662
 Frc consts  --      1.5037                 1.4808                 1.4898
 IR Inten    --      6.0147                 1.1874                 5.2767

                     82                     83                     84
                      A                      A                      A
 Frequencies --   1542.4505              1544.4149              1548.7637
 Red. masses --      1.0543                 1.0475                 1.1149
 Frc consts  --      1.4778                 1.4720                 1.5757
 IR Inten    --     31.6838                 6.6294                70.2906

                     85                     86                     87
                      A                      A                      A
 Frequencies --   1553.2335              1554.7499              1685.8431
 Red. masses --      1.0952                 1.0802                 8.5117
 Frc consts  --      1.5567                 1.5385                14.2529
 IR Inten    --      4.3227                 4.0663               249.2011

                     88                     89                     90
                      A                      A                      A
 Frequencies --   2931.8772              2939.7667              3027.9320
 Red. masses --      1.0650                 1.0695                 1.0826
 Frc consts  --      5.3936                 5.4459                 5.8479
 IR Inten    --     45.4883               135.4275                13.4334

                     91                     92                     93
                      A                      A                      A
 Frequencies --   3029.1599              3043.2263              3054.3921
 Red. masses --      1.0860                 1.0380                 1.0399
 Frc consts  --      5.8710                 5.6638                 5.7161
 IR Inten    --     40.9135                24.8451                27.1635

                     94                     95                     96
                      A                      A                      A
 Frequencies --   3055.9132              3056.8904              3057.4533
 Red. masses --      1.0781                 1.0442                 1.0669
 Frc consts  --      5.9321                 5.7490                 5.8761
 IR Inten    --      9.0176                 7.8660                73.6546

                     97                     98                     99
                      A                      A                      A
 Frequencies --   3069.3378              3071.1727              3080.8282
 Red. masses --      1.0672                 1.0641                 1.0638
 Frc consts  --      5.9238                 5.9132                 5.9492
 IR Inten    --     30.2507                 3.6908                42.8951

                    100                    101                    102
                      A                      A                      A
 Frequencies --   3106.6519              3109.1224              3114.1224
 Red. masses --      1.0996                 1.1004                 1.1016
 Frc consts  --      6.2530                 6.2674                 6.2942
 IR Inten    --     10.2105                 9.6229                74.9904

                    103                    104                    105
                      A                      A                      A
 Frequencies --   3114.8553              3116.1527              3119.6722
 Red. masses --      1.0994                 1.1018                 1.1015
 Frc consts  --      6.2845                 6.3036                 6.3162
 IR Inten    --     35.7854                 7.6163                47.9562

                    106                    107                    108
                      A                      A                      A
 Frequencies --   3125.3918              3132.0614              3132.1790
 Red. masses --      1.0998                 1.1038                 1.1019
 Frc consts  --      6.3296                 6.3799                 6.3695
 IR Inten    --     46.9141                37.1428                26.6262

                    109                    110                    111
                      A                      A                      A
 Frequencies --   3138.5543              3194.9245              3488.4584
 Red. masses --      1.1012                 1.0837                 1.0744
 Frc consts  --      6.3910                 6.5175                 7.7032
 IR Inten    --     25.1419                12.3788                51.6168

 - Thermochemistry -
 -------------------
 Temperature   298.150 Kelvin.  Pressure   1.00000 Atm.
 Atom     1 has atomic number  6 and mass  12.00000

 Molecular mass:   212.18886 amu.
 Principal axes and moments of inertia in atomic units:
                           1         2         3
     Eigenvalues --  2007.840534778.407705516.14610
           X            0.99997  -0.00543   0.00573
           Y            0.00540   0.99997   0.00616
           Z           -0.00576  -0.00613   0.99996
 This molecule is an asymmetric top.
 Rotational symmetry number  1.
 Warning -- assumption of classical behavior for rotation
           may cause significant error
 Rotational temperatures (Kelvin)      0.04314     0.01813     0.01570
 Rotational constants (GHZ):           0.89885     0.37769     0.32717
 Zero-point vibrational energy     940336.4 (Joules/Mol)
                                  224.74580 (Kcal/Mol)
 Warning -- explicit consideration of  26 degrees of freedom as
           vibrations may cause significant error
 Vibrational temperatures:     54.55    60.27    84.46   126.51   145.37
          (Kelvin)            188.02   209.59   240.00   286.49   304.18
                              324.96   354.73   367.31   385.29   406.52
                              417.11   506.16   520.65   532.52   545.95
                              606.41   623.62   658.30   727.47   818.29
                              871.94   930.89  1067.12  1165.40  1193.68
                             1229.46  1244.65  1303.42  1312.76  1336.04
                             1356.73  1366.21  1377.57  1395.06  1412.81
                             1440.79  1457.75  1528.37  1541.35  1594.23
                             1613.91  1634.96  1654.41  1681.14  1683.96
                             1703.29  1730.75  1741.51  1763.58  1769.92
                             1788.42  1823.89  1837.09  1881.26  1915.16
                             1926.68  1937.84  1962.28  1978.62  1989.76
                             1998.14  2026.82  2032.74  2057.99  2060.04
                             2087.39  2096.17  2133.50  2180.98  2181.84
                             2188.78  2193.41  2203.46  2205.86  2208.27
                             2215.69  2219.24  2222.07  2228.33  2234.76
                             2236.94  2425.55  4218.32  4229.67  4356.52
                             4358.29  4378.52  4394.59  4396.78  4398.18
                             4398.99  4416.09  4418.73  4432.62  4469.78
                             4473.33  4480.53  4481.58  4483.45  4488.51
                             4496.74  4506.34  4506.51  4515.68  4596.78
                             5019.11

 Zero-point correction=                           0.358155 (Hartree/Particle)
 Thermal correction to Energy=                    0.375063
 Thermal correction to Enthalpy=                  0.376007
 Thermal correction to Gibbs Free Energy=         0.313823
 Sum of electronic and zero-point Energies=           -656.173207
 Sum of electronic and thermal Energies=              -656.156300
 Sum of electronic and thermal Enthalpies=            -656.155356
 Sum of electronic and thermal Free Energies=         -656.217540

                     E (Thermal)             CV                S
                      KCal/Mol        Cal/Mol-Kelvin    Cal/Mol-Kelvin
 Total                  235.355             63.790            130.878
 Electronic               0.000              0.000              0.000
 Translational            0.889              2.981             41.960
 Rotational               0.889              2.981             32.337
 Vibrational            233.578             57.828             56.580
 Vibration     1          0.594              1.982              5.365
 Vibration     2          0.595              1.980              5.168
 Vibration     3          0.596              1.974              4.500
 Vibration     4          0.601              1.958              3.706
 Vibration     5          0.604              1.948              3.434
 Vibration     6          0.612              1.923              2.936
 Vibration     7          0.617              1.907              2.728
 Vibration     8          0.624              1.883              2.471
 Vibration     9          0.637              1.841              2.141
 Vibration    10          0.643              1.823              2.031
 Vibration    11          0.650              1.802              1.912
 Vibration    12          0.661              1.768              1.755
 Vibration    13          0.666              1.754              1.694
 Vibration    14          0.673              1.732              1.610
 Vibration    15          0.682              1.706              1.518
 Vibration    16          0.686              1.693              1.474
 Vibration    17          0.728              1.572              1.158
 Vibration    18          0.736              1.551              1.114
 Vibration    19          0.742              1.534              1.079
 Vibration    20          0.749              1.514              1.041
 Vibration    21          0.784              1.424              0.887
 Vibration    22          0.794              1.397              0.847
 Vibration    23          0.816              1.344              0.773
 Vibration    24          0.861              1.238              0.644
 Vibration    25          0.925              1.099              0.507
 Vibration    26          0.965              1.019              0.439

 Optimization completed.
    -- Stationary point found.
 Normal termination of Gaussian 16 at Thu Dec 10 17:19:26 2020.

 ----------------------------------------------------------------------
 # B3LYP/6-311++G(d,p) empiricaldispersion=gd3bj scf=xqc pop=npa geom=c
 heck
 ----------------------------------------------------------------------

 --------------------------------------
 CID_79202896_JID_5701_Energie_neutraal
 --------------------------------------
 Structure from the checkpoint file:  "JID_5701.chk"
 Charge =  0 Multiplicity = 1

 SCF Done:  E(RB3LYP) =  -656.718293841     A.U. after   14 cycles
 Normal termination of Gaussian 16 at Thu Dec 10 17:28:08 2020.

 ----------------------------------------------------------------------
 # B3LYP/6-311++G(d,p) empiricaldispersion=gd3bj scf=xqc pop=npa geom=c
 heck
 ----------------------------------------------------------------------

 ------------------------------------
 CID_79202896_JID_5701_Energie_kation
 ------------------------------------
 Structure from the checkpoint file:  "JID_5701.chk"
 Charge =  1 Multiplicity = 2

 SCF Done:  E(UB3LYP) =  -656.431259742     A.U. after   24 cycles
 Normal termination of Gaussian 16 at Thu Dec 10 17:47:22 2020.
 Gaussian 16:  ES64L-G16RevA.03 25-Dec-2016

 ----------------------------------------------------------------------
 # B3LYP/6-311++G(d,p) empiricaldispersion=gd3bj scf=xqc pop=npa geom=c
 heck
 ----------------------------------------------------------------------

 -----------------------------------
 CID_79202896_JID_5701_Energie_anion
 -----------------------------------
 Structure from the checkpoint file:  "JID_5701.chk"
 Charge = -1 Multiplicity = 2

                         Standard orientation:
 ---------------------------------------------------------------------
 Center     Atomic      Atomic             Coordinates (Angstroms)
 Number     Number       Type             X           Y           Z
 ---------------------------------------------------------------------
      1          6           0        0.677700    1.663496   -1.425675
      2          6           0        1.966736    1.179862   -0.757406
      3          6           0        2.788149    2.372297   -0.248385
      4          6           0        1.723489    0.178321    0.405462
      5          6           0        2.966002   -0.687254    0.682744
      6          6           0        2.864690   -1.799033   -0.375813
      7          6           0        1.350539   -2.017286   -0.556360
      8          7           0        0.720259   -0.853425    0.099150
      9          6           0       -0.622238   -0.938936    0.331406
     10          8           0       -1.236074   -1.909933   -0.134495
     11          6           0       -1.450873    0.060364    1.159922
     12          6           0       -0.783651    1.118901    2.043977
     13          6           0       -2.526866    0.695397    0.246066
     14          7           0       -3.593282   -0.247257   -0.051932
     15          6           0       -4.491007    0.234256   -1.088443
     16          1           0        0.049061    2.225282   -0.725845
     17          1           0        0.087033    0.829164   -1.813726
     18          1           0        0.912084    2.330537   -2.262798
     19          1           0        2.557517    0.660742   -1.525108
     20          1           0        2.220053    2.940699    0.499344
     21          1           0        3.729815    2.060314    0.215569
     22          1           0        3.032166    3.055981   -1.068586
     23          1           0        1.429332    0.735404    1.290148
     24          1           0        3.900723   -0.123562    0.621571
     25          1           0        2.893594   -1.111591    1.690340
     26          1           0        3.323752   -1.475477   -1.315298
     27          1           0        3.373894   -2.716062   -0.067320
     28          1           0        1.051663   -2.080514   -1.607930
     29          1           0        0.985913   -2.925893   -0.070457
     30          1           0       -2.006783   -0.607328    1.829790
     31          1           0       -0.033972    0.685875    2.713848
     32          1           0       -0.316136    1.925392    1.471227
     33          1           0       -1.554781    1.576383    2.673563
     34          1           0       -2.961805    1.558623    0.769940
     35          1           0       -2.043941    1.100742   -0.664623
     36          1           0       -3.155600   -1.123810   -0.333690
     37          1           0       -3.985952    0.514373   -2.033986
     38          1           0       -5.235725   -0.535784   -1.314616
     39          1           0       -5.028169    1.122445   -0.730889
 ---------------------------------------------------------------------

 SCF Done:  E(UB3LYP) =  -656.706038106     A.U. after   32 cycles

 The electronic state is 2-A.
 Alpha  occ. eigenvalues --  -18.98639 -14.24498 -14.19736 -10.17478 -10.11363
 Alpha  occ. eigenvalues --  -10.10301 -10.10146 -10.09888 -10.09409 -10.07948
 Alpha  occ. eigenvalues --  -10.07504 -10.07469 -10.07350 -10.06158 -10.05942
 Alpha  occ. eigenvalues --   -0.94130  -0.84564  -0.81085  -0.71325  -0.70461
 Alpha  occ. eigenvalues --   -0.68234  -0.63002  -0.60567  -0.58846  -0.56742
 Alpha  occ. eigenvalues --   -0.54121  -0.52204  -0.49695  -0.48293  -0.45576
 Alpha  occ. eigenvalues --   -0.40707  -0.39530  -0.39033  -0.36518  -0.36229
 Alpha  occ. eigenvalues --   -0.35572  -0.34760  -0.34227  -0.33235  -0.32200
 Alpha  occ. eigenvalues --   -0.31744  -0.31189  -0.30482  -0.29711  -0.29078
 Alpha  occ. eigenvalues --   -0.28775  -0.27838  -0.27038  -0.26719  -0.25609
 Alpha  occ. eigenvalues --   -0.25531  -0.24857  -0.24222  -0.23345  -0.22837
 Alpha  occ. eigenvalues --   -0.22199  -0.16007  -0.14787  -0.13167   0.04245
 Alpha virt. eigenvalues --    0.06375   0.06648   0.07008   0.08045   0.08468
 Alpha virt. eigenvalues --    0.09013   0.09449   0.09567   0.10257   0.10522
 Alpha virt. eigenvalues --    0.11036   0.11189   0.11835   0.12272   0.12687

  Beta  occ. eigenvalues --  -18.98635 -14.24499 -14.19733 -10.17476 -10.11357
  Beta  occ. eigenvalues --  -10.10293 -10.10138 -10.09881 -10.09404 -10.07932
  Beta  occ. eigenvalues --  -10.07480 -10.07441 -10.07320 -10.06135 -10.05897
  Beta  occ. eigenvalues --   -0.94123  -0.84555  -0.81077  -0.71297  -0.70439
  Beta  occ. eigenvalues --   -0.68201  -0.62967  -0.60539  -0.58775  -0.56704
  Beta  occ. eigenvalues --   -0.54090  -0.52163  -0.49633  -0.48229  -0.45547
  Beta  occ. eigenvalues --   -0.40692  -0.39505  -0.39007  -0.36489  -0.36203
  Beta  occ. eigenvalues --   -0.35528  -0.34743  -0.34192  -0.33214  -0.32172
  Beta  occ. eigenvalues --   -0.31716  -0.31149  -0.30453  -0.29678  -0.29049
  Beta  occ. eigenvalues --   -0.28748  -0.27820  -0.27014  -0.26681  -0.25572
  Beta  occ. eigenvalues --   -0.25505  -0.24824  -0.24185  -0.23322  -0.22794
  Beta  occ. eigenvalues --   -0.22158  -0.15996  -0.14774  -0.13156
  Beta virt. eigenvalues --    0.06267   0.06898   0.07388   0.07677   0.08547
  Beta virt. eigenvalues --    0.08997   0.09225   0.09876   0.09985   0.10565
  Beta virt. eigenvalues --    0.10753   0.11214   0.11434   0.12111   0.12559

 Mulliken charges and spin densities:
               1          2
     1  C    0.574305  -1.275591
     2  C   -1.297287   1.668867
     3  C    1.267073  -1.917995
     4  C   -1.213735   0.896130
     5  C    1.704704  -2.150372
     6  C    0.386779  -0.903128
     7  C   -0.041753  -0.008852
     8  N    0.074946   0.147777
     9  C    0.222170  -0.224310
    10  O   -0.311779   0.002802
    11  C   -1.139837   1.511844
    12  C    0.286506  -1.101275
    13  C   -0.152271  -0.564264
    14  N   -0.106070   0.050078
    15  C   -0.154096  -0.200601
    16  H   -0.104314   0.269129
    17  H    0.145464   0.022385
    18  H   -0.371420   0.545394
    19  H   -0.189348   0.384079
    20  H   -0.402786   0.550144
    21  H   -0.252110   0.375927
    22  H   -0.285153   0.431382
    23  H    0.294080  -0.115295
    24  H   -0.207431   0.369151
    25  H   -0.316684   0.489451
    26  H   -0.169391   0.313391
    27  H   -0.192447   0.367120
    28  H    0.080723   0.119401
    29  H    0.122478   0.066424
    30  H    0.181735   0.053831
    31  H   -0.278227   0.448675
    32  H    0.388752  -0.227198
    33  H   -0.285969   0.441793
    34  H    0.029764   0.152756
    35  H    0.283039  -0.177500
    36  H    0.253641   0.007096
    37  H    0.016023   0.093589
    38  H    0.099592   0.022028
    39  H    0.060335   0.065739
 Sum of Mulliken charges =  -1.00000   1.00000

 Dipole moment (field-independent basis, Debye):
    X=             -5.3574    Y=             -1.7946    Z=             -0.7096  Tot=              5.6944
 Quadrupole moment (field-independent basis, Debye-Ang):
   XX=           -172.4723   YY=           -146.9961   ZZ=           -137.7835
   XY=             -8.6220   XZ=              3.9687   YZ=              2.5935

 Summary of Natural Population Analysis:

                                       Natural Population
                Natural  -----------------------------------------------
    Atom  No    Charge         Core      Valence    Rydberg      Total
 -----------------------------------------------------------------------
      C    1   -0.28525      0.99964     2.27906    0.00655     3.28525
      C    2   -0.11881      0.99958     2.10814    0.01108     3.11881
      C    3   -0.28325      0.99965     2.27754    0.00606     3.28325
      C    4   -0.00430      0.99955     1.99119    0.01356     3.00430
      C    5   -0.18828      0.99961     2.17969    0.00898     3.18828
      C    6   -0.19837      0.99963     2.19122    0.00752     3.19837
      C    7   -0.08400      0.99962     2.07333    0.01105     3.08400
      N    8   -0.25181      0.99963     2.74155    0.01062     3.75181
      C    9    0.35308      0.99960     1.62475    0.02257     2.64692
      O   10   -0.34661      0.99988     3.34152    0.00521     4.34661
      C   11   -0.15330      0.99956     2.14185    0.01189     3.15330
      C   12   -0.28728      0.99965     2.28165    0.00598     3.28728
      C   13   -0.07970      0.99961     2.06892    0.01117     3.07970
      N   14   -0.34542      0.99974     2.83553    0.01015     3.84542
      C   15   -0.17724      0.99967     2.17111    0.00646     3.17724
      H   16    0.09517      0.00000     0.40356    0.00127     0.40483
      H   17    0.10141      0.00000     0.39730    0.00130     0.39859
      H   18    0.10247      0.00000     0.39661    0.00092     0.39753
      H   19    0.09496      0.00000     0.40252    0.00252     0.40504
      H   20    0.09621      0.00000     0.40226    0.00153     0.40379
      H   21    0.10218      0.00000     0.39627    0.00155     0.39782
      H   22    0.10278      0.00000     0.39587    0.00135     0.39722
      H   23    0.10771      0.00000     0.38941    0.00288     0.39229
      H   24    0.10722      0.00000     0.39106    0.00172     0.39278
      H   25    0.09984      0.00000     0.39876    0.00140     0.40016
      H   26    0.09895      0.00000     0.39946    0.00159     0.40105
      H   27    0.10384      0.00000     0.39509    0.00108     0.39616
      H   28    0.09836      0.00000     0.40067    0.00097     0.40164
      H   29    0.10363      0.00000     0.39531    0.00106     0.39637
      H   30    0.11206      0.00000     0.38550    0.00244     0.38794
      H   31    0.10301      0.00000     0.39583    0.00116     0.39699
      H   32    0.09996      0.00000     0.39860    0.00143     0.40004
      H   33    0.10263      0.00000     0.39646    0.00091     0.39737
      H   34    0.08896      0.00000     0.40950    0.00154     0.41104
      H   35    0.08194      0.00000     0.41643    0.00163     0.41806
      H   36    0.19149      0.00000     0.30551    0.00300     0.30851
      H   37    0.07691      0.00000     0.42127    0.00182     0.42309
      H   38    0.09187      0.00000     0.40726    0.00086     0.40813
      H   39    0.08696      0.00000     0.41175    0.00130     0.41304
 =======================================================================
   * Total *    0.00000     14.99463    43.81928    0.18609    59.00000

 Normal termination of Gaussian 16 at Thu Dec 10 18:12:27 2020.
