 Gaussian 16, Revision A.03,

 -----------------------------------------------------------
 # opt freq B3LYP/6-31G(d) empiricaldispersion=gd3bj scf=xqc
 -----------------------------------------------------------

 -------------------------------
 CID_143299477_JID_6770_neutraal
 -------------------------------
 Symbolic Z-matrix:
 Charge =  0 Multiplicity = 1

 SCF Done:  E(RB3LYP) =  -726.925171894     A.U. after   14 cycles
 SCF Done:  E(RB3LYP) =  -726.931347438     A.U. after   13 cycles
 SCF Done:  E(RB3LYP) =  -726.931883422     A.U. after   12 cycles
 SCF Done:  E(RB3LYP) =  -726.932320929     A.U. after   12 cycles
 SCF Done:  E(RB3LYP) =  -726.932634843     A.U. after   12 cycles
 SCF Done:  E(RB3LYP) =  -726.932939494     A.U. after   12 cycles
 SCF Done:  E(RB3LYP) =  -726.933226211     A.U. after   11 cycles
 SCF Done:  E(RB3LYP) =  -726.933752628     A.U. after   12 cycles
 SCF Done:  E(RB3LYP) =  -726.934147697     A.U. after   13 cycles
 SCF Done:  E(RB3LYP) =  -726.934201248     A.U. after   12 cycles
 SCF Done:  E(RB3LYP) =  -726.935937276     A.U. after    9 cycles
 SCF Done:  E(RB3LYP) =  -726.935937924     A.U. after    8 cycles
 SCF Done:  E(RB3LYP) =  -726.935937823     A.U. after    8 cycles
 SCF Done:  E(RB3LYP) =  -726.935938011     A.U. after    8 cycles
 SCF Done:  E(RB3LYP) =  -726.935938020     A.U. after    7 cycles
 Optimization completed.
    -- Stationary point found.
 Normal termination of Gaussian 16 at Fri Dec 11 01:06:04 2020.

 --------------------------------------------------------------------
 #N Geom=AllCheck Guess=TCheck SCRF=Check GenChk RB3LYP/6-31G(d) Freq
 --------------------------------------------------------------------

 Structure from the checkpoint file:  "JID_6770.chk"
 -------------------------------
 CID_143299477_JID_6770_neutraal
 -------------------------------
 Charge =  0 Multiplicity = 1

 SCF Done:  E(RB3LYP) =  -726.935938020     A.U. after    1 cycles

  Exact polarizability:  97.545  -0.667 162.045  -1.675  -4.914 158.204
 Approx polarizability: 135.023  -4.543 270.065  -5.242 -13.990 259.771

                      1                      2                      3
                      A                      A                      A
 Frequencies --     18.7998                21.7218                30.9724
 Red. masses --      4.8827                 4.7341                 7.5844
 Frc consts  --      0.0010                 0.0013                 0.0043
 IR Inten    --      0.0685                 0.2847                 1.3817

                      4                      5                      6
                      A                      A                      A
 Frequencies --     38.8407                50.0949                88.4560
 Red. masses --      5.1035                 5.0004                 2.0183
 Frc consts  --      0.0045                 0.0074                 0.0093
 IR Inten    --      0.6940                 0.3027                 3.9375

                      7                      8                      9
                      A                      A                      A
 Frequencies --     95.8514               132.1517               142.0060
 Red. masses --      3.3493                 1.0645                 2.0338
 Frc consts  --      0.0181                 0.0110                 0.0242
 IR Inten    --      1.6326                 0.0608                 9.1096

                     10                     11                     12
                      A                      A                      A
 Frequencies --    159.2310               166.1916               219.5907
 Red. masses --      2.3406                 1.5070                 2.9151
 Frc consts  --      0.0350                 0.0245                 0.0828
 IR Inten    --      0.1448                 4.7716                 0.2602

                     13                     14                     15
                      A                      A                      A
 Frequencies --    248.4795               253.7821               267.4338
 Red. masses --      3.1545                 1.4523                 2.5046
 Frc consts  --      0.1148                 0.0551                 0.1055
 IR Inten    --      0.0420                19.6855                 7.7595

                     16                     17                     18
                      A                      A                      A
 Frequencies --    275.9814               318.9634               437.4479
 Red. masses --      4.6617                 4.2913                 3.0044
 Frc consts  --      0.2092                 0.2572                 0.3387
 IR Inten    --      6.8665                 1.3178                 3.6812

                     19                     20                     21
                      A                      A                      A
 Frequencies --    467.9656               525.8165               538.7486
 Red. masses --      4.7866                 1.5216                 4.0384
 Frc consts  --      0.6176                 0.2479                 0.6906
 IR Inten    --     27.4030                30.7285                 0.1390

                     22                     23                     24
                      A                      A                      A
 Frequencies --    542.1360               562.2827               584.1921
 Red. masses --      4.3982                 4.8176                 4.0980
 Frc consts  --      0.7616                 0.8974                 0.8240
 IR Inten    --      0.2563                 5.3579                 0.6244

                     25                     26                     27
                      A                      A                      A
 Frequencies --    611.7247               622.6353               640.4167
 Red. masses --      3.3215                 4.8618                 4.2313
 Frc consts  --      0.7323                 1.1105                 1.0225
 IR Inten    --      2.9008                 3.1383                18.5780

                     28                     29                     30
                      A                      A                      A
 Frequencies --    680.7399               756.7642               775.3116
 Red. masses --      1.4080                 1.2888                 3.7940
 Frc consts  --      0.3844                 0.4349                 1.3437
 IR Inten    --     86.8204                68.1781                 0.2161

                     31                     32                     33
                      A                      A                      A
 Frequencies --    783.5835               788.7858               800.6406
 Red. masses --      4.4251                 1.3779                 4.3212
 Frc consts  --      1.6008                 0.5051                 1.6320
 IR Inten    --      4.0400                 9.1706                 1.8255

                     34                     35                     36
                      A                      A                      A
 Frequencies --    848.5117               857.6193               920.7193
 Red. masses --      3.2026                 1.5412                 1.3390
 Frc consts  --      1.3585                 0.6679                 0.6688
 IR Inten    --     50.6703                 0.2209                 1.7178

                     37                     38                     39
                      A                      A                      A
 Frequencies --    935.2340               962.4421               986.4723
 Red. masses --      1.5729                 1.2194                 1.8803
 Frc consts  --      0.8106                 0.6655                 1.0781
 IR Inten    --      4.1584                 0.0867               130.1733

                     40                     41                     42
                      A                      A                      A
 Frequencies --   1011.9763              1042.8123              1049.9474
 Red. masses --      1.9185                 2.2918                 2.3603
 Frc consts  --      1.1576                 1.4684                 1.5330
 IR Inten    --      5.9658                 4.2610                 1.9077

                     43                     44                     45
                      A                      A                      A
 Frequencies --   1080.5002              1094.6075              1141.3141
 Red. masses --      1.4443                 2.0831                 2.7958
 Frc consts  --      0.9935                 1.4705                 2.1457
 IR Inten    --      1.0815                20.6503                49.1434

                     46                     47                     48
                      A                      A                      A
 Frequencies --   1157.8483              1166.1903              1171.4242
 Red. masses --      1.5902                 1.7335                 1.3170
 Frc consts  --      1.2560                 1.3890                 1.0648
 IR Inten    --      4.4260                 7.1722                13.5711

                     49                     50                     51
                      A                      A                      A
 Frequencies --   1183.1649              1196.3675              1202.0356
 Red. masses --      2.2621                 1.3452                 1.2973
 Frc consts  --      1.8657                 1.1344                 1.1044
 IR Inten    --    175.3290                 4.0586                12.2469

                     52                     53                     54
                      A                      A                      A
 Frequencies --   1235.0881              1289.6704              1337.2639
 Red. masses --      1.5297                 1.7498                 1.5244
 Frc consts  --      1.3748                 1.7147                 1.6061
 IR Inten    --      4.3022                18.1849                11.7260

                     55                     56                     57
                      A                      A                      A
 Frequencies --   1374.0371              1392.4310              1407.1842
 Red. masses --      2.4210                 4.9791                 1.2205
 Frc consts  --      2.6930                 5.6878                 1.4239
 IR Inten    --     30.0487                 9.3405                 0.0490

                     58                     59                     60
                      A                      A                      A
 Frequencies --   1415.3611              1419.4705              1431.0998
 Red. masses --      2.8302                 4.0813                 1.9431
 Frc consts  --      3.3405                 4.8451                 2.3447
 IR Inten    --     28.4641                 7.5265                22.1221

                     61                     62                     63
                      A                      A                      A
 Frequencies --   1450.1769              1473.1003              1486.8197
 Red. masses --      1.3880                 1.3181                 1.0831
 Frc consts  --      1.7198                 1.6852                 1.4107
 IR Inten    --      1.3064                11.7877                34.8675

                     64                     65                     66
                      A                      A                      A
 Frequencies --   1510.8148              1511.8176              1520.3651
 Red. masses --      1.0850                 1.1094                 1.8355
 Frc consts  --      1.4591                 1.4939                 2.4997
 IR Inten    --      5.0217                13.1408                39.7945

                     67                     68                     69
                      A                      A                      A
 Frequencies --   1525.3322              1538.4144              1557.3591
 Red. masses --      1.5494                 1.7401                 1.1194
 Frc consts  --      2.1239                 2.4264                 1.5996
 IR Inten    --      1.0541                 9.8067                 8.4236

                     70                     71                     72
                      A                      A                      A
 Frequencies --   1615.3255              1630.8761              1675.4510
 Red. masses --      5.0863                 5.8499                 6.4083
 Frc consts  --      7.8194                 9.1672                10.5989
 IR Inten    --      7.1031                 0.6132                 6.3322

                     73                     74                     75
                      A                      A                      A
 Frequencies --   1711.7707              1843.3178              3032.4069
 Red. masses --      1.0842                 9.4995                 1.0375
 Frc consts  --      1.8718                19.0174                 5.6208
 IR Inten    --     21.0467               266.0897                52.3455

                     76                     77                     78
                      A                      A                      A
 Frequencies --   3046.3805              3077.9334              3078.4009
 Red. masses --      1.0336                 1.0926                 1.0727
 Frc consts  --      5.6517                 6.0984                 5.9892
 IR Inten    --     63.4859                14.5650                18.4428

                     79                     80                     81
                      A                      A                      A
 Frequencies --   3113.1753              3114.9870              3124.1314
 Red. masses --      1.1066                 1.0998                 1.0997
 Frc consts  --      6.3187                 6.2877                 6.3241
 IR Inten    --      6.3350                21.1705                 1.5358

                     82                     83                     84
                      A                      A                      A
 Frequencies --   3147.0194              3180.8798              3190.4846
 Red. masses --      1.1025                 1.0849                 1.0887
 Frc consts  --      6.4330                 6.4676                 6.5295
 IR Inten    --     11.8858                 0.1904                11.7384

                     85                     86                     87
                      A                      A                      A
 Frequencies --   3202.2469              3211.3161              3252.2358
 Red. masses --      1.0933                 1.0962                 1.0961
 Frc consts  --      6.6052                 6.6608                 6.8308
 IR Inten    --     34.6002                20.8747                 3.3286

                     88                     89                     90
                      A                      A                      A
 Frequencies --   3468.0288              3543.1240              3681.3903
 Red. masses --      1.0505                 1.0908                 1.0641
 Frc consts  --      7.4444                 8.0684                 8.4964
 IR Inten    --      0.2716                 1.1031                38.9557

 - Thermochemistry -
 -------------------
 Temperature   298.150 Kelvin.  Pressure   1.00000 Atm.
 Atom     1 has atomic number  6 and mass  12.00000

 Molecular mass:   220.12118 amu.
 Principal axes and moments of inertia in atomic units:
                           1         2         3
     Eigenvalues --  3037.826954795.874324941.03587
           X            0.99991  -0.00269  -0.01302
           Y            0.00475   0.98702   0.16054
           Z            0.01242  -0.16059   0.98694
 This molecule is an asymmetric top.
 Rotational symmetry number  1.
 Warning -- assumption of classical behavior for rotation
           may cause significant error
 Rotational temperatures (Kelvin)      0.02851     0.01806     0.01753
 Rotational constants (GHZ):           0.59409     0.37631     0.36526
 Zero-point vibrational energy     702648.3 (Joules/Mol)
                                  167.93696 (Kcal/Mol)
 Warning -- explicit consideration of  25 degrees of freedom as
           vibrations may cause significant error
 Vibrational temperatures:     27.05    31.25    44.56    55.88    72.08
          (Kelvin)            127.27   137.91   190.14   204.31   229.10
                              239.11   315.94   357.51   365.14   384.78
                              397.08   458.92   629.39   673.30   756.53
                              775.14   780.01   809.00   840.52   880.14
                              895.83   921.42   979.43  1088.81  1115.50
                             1127.40  1134.89  1151.94  1220.82  1233.92
                             1324.71  1345.59  1384.74  1419.31  1456.01
                             1500.37  1510.64  1554.60  1574.90  1642.10
                             1665.89  1677.89  1685.42  1702.31  1721.31
                             1729.46  1777.02  1855.55  1924.02  1976.93
                             2003.40  2024.62  2036.39  2042.30  2059.03
                             2086.48  2119.46  2139.20  2173.73  2175.17
                             2187.47  2194.61  2213.44  2240.69  2324.09
                             2346.47  2410.60  2462.86  2652.12  4362.96
                             4383.06  4428.46  4429.13  4479.16  4481.77
                             4494.93  4527.86  4576.58  4590.40  4607.32
                             4620.37  4679.24  4989.72  5097.77  5296.70

 Zero-point correction=                           0.267625 (Hartree/Particle)
 Thermal correction to Energy=                    0.284884
 Thermal correction to Enthalpy=                  0.285828
 Thermal correction to Gibbs Free Energy=         0.219081
 Sum of electronic and zero-point Energies=           -726.668313
 Sum of electronic and thermal Energies=              -726.651054
 Sum of electronic and thermal Enthalpies=            -726.650110
 Sum of electronic and thermal Free Energies=         -726.716857

                     E (Thermal)             CV                S
                      KCal/Mol        Cal/Mol-Kelvin    Cal/Mol-Kelvin
 Total                  178.767             61.416            140.482
 Electronic               0.000              0.000              0.000
 Translational            0.889              2.981             42.070
 Rotational               0.889              2.981             32.643
 Vibrational            176.990             55.454             65.769
 Vibration     1          0.593              1.986              6.757
 Vibration     2          0.593              1.985              6.470
 Vibration     3          0.594              1.984              5.766
 Vibration     4          0.594              1.981              5.317
 Vibration     5          0.595              1.978              4.814
 Vibration     6          0.601              1.957              3.694
 Vibration     7          0.603              1.952              3.537
 Vibration     8          0.612              1.921              2.914
 Vibration     9          0.615              1.911              2.777
 Vibration    10          0.621              1.892              2.559
 Vibration    11          0.624              1.884              2.478
 Vibration    12          0.647              1.811              1.962
 Vibration    13          0.662              1.765              1.741
 Vibration    14          0.665              1.756              1.704
 Vibration    15          0.673              1.733              1.613
 Vibration    16          0.678              1.718              1.558
 Vibration    17          0.705              1.637              1.315
 Vibration    18          0.798              1.389              0.835
 Vibration    19          0.825              1.321              0.743
 Vibration    20          0.881              1.193              0.597
 Vibration    21          0.894              1.164              0.568
 Vibration    22          0.897              1.157              0.561
 Vibration    23          0.918              1.113              0.519
 Vibration    24          0.941              1.066              0.478
 Vibration    25          0.971              1.007              0.430

                           ! Non-Optimized Parameters !
 Normal termination of Gaussian 16 at Fri Dec 11 01:17:25 2020.

 ----------------------------------------------------------------------
 # B3LYP/6-311++G(d,p) empiricaldispersion=gd3bj scf=xqc pop=npa geom=c
 heck
 ----------------------------------------------------------------------

 ---------------------------------------
 CID_143299477_JID_6770_Energie_neutraal
 ---------------------------------------
 Structure from the checkpoint file:  "JID_6770.chk"
 Charge =  0 Multiplicity = 1

 SCF Done:  E(RB3LYP) =  -727.152941891     A.U. after   16 cycles
 Normal termination of Gaussian 16 at Fri Dec 11 01:22:05 2020.

 ----------------------------------------------------------------------
 # B3LYP/6-311++G(d,p) empiricaldispersion=gd3bj scf=xqc pop=npa geom=c
 heck
 ----------------------------------------------------------------------

 -------------------------------------
 CID_143299477_JID_6770_Energie_kation
 -------------------------------------
 Structure from the checkpoint file:  "JID_6770.chk"
 Charge =  1 Multiplicity = 2

 SCF Done:  E(UB3LYP) =  -726.887179822     A.U. after   24 cycles
 Normal termination of Gaussian 16 at Fri Dec 11 01:31:33 2020.
 Gaussian 16:  ES64L-G16RevA.03 25-Dec-2016

 ----------------------------------------------------------------------
 # B3LYP/6-311++G(d,p) empiricaldispersion=gd3bj scf=xqc pop=npa geom=c
 heck
 ----------------------------------------------------------------------

 ------------------------------------
 CID_143299477_JID_6770_Energie_anion
 ------------------------------------
 Structure from the checkpoint file:  "JID_6770.chk"
 Charge = -1 Multiplicity = 2

                         Standard orientation:
 ---------------------------------------------------------------------
 Center     Atomic      Atomic             Coordinates (Angstroms)
 Number     Number       Type             X           Y           Z
 ---------------------------------------------------------------------
      1          6           0       -1.467134    1.538953    2.692293
      2          6           0       -1.462674    0.520801    1.594552
      3          6           0       -1.463029   -0.847482    1.724471
      4          7           0       -1.479240   -1.459449    0.481247
      5          6           0       -1.460735   -0.475062   -0.484345
      6          6           0       -1.396570   -0.583746   -1.877107
      7          6           0       -1.341917    0.596515   -2.611188
      8          6           0       -1.349927    1.855584   -1.975228
      9          6           0       -1.409805    1.958709   -0.590614
     10          6           0       -1.459580    0.785540    0.178581
     11          6           0       -1.296000   -2.874402    0.224425
     12          6           0        1.762915   -0.396664   -0.098409
     13          6           0        3.078807    0.332475    0.106551
     14          8           0        4.178689   -0.173595    0.038514
     15          8           0        2.889838    1.643495    0.389647
     16          7           0        1.904614   -1.813227   -0.407957
     17          1           0       -0.601967    2.210840    2.620581
     18          1           0       -2.365341    2.169403    2.658717
     19          1           0       -1.435344    1.060520    3.676767
     20          1           0       -1.465874   -1.452770    2.621564
     21          1           0       -1.373067   -1.552026   -2.367290
     22          1           0       -1.289258    0.547546   -3.695201
     23          1           0       -1.304322    2.756372   -2.580651
     24          1           0       -1.403701    2.932430   -0.108182
     25          1           0       -2.037174   -3.225909   -0.501547
     26          1           0       -0.284604   -3.056392   -0.156695
     27          1           0       -1.442164   -3.423765    1.157463
     28          1           0        1.204975    0.104589   -0.895308
     29          1           0        1.154615   -0.269298    0.804448
     30          1           0        3.779537    2.026686    0.506731
     31          1           0        2.424974   -1.906491   -1.279438
     32          1           0        2.506763   -2.239523    0.295833
 ---------------------------------------------------------------------

 SCF Done:  E(UB3LYP) =  -727.140569145     A.U. after   33 cycles
 SCF Done:  E(UB3LYP) =  -727.140569145     a.u. after    1 cycles

 The electronic state is 2-A.
 Alpha  occ. eigenvalues --  -19.07452 -19.02281 -14.25990 -14.20278 -10.20865
 Alpha  occ. eigenvalues --  -10.10688 -10.10455 -10.10374 -10.10152 -10.07904
 Alpha  occ. eigenvalues --  -10.07736 -10.07718 -10.07345 -10.07263 -10.07258
 Alpha  occ. eigenvalues --  -10.07136  -1.01517  -0.92718  -0.88977  -0.79505
 Alpha  occ. eigenvalues --   -0.75147  -0.71166  -0.65361  -0.63745  -0.62215
 Alpha  occ. eigenvalues --   -0.62082  -0.56531  -0.52223  -0.50547  -0.48758
 Alpha  occ. eigenvalues --   -0.46537  -0.41240  -0.41022  -0.40733  -0.39449
 Alpha  occ. eigenvalues --   -0.39436  -0.37964  -0.36561  -0.35017  -0.34597
 Alpha  occ. eigenvalues --   -0.33559  -0.33180  -0.32152  -0.31856  -0.31294
 Alpha  occ. eigenvalues --   -0.30759  -0.28989  -0.28559  -0.28412  -0.27482
 Alpha  occ. eigenvalues --   -0.25896  -0.24084  -0.23423  -0.23241  -0.19466
 Alpha  occ. eigenvalues --   -0.17867  -0.16209  -0.13089  -0.10747   0.04165
 Alpha virt. eigenvalues --    0.06022   0.06597   0.06786   0.07225   0.08308
 Alpha virt. eigenvalues --    0.08460   0.08771   0.09350   0.10194   0.10615
 Alpha virt. eigenvalues --    0.10860   0.11007   0.11177   0.11971   0.13011

  Beta  occ. eigenvalues --  -19.07410 -19.02270 -14.25989 -14.20251 -10.20865
  Beta  occ. eigenvalues --  -10.10669 -10.10454 -10.10337 -10.10132 -10.07892
  Beta  occ. eigenvalues --  -10.07727 -10.07709 -10.07340 -10.07258 -10.07240
  Beta  occ. eigenvalues --  -10.07134  -1.01464  -0.92674  -0.88968  -0.79467
  Beta  occ. eigenvalues --   -0.75132  -0.71148  -0.65337  -0.63718  -0.62139
  Beta  occ. eigenvalues --   -0.62051  -0.56489  -0.52186  -0.50463  -0.48738
  Beta  occ. eigenvalues --   -0.46506  -0.41208  -0.40983  -0.40703  -0.39424
  Beta  occ. eigenvalues --   -0.39412  -0.37929  -0.36538  -0.34983  -0.34571
  Beta  occ. eigenvalues --   -0.33540  -0.33115  -0.32123  -0.31822  -0.31263
  Beta  occ. eigenvalues --   -0.30726  -0.28964  -0.28534  -0.28389  -0.27456
  Beta  occ. eigenvalues --   -0.25878  -0.24066  -0.23394  -0.23216  -0.19443
  Beta  occ. eigenvalues --   -0.17845  -0.16173  -0.13073  -0.10723
  Beta virt. eigenvalues --    0.06256   0.06823   0.07094   0.07282   0.07784
  Beta virt. eigenvalues --    0.08794   0.08991   0.09090   0.09387   0.10237
  Beta virt. eigenvalues --    0.10880   0.11275   0.11283   0.11442   0.12252

 Mulliken charges and spin densities:
               1          2
     1  C    0.429610  -0.836189
     2  C   -0.054493  -0.227533
     3  C    0.814347  -1.154836
     4  N   -0.000196   0.080094
     5  C   -1.244287   1.302048
     6  C    0.483760  -0.595941
     7  C    0.539273  -0.928617
     8  C   -0.253459  -0.193071
     9  C    0.472520  -0.911569
    10  C   -0.834558   1.708832
    11  C    0.736137  -1.149809
    12  C    0.231291  -0.498458
    13  C    0.206671  -0.478798
    14  O   -0.287116   0.005966
    15  O   -0.142878   0.031210
    16  N   -0.363581  -0.018903
    17  H   -0.049289   0.212366
    18  H    0.060755   0.091604
    19  H   -0.166953   0.312237
    20  H   -0.743722   0.933490
    21  H   -0.136104   0.299868
    22  H   -0.120575   0.281918
    23  H   -0.026718   0.187265
    24  H    0.021273   0.137484
    25  H   -0.233453   0.375546
    26  H    0.105832   0.165452
    27  H   -0.491578   0.623904
    28  H    0.093579   0.145132
    29  H    0.060267   0.221107
    30  H   -0.253652   0.535148
    31  H    0.072311   0.166549
    32  H    0.074985   0.176505
 Sum of Mulliken charges =  -1.00000   1.00000

 Dipole moment (field-independent basis, Debye):
    X=             -2.1139    Y=              1.8286    Z=             -2.4508  Tot=              3.7173
 Quadrupole moment (field-independent basis, Debye-Ang):
   XX=           -155.3372   YY=           -145.4444   ZZ=           -140.0843
   XY=             -7.9534   XZ=             -0.8095   YZ=              3.7157

 Summary of Natural Population Analysis:

                                       Natural Population
                Natural  -----------------------------------------------
    Atom  No    Charge         Core      Valence    Rydberg      Total
 -----------------------------------------------------------------------
      C    1   -0.29199      0.99964     2.28699    0.00536     3.29199
      C    2   -0.05665      0.99949     2.04687    0.01028     3.05665
      C    3    0.00888      0.99948     1.97930    0.01234     2.99112
      N    4   -0.20800      0.99962     2.69711    0.01127     3.70800
      C    5    0.08570      0.99947     1.90280    0.01203     2.91430
      C    6   -0.11863      0.99952     2.10939    0.00972     3.11863
      C    7   -0.10910      0.99958     2.09983    0.00969     3.10910
      C    8   -0.11840      0.99957     2.10900    0.00983     3.11840
      C    9   -0.09292      0.99952     2.08469    0.00870     3.09292
      C   10   -0.04667      0.99946     2.03670    0.01051     3.04667
      C   11   -0.17857      0.99963     2.17070    0.00824     3.17857
      C   12   -0.15090      0.99959     2.13924    0.01208     3.15090
      C   13    0.39984      0.99973     1.57648    0.02395     2.60016
      O   14   -0.31427      0.99987     3.30752    0.00689     4.31427
      O   15   -0.34195      0.99988     3.33510    0.00698     4.34195
      N   16   -0.41373      0.99979     2.90359    0.01036     3.91373
      H   17    0.10488      0.00000     0.39385    0.00127     0.39512
      H   18    0.09936      0.00000     0.39961    0.00103     0.40064
      H   19    0.10412      0.00000     0.39504    0.00084     0.39588
      H   20    0.10269      0.00000     0.39573    0.00158     0.39731
      H   21    0.10596      0.00000     0.39289    0.00115     0.39404
      H   22    0.09900      0.00000     0.40013    0.00086     0.40100
      H   23    0.09846      0.00000     0.40073    0.00081     0.40154
      H   24    0.10162      0.00000     0.39737    0.00101     0.39838
      H   25    0.09482      0.00000     0.40394    0.00124     0.40518
      H   26    0.11337      0.00000     0.38467    0.00196     0.38663
      H   27    0.10167      0.00000     0.39667    0.00166     0.39833
      H   28    0.11429      0.00000     0.38287    0.00284     0.38571
      H   29    0.11333      0.00000     0.38357    0.00309     0.38667
      H   30    0.24054      0.00000     0.24990    0.00956     0.25946
      H   31    0.17560      0.00000     0.32267    0.00173     0.32440
      H   32    0.17765      0.00000     0.32051    0.00184     0.32235
 =======================================================================
   * Total *   -0.00000     15.99383    42.80550    0.20067    59.00000

 Normal termination of Gaussian 16 at Fri Dec 11 01:45:42 2020.
