 Gaussian 16, Revision A.03,

 -----------------------------------------------------------
 # opt freq B3LYP/6-31G(d) empiricaldispersion=gd3bj scf=xqc
 -----------------------------------------------------------

 -------------------------------
 CID_104532767_JID_2979_neutraal
 -------------------------------
 Symbolic Z-matrix:
 Charge =  0 Multiplicity = 1

 SCF Done:  E(RB3LYP) =  -552.169369362     A.U. after   13 cycles
 SCF Done:  E(RB3LYP) =  -552.173779764     A.U. after   12 cycles
 SCF Done:  E(RB3LYP) =  -552.174247437     A.U. after   11 cycles
 SCF Done:  E(RB3LYP) =  -552.174465320     A.U. after   12 cycles
 SCF Done:  E(RB3LYP) =  -552.174815608     A.U. after   12 cycles
 SCF Done:  E(RB3LYP) =  -552.171734478     A.U. after   14 cycles
 SCF Done:  E(RB3LYP) =  -552.175136943     A.U. after   12 cycles
 SCF Done:  E(RB3LYP) =  -552.175544085     A.U. after   11 cycles
 SCF Done:  E(RB3LYP) =  -552.175748604     A.U. after   10 cycles
 SCF Done:  E(RB3LYP) =  -552.175819493     A.U. after   11 cycles
 SCF Done:  E(RB3LYP) =  -552.175850939     A.U. after    8 cycles
 SCF Done:  E(RB3LYP) =  -552.175851413     A.U. after    8 cycles
 SCF Done:  E(RB3LYP) =  -552.175851950     A.U. after    8 cycles
 SCF Done:  E(RB3LYP) =  -552.175852101     A.U. after    7 cycles
 SCF Done:  E(RB3LYP) =  -552.175852159     A.U. after    7 cycles
 Optimization completed.
    -- Stationary point found.
 Normal termination of Gaussian 16 at Wed Dec  9 18:21:32 2020.

 --------------------------------------------------------------------
 #N Geom=AllCheck Guess=TCheck SCRF=Check GenChk RB3LYP/6-31G(d) Freq
 --------------------------------------------------------------------

 Structure from the checkpoint file:  "JID_2979.chk"
 -------------------------------
 CID_104532767_JID_2979_neutraal
 -------------------------------
 Charge =  0 Multiplicity = 1

 SCF Done:  E(RB3LYP) =  -552.175852159     A.U. after    1 cycles

  Exact polarizability: 150.199  -7.613 103.082 -14.930  -8.306  69.024
 Approx polarizability: 212.208  -8.408 176.465 -26.862 -20.047 100.683

                      1                      2                      3
                      A                      A                      A
 Frequencies --     35.5273                41.0796               113.2438
 Red. masses --      4.1487                 5.4258                 3.5707
 Frc consts  --      0.0031                 0.0054                 0.0270
 IR Inten    --      2.0630                 3.1641                 3.4116

                      4                      5                      6
                      A                      A                      A
 Frequencies --    165.2782               181.8417               213.1936
 Red. masses --      4.7516                 2.3737                 2.9160
 Frc consts  --      0.0765                 0.0462                 0.0781
 IR Inten    --      8.6714                 3.1640                 2.0662

                      7                      8                      9
                      A                      A                      A
 Frequencies --    239.1801               284.4876               295.8252
 Red. masses --      3.1746                 2.8141                 1.0639
 Frc consts  --      0.1070                 0.1342                 0.0549
 IR Inten    --      3.6996                 5.2209                17.7494

                     10                     11                     12
                      A                      A                      A
 Frequencies --    314.9565               394.4540               460.3355
 Red. masses --      3.0664                 2.8544                 2.6860
 Frc consts  --      0.1792                 0.2617                 0.3354
 IR Inten    --      2.5228                 3.0884                17.0068

                     13                     14                     15
                      A                      A                      A
 Frequencies --    474.3688               506.2590               553.6777
 Red. masses --      3.4650                 2.2204                 6.2240
 Frc consts  --      0.4594                 0.3353                 1.1242
 IR Inten    --     20.6017               106.5243                19.6163

                     16                     17                     18
                      A                      A                      A
 Frequencies --    574.4988               581.8867               597.5411
 Red. masses --      1.5579                 1.6057                 1.7175
 Frc consts  --      0.3030                 0.3203                 0.3613
 IR Inten    --     53.1584                15.1578               274.5232

                     19                     20                     21
                      A                      A                      A
 Frequencies --    652.4703               703.5741               722.2791
 Red. masses --      2.6274                 4.1280                 2.2972
 Frc consts  --      0.6590                 1.2040                 0.7061
 IR Inten    --    137.6220                19.0364                 4.6039

                     22                     23                     24
                      A                      A                      A
 Frequencies --    751.9575               799.9544               848.4963
 Red. masses --      1.7820                 1.8790                 3.2796
 Frc consts  --      0.5937                 0.7085                 1.3911
 IR Inten    --      9.6704                12.7780                11.7163

                     25                     26                     27
                      A                      A                      A
 Frequencies --    848.8638               861.2574               890.2191
 Red. masses --      1.5597                 1.4952                 1.4545
 Frc consts  --      0.6622                 0.6534                 0.6791
 IR Inten    --     44.9739                23.2912                 0.4725

                     28                     29                     30
                      A                      A                      A
 Frequencies --    953.0927               981.7402              1015.8466
 Red. masses --      2.3461                 1.9374                 2.1496
 Frc consts  --      1.2557                 1.1002                 1.3070
 IR Inten    --     11.2651                 6.2249                21.6812

                     31                     32                     33
                      A                      A                      A
 Frequencies --   1031.1977              1079.6341              1117.6154
 Red. masses --      4.9663                 2.3108                 1.8596
 Frc consts  --      3.1115                 1.5870                 1.3686
 IR Inten    --      1.7444                91.6320                12.0504

                     34                     35                     36
                      A                      A                      A
 Frequencies --   1126.3240              1148.2796              1219.6527
 Red. masses --      2.0573                 2.2384                 1.2601
 Frc consts  --      1.5377                 1.7390                 1.1044
 IR Inten    --      5.8313                 9.4400                 1.5139

                     37                     38                     39
                      A                      A                      A
 Frequencies --   1223.5063              1248.0826              1272.1012
 Red. masses --      1.7374                 1.8259                 1.3095
 Frc consts  --      1.5323                 1.6757                 1.2485
 IR Inten    --     15.9274               131.3053                 4.0987

                     40                     41                     42
                      A                      A                      A
 Frequencies --   1317.9750              1328.5404              1367.9820
 Red. masses --      1.8291                 1.6966                 1.6662
 Frc consts  --      1.8720                 1.7643                 1.8372
 IR Inten    --     13.6508                65.1745                53.9180

                     43                     44                     45
                      A                      A                      A
 Frequencies --   1381.4887              1395.7500              1409.3954
 Red. masses --      1.8203                 1.4212                 1.3444
 Frc consts  --      2.0468                 1.6312                 1.5734
 IR Inten    --     15.0907                 2.9865                 3.6177

                     46                     47                     48
                      A                      A                      A
 Frequencies --   1430.3107              1445.3104              1478.3342
 Red. masses --      1.2698                 1.2744                 1.8069
 Frc consts  --      1.5306                 1.5685                 2.3266
 IR Inten    --     65.2074                47.8574                11.1508

                     49                     50                     51
                      A                      A                      A
 Frequencies --   1513.8016              1520.3779              1532.8848
 Red. masses --      1.3776                 1.5700                 1.1591
 Frc consts  --      1.8600                 2.1383                 1.6047
 IR Inten    --     31.4908                28.6828                12.5430

                     52                     53                     54
                      A                      A                      A
 Frequencies --   1536.7655              1559.7139              1627.4961
 Red. masses --      1.0945                 2.1451                 4.6504
 Frc consts  --      1.5229                 3.0746                 7.2573
 IR Inten    --      1.7465                30.9430                 1.2263

                     55                     56                     57
                      A                      A                      A
 Frequencies --   1662.0867              1694.7776              3015.6189
 Red. masses --      4.5027                 1.2200                 1.0715
 Frc consts  --      7.3288                 2.0647                 5.7412
 IR Inten    --    158.9965               116.0918                50.5686

                     58                     59                     60
                      A                      A                      A
 Frequencies --   3022.7908              3057.4916              3090.3534
 Red. masses --      1.0690                 1.0614                 1.0989
 Frc consts  --      5.7552                 5.8461                 6.1836
 IR Inten    --     40.7110                25.4648                14.2174

                     61                     62                     63
                      A                      A                      A
 Frequencies --   3102.7266              3117.9315              3151.7253
 Red. masses --      1.0983                 1.0958                 1.0894
 Frc consts  --      6.2295                 6.2763                 6.3759
 IR Inten    --     61.4022                51.0568                36.2561

                     64                     65                     66
                      A                      A                      A
 Frequencies --   3164.2842              3220.2671              3551.2036
 Red. masses --      1.0901                 1.0888                 1.0478
 Frc consts  --      6.4308                 6.6525                 7.7854
 IR Inten    --     15.2550                18.2632                14.4521

                     67                     68                     69
                      A                      A                      A
 Frequencies --   3557.6778              3649.2058              3691.0022
 Red. masses --      1.0755                 1.0983                 1.0648
 Frc consts  --      8.0204                 8.6170                 8.5468
 IR Inten    --      7.2072                 9.9027                65.2091

 - Thermochemistry -
 -------------------
 Temperature   298.150 Kelvin.  Pressure   1.00000 Atm.
 Atom     1 has atomic number  6 and mass  12.00000

 Molecular mass:   167.10586 amu.
 Principal axes and moments of inertia in atomic units:
                           1         2         3
     Eigenvalues --   940.423853691.345084033.29150
           X            0.99978  -0.01982  -0.00687
           Y            0.01973   0.99973  -0.01267
           Z            0.00712   0.01253   0.99990
 This molecule is an asymmetric top.
 Rotational symmetry number  1.
 Warning -- assumption of classical behavior for rotation
           may cause significant error
 Rotational temperatures (Kelvin)      0.09210     0.02346     0.02147
 Rotational constants (GHZ):           1.91907     0.48891     0.44746
 Zero-point vibrational energy     562956.9 (Joules/Mol)
                                  134.54994 (Kcal/Mol)
 Warning -- explicit consideration of  18 degrees of freedom as
           vibrations may cause significant error
 Vibrational temperatures:     51.12    59.10   162.93   237.80   261.63
          (Kelvin)            306.74   344.13   409.31   425.63   453.15
                              567.53   662.32   682.51   728.39   796.62
                              826.58   837.21   859.73   938.76  1012.29
                             1039.20  1081.90  1150.96  1220.80  1221.33
                             1239.16  1280.83  1371.29  1412.51  1461.58
                             1483.66  1553.35  1608.00  1620.53  1652.12
                             1754.81  1760.35  1795.71  1830.27  1896.27
                             1911.47  1968.22  1987.65  2008.17  2027.81
                             2057.90  2079.48  2126.99  2178.02  2187.48
                             2205.48  2211.06  2244.08  2341.60  2391.37
                             2438.41  4338.80  4349.12  4399.05  4446.33
                             4464.13  4486.01  4534.63  4552.70  4633.25
                             5109.39  5118.70  5250.39  5310.53

 Zero-point correction=                           0.214419 (Hartree/Particle)
 Thermal correction to Energy=                    0.226093
 Thermal correction to Enthalpy=                  0.227037
 Thermal correction to Gibbs Free Energy=         0.176093
 Sum of electronic and zero-point Energies=           -551.961433
 Sum of electronic and thermal Energies=              -551.949759
 Sum of electronic and thermal Enthalpies=            -551.948815
 Sum of electronic and thermal Free Energies=         -551.999759

                     E (Thermal)             CV                S
                      KCal/Mol        Cal/Mol-Kelvin    Cal/Mol-Kelvin
 Total                  141.876             44.825            107.221
 Electronic               0.000              0.000              0.000
 Translational            0.889              2.981             41.249
 Rotational               0.889              2.981             31.016
 Vibrational            140.098             38.863             34.957
 Vibration     1          0.594              1.982              5.494
 Vibration     2          0.594              1.981              5.206
 Vibration     3          0.607              1.938              3.213
 Vibration     4          0.624              1.885              2.489
 Vibration     5          0.630              1.864              2.309
 Vibration     6          0.644              1.821              2.016
 Vibration     7          0.657              1.781              1.809
 Vibration     8          0.683              1.702              1.507
 Vibration     9          0.690              1.682              1.440
 Vibration    10          0.702              1.645              1.336
 Vibration    11          0.761              1.482              0.983
 Vibration    12          0.818              1.338              0.765
 Vibration    13          0.831              1.307              0.725
 Vibration    14          0.861              1.236              0.643
 Vibration    15          0.909              1.132              0.537
 Vibration    16          0.931              1.086              0.496
 Vibration    17          0.939              1.070              0.482
 Vibration    18          0.955              1.037              0.454

 Optimization completed.
    -- Stationary point found.
 Normal termination of Gaussian 16 at Wed Dec  9 18:27:12 2020.

 ----------------------------------------------------------------------
 # B3LYP/6-311++G(d,p) empiricaldispersion=gd3bj scf=xqc pop=npa geom=c
 heck
 ----------------------------------------------------------------------

 ---------------------------------------
 CID_104532767_JID_2979_Energie_neutraal
 ---------------------------------------
 Structure from the checkpoint file:  "JID_2979.chk"
 Charge =  0 Multiplicity = 1

 SCF Done:  E(RB3LYP) =  -552.348685653     A.U. after   14 cycles
 Normal termination of Gaussian 16 at Wed Dec  9 18:29:06 2020.

 ----------------------------------------------------------------------
 # B3LYP/6-311++G(d,p) empiricaldispersion=gd3bj scf=xqc pop=npa geom=c
 heck
 ----------------------------------------------------------------------

 -------------------------------------
 CID_104532767_JID_2979_Energie_kation
 -------------------------------------
 Structure from the checkpoint file:  "JID_2979.chk"
 Charge =  1 Multiplicity = 2

 SCF Done:  E(UB3LYP) =  -552.064162273     A.U. after   22 cycles
 Normal termination of Gaussian 16 at Wed Dec  9 18:32:55 2020.
 Gaussian 16:  ES64L-G16RevA.03 25-Dec-2016

 ----------------------------------------------------------------------
 # B3LYP/6-311++G(d,p) empiricaldispersion=gd3bj scf=xqc pop=npa geom=c
 heck
 ----------------------------------------------------------------------

 ------------------------------------
 CID_104532767_JID_2979_Energie_anion
 ------------------------------------
 Structure from the checkpoint file:  "JID_2979.chk"
 Charge = -1 Multiplicity = 2

                         Standard orientation:
 ---------------------------------------------------------------------
 Center     Atomic      Atomic             Coordinates (Angstroms)
 Number     Number       Type             X           Y           Z
 ---------------------------------------------------------------------
      1          6           0        1.426114   -0.901653    0.374342
      2          6           0        2.647557   -0.408575   -0.084710
      3          6           0        2.704739    0.952725   -0.446160
      4          7           0        1.661799    1.770411   -0.361202
      5          6           0        0.494949    1.293800    0.085985
      6          6           0        0.319333   -0.046765    0.467827
      7          7           0       -0.908096   -0.566354    0.902237
      8          6           0       -2.033874    0.310576    1.252082
      9          6           0       -2.792682    0.878448    0.034267
     10          6           0       -2.798745   -0.076292   -1.164845
     11          8           0       -3.153337   -1.404355   -0.803216
     12          7           0        3.788164   -1.208225   -0.136247
     13          1           0        1.328748   -1.948387    0.657493
     14          1           0        3.639724    1.379409   -0.809041
     15          1           0       -0.321329    2.004825    0.144039
     16          1           0       -0.776876   -1.302849    1.586131
     17          1           0       -2.723786   -0.318888    1.819520
     18          1           0       -1.717417    1.128953    1.916113
     19          1           0       -3.821875    1.078552    0.355245
     20          1           0       -2.371270    1.838164   -0.286497
     21          1           0       -3.536195    0.257598   -1.901864
     22          1           0       -1.813491   -0.055410   -1.652942
     23          1           0       -2.374099   -1.731904   -0.321629
     24          1           0        4.503209   -0.880923   -0.774128
     25          1           0        3.613945   -2.198714   -0.252958
 ---------------------------------------------------------------------

 SCF Done:  E(UB3LYP) =  -552.340308844     A.U. after   33 cycles
 SCF Done:  E(UB3LYP) =  -552.340308844     a.u. after    1 cycles

 The electronic state is 2-A.
 Alpha  occ. eigenvalues --  -19.01785 -14.22945 -14.21510 -14.20685 -10.11986
 Alpha  occ. eigenvalues --  -10.11738 -10.11651 -10.11120 -10.08911 -10.08817
 Alpha  occ. eigenvalues --  -10.07968 -10.07089  -0.92198  -0.85222  -0.82833
 Alpha  occ. eigenvalues --   -0.80605  -0.69498  -0.66313  -0.63777  -0.58424
 Alpha  occ. eigenvalues --   -0.53589  -0.52005  -0.48747  -0.44292  -0.42504
 Alpha  occ. eigenvalues --   -0.41309  -0.39816  -0.38273  -0.38091  -0.36075
 Alpha  occ. eigenvalues --   -0.33790  -0.33149  -0.31476  -0.29981  -0.29687
 Alpha  occ. eigenvalues --   -0.29152  -0.27192  -0.26264  -0.24129  -0.23191
 Alpha  occ. eigenvalues --   -0.21533  -0.17730  -0.15671  -0.12901  -0.10902
 Alpha  occ. eigenvalues --    0.04236
 Alpha virt. eigenvalues --    0.06119   0.07221   0.07476   0.08370   0.09093
 Alpha virt. eigenvalues --    0.09251   0.10444   0.10776   0.11311   0.11553
 Alpha virt. eigenvalues --    0.12152   0.12952   0.13786   0.14810   0.15672

  Beta  occ. eigenvalues --  -19.01772 -14.22903 -14.21438 -14.20684 -10.11981
  Beta  occ. eigenvalues --  -10.11739 -10.11649 -10.11096 -10.08898 -10.08808
  Beta  occ. eigenvalues --  -10.07964 -10.07055  -0.92172  -0.85191  -0.82781
  Beta  occ. eigenvalues --   -0.80534  -0.69463  -0.66266  -0.63730  -0.58379
  Beta  occ. eigenvalues --   -0.53528  -0.51965  -0.48688  -0.44225  -0.42453
  Beta  occ. eigenvalues --   -0.41265  -0.39749  -0.38244  -0.38010  -0.36015
  Beta  occ. eigenvalues --   -0.33754  -0.33109  -0.31456  -0.29924  -0.29664
  Beta  occ. eigenvalues --   -0.29130  -0.27159  -0.26228  -0.24100  -0.23164
  Beta  occ. eigenvalues --   -0.21512  -0.17712  -0.15657  -0.12850  -0.10869
  Beta virt. eigenvalues --    0.06725   0.07394   0.07520   0.08098   0.08779
  Beta virt. eigenvalues --    0.09463   0.09862   0.10556   0.11038   0.11619
  Beta virt. eigenvalues --    0.12044   0.12676   0.13001   0.13942   0.15472

 Mulliken charges and spin densities:
               1          2
     1  C   -3.398740   4.416676
     2  C    2.469492  -2.959135
     3  C   -0.741683   0.544627
     4  N   -0.021456   0.008377
     5  C    0.213178  -0.906721
     6  C    2.672293  -3.194604
     7  N   -0.450463   0.272082
     8  C    1.118059  -1.521564
     9  C   -0.444339   0.415803
    10  C   -0.178239  -0.301074
    11  O   -0.285820   0.025925
    12  N   -0.295834  -0.006956
    13  H   -1.152097   1.346559
    14  H   -0.116542   0.283654
    15  H    0.233954  -0.052393
    16  H   -0.265357   0.573067
    17  H   -0.395477   0.588781
    18  H    0.024983   0.125927
    19  H    0.065107   0.097951
    20  H    0.061631   0.026912
    21  H    0.086276   0.068236
    22  H    0.121502   0.047381
    23  H    0.222254   0.057594
    24  H   -0.193018   0.436835
    25  H   -0.349665   0.606060
 Sum of Mulliken charges =  -1.00000   1.00000

 Dipole moment (field-independent basis, Debye):
    X=             -4.5116    Y=              6.3350    Z=             -1.4315  Tot=              7.9080
 Quadrupole moment (field-independent basis, Debye-Ang):
   XX=           -142.9881   YY=           -118.7714   ZZ=           -102.4947
   XY=              1.4629   XZ=              5.2236   YZ=              3.9660

 Summary of Natural Population Analysis:

                                       Natural Population
                Natural  -----------------------------------------------
    Atom  No    Charge         Core      Valence    Rydberg      Total
 -----------------------------------------------------------------------
      C    1   -0.12447      0.99948     2.11418    0.01081     3.12447
      C    2    0.07577      0.99950     1.91298    0.01175     2.92423
      C    3   -0.01108      0.99955     1.99622    0.01532     3.01108
      N    4   -0.22133      0.99971     2.71113    0.01048     3.72133
      C    5   -0.02626      0.99954     2.01366    0.01306     3.02626
      C    6    0.07837      0.99948     1.90971    0.01243     2.92163
      N    7   -0.33349      0.99968     2.81879    0.01501     3.83349
      C    8   -0.09356      0.99962     2.08037    0.01357     3.09356
      C    9   -0.20795      0.99963     2.19997    0.00835     3.20795
      C   10   -0.01265      0.99960     2.00063    0.01241     3.01265
      O   11   -0.37595      0.99990     3.36948    0.00656     4.37595
      N   12   -0.39227      0.99972     2.88190    0.01066     3.89227
      H   13    0.10622      0.00000     0.39006    0.00372     0.39378
      H   14    0.08705      0.00000     0.41158    0.00137     0.41295
      H   15    0.08811      0.00000     0.40993    0.00196     0.41189
      H   16    0.19502      0.00000     0.29648    0.00850     0.30498
      H   17    0.10372      0.00000     0.39447    0.00181     0.39628
      H   18    0.09026      0.00000     0.40841    0.00133     0.40974
      H   19    0.09812      0.00000     0.40082    0.00106     0.40188
      H   20    0.09581      0.00000     0.40312    0.00107     0.40419
      H   21    0.08286      0.00000     0.41606    0.00108     0.41714
      H   22    0.08168      0.00000     0.41698    0.00134     0.41832
      H   23    0.23641      0.00000     0.26004    0.00355     0.26359
      H   24    0.18755      0.00000     0.30823    0.00422     0.31245
      H   25    0.19205      0.00000     0.29908    0.00887     0.30795
 =======================================================================
   * Total *    0.00000     11.99540    32.82431    0.18029    45.00000

 Normal termination of Gaussian 16 at Wed Dec  9 18:38:31 2020.
