 Gaussian 16, Revision A.03,

 -----------------------------------------------------------
 # opt freq B3LYP/6-31G(d) empiricaldispersion=gd3bj scf=xqc
 -----------------------------------------------------------

 ------------------------------
 CID_65928215_JID_3163_neutraal
 ------------------------------
 Symbolic Z-matrix:
 Charge =  0 Multiplicity = 1

 SCF Done:  E(RB3LYP) =  -613.785171742     A.U. after   14 cycles
 SCF Done:  E(RB3LYP) =  -613.790591572     A.U. after   12 cycles
 SCF Done:  E(RB3LYP) =  -613.791497896     A.U. after   12 cycles
 SCF Done:  E(RB3LYP) =  -613.792000960     A.U. after   12 cycles
 SCF Done:  E(RB3LYP) =  -613.792593448     A.U. after   11 cycles
 SCF Done:  E(RB3LYP) =  -613.792787625     A.U. after   11 cycles
 SCF Done:  E(RB3LYP) =  -613.793004039     A.U. after   11 cycles
 SCF Done:  E(RB3LYP) =  -613.793122015     A.U. after   11 cycles
 SCF Done:  E(RB3LYP) =  -613.793154186     A.U. after    9 cycles
 SCF Done:  E(RB3LYP) =  -613.793160399     A.U. after   10 cycles
 SCF Done:  E(RB3LYP) =  -613.793583930     A.U. after   11 cycles
 SCF Done:  E(RB3LYP) =  -613.793624858     A.U. after   11 cycles
 SCF Done:  E(RB3LYP) =  -613.793629246     A.U. after    9 cycles
 SCF Done:  E(RB3LYP) =  -613.793630549     A.U. after    9 cycles
 SCF Done:  E(RB3LYP) =  -613.793632651     A.U. after    8 cycles
 SCF Done:  E(RB3LYP) =  -613.793632861     A.U. after    7 cycles
 Optimization completed.
    -- Stationary point found.
 Normal termination of Gaussian 16 at Wed Dec  9 22:36:43 2020.

 --------------------------------------------------------------------
 #N Geom=AllCheck Guess=TCheck SCRF=Check GenChk RB3LYP/6-31G(d) Freq
 --------------------------------------------------------------------

 Structure from the checkpoint file:  "JID_3163.chk"
 ------------------------------
 CID_65928215_JID_3163_neutraal
 ------------------------------
 Charge =  0 Multiplicity = 1

 SCF Done:  E(RB3LYP) =  -613.793632861     A.U. after    1 cycles

  Exact polarizability: 144.624   1.366  97.915  -0.882  -1.112  98.471
 Approx polarizability: 164.838  -0.955 139.241   2.828  -7.910 153.443

                      1                      2                      3
                      A                      A                      A
 Frequencies --     26.9662                58.6693                75.6359
 Red. masses --      3.6262                 3.2007                 3.4529
 Frc consts  --      0.0016                 0.0065                 0.0116
 IR Inten    --      0.2870                 0.4425                 3.1165

                      4                      5                      6
                      A                      A                      A
 Frequencies --     85.9904               124.9665               136.2711
 Red. masses --      3.2478                 2.6877                 3.7860
 Frc consts  --      0.0141                 0.0247                 0.0414
 IR Inten    --      0.9062                 0.2493                 1.0472

                      7                      8                      9
                      A                      A                      A
 Frequencies --    154.3335               213.8171               228.0359
 Red. masses --      3.2058                 1.7326                 2.6498
 Frc consts  --      0.0450                 0.0467                 0.0812
 IR Inten    --      5.2067                 0.8024                 7.3258

                     10                     11                     12
                      A                      A                      A
 Frequencies --    234.4884               250.6342               261.4388
 Red. masses --      1.1706                 1.0903                 1.5551
 Frc consts  --      0.0379                 0.0404                 0.0626
 IR Inten    --      0.7963                 0.1165                16.9460

                     13                     14                     15
                      A                      A                      A
 Frequencies --    282.9486               320.2126               344.0085
 Red. masses --      1.7933                 1.7429                 2.4223
 Frc consts  --      0.0846                 0.1053                 0.1689
 IR Inten    --     36.2296                13.8942                 3.6990

                     16                     17                     18
                      A                      A                      A
 Frequencies --    363.8671               413.5758               419.8376
 Red. masses --      2.2059                 2.2904                 3.4480
 Frc consts  --      0.1721                 0.2308                 0.3581
 IR Inten    --      8.3927                 3.5691                 3.1222

                     19                     20                     21
                      A                      A                      A
 Frequencies --    440.8531               463.5589               532.9039
 Red. masses --      2.7386                 3.0435                 2.6961
 Frc consts  --      0.3136                 0.3853                 0.4511
 IR Inten    --      7.1314                 0.5840                 3.1948

                     22                     23                     24
                      A                      A                      A
 Frequencies --    578.3891               693.8499               764.3308
 Red. masses --      3.8671                 3.2053                10.0536
 Frc consts  --      0.7622                 0.9092                 3.4605
 IR Inten    --      9.0485                 5.3454                23.9947

                     25                     26                     27
                      A                      A                      A
 Frequencies --    797.1731               809.0163               815.5303
 Red. masses --      1.2255                 5.9372                 3.1802
 Frc consts  --      0.4589                 2.2895                 1.2462
 IR Inten    --      0.5778                 2.2166                 2.9905

                     28                     29                     30
                      A                      A                      A
 Frequencies --    863.6758               890.1797               924.7810
 Red. masses --      1.6238                 1.8412                 2.5954
 Frc consts  --      0.7136                 0.8596                 1.3078
 IR Inten    --    116.9611                14.0039                 3.0631

                     31                     32                     33
                      A                      A                      A
 Frequencies --    947.2865               956.0605               957.2515
 Red. masses --      1.2192                 1.3943                 1.7932
 Frc consts  --      0.6446                 0.7509                 0.9681
 IR Inten    --      1.7046                 0.4248                12.7080

                     34                     35                     36
                      A                      A                      A
 Frequencies --    970.0031               986.2574              1015.5951
 Red. masses --      2.5334                 1.9353                 1.7156
 Frc consts  --      1.4044                 1.1091                 1.0426
 IR Inten    --     19.5328                53.5263                 2.2519

                     37                     38                     39
                      A                      A                      A
 Frequencies --   1059.7233              1087.6095              1137.4413
 Red. masses --      1.7951                 1.9403                 2.3806
 Frc consts  --      1.1877                 1.3523                 1.8146
 IR Inten    --      8.9739                 8.0321                58.6733

                     40                     41                     42
                      A                      A                      A
 Frequencies --   1140.6320              1168.9923              1172.6808
 Red. masses --      1.0731                 1.6910                 2.1293
 Frc consts  --      0.8226                 1.3615                 1.7252
 IR Inten    --      1.5422                38.2937                11.3465

                     43                     44                     45
                      A                      A                      A
 Frequencies --   1178.2369              1194.0316              1205.0473
 Red. masses --      1.9023                 2.2675                 4.2138
 Frc consts  --      1.5559                 1.9047                 3.6053
 IR Inten    --     96.3329               233.5843                49.1469

                     46                     47                     48
                      A                      A                      A
 Frequencies --   1220.9539              1271.6951              1295.3013
 Red. masses --      2.0149                 1.9069                 1.6299
 Frc consts  --      1.7697                 1.8170                 1.6112
 IR Inten    --      6.6186                22.8989                 1.5911

                     49                     50                     51
                      A                      A                      A
 Frequencies --   1318.9642              1347.9793              1369.9707
 Red. masses --      1.3308                 1.6297                 1.6763
 Frc consts  --      1.3641                 1.7447                 1.8536
 IR Inten    --     13.0638                 9.0342                 2.6264

                     52                     53                     54
                      A                      A                      A
 Frequencies --   1389.8666              1401.2584              1417.4920
 Red. masses --      1.2971                 1.7061                 1.7062
 Frc consts  --      1.4763                 1.9737                 2.0199
 IR Inten    --      2.6378               193.0665                 0.6282

                     55                     56                     57
                      A                      A                      A
 Frequencies --   1426.4636              1439.4348              1442.0298
 Red. masses --      1.3588                 1.2678                 1.2808
 Frc consts  --      1.6290                 1.5477                 1.5692
 IR Inten    --     20.8195                88.0459                17.2794

                     58                     59                     60
                      A                      A                      A
 Frequencies --   1455.2186              1509.2514              1510.2548
 Red. masses --      3.2435                 1.0462                 1.0739
 Frc consts  --      4.0469                 1.4041                 1.4432
 IR Inten    --    417.6927                 0.0138                 1.8468

                     61                     62                     63
                      A                      A                      A
 Frequencies --   1520.6205              1530.8299              1531.2066
 Red. masses --      1.0513                 1.0523                 1.0493
 Frc consts  --      1.4323                 1.4529                 1.4494
 IR Inten    --     25.8885                 3.9326                 0.0294

                     64                     65                     66
                      A                      A                      A
 Frequencies --   1533.3605              1540.8761              1551.1018
 Red. masses --      1.0802                 1.0505                 1.0601
 Frc consts  --      1.4964                 1.4695                 1.5027
 IR Inten    --      0.0285                 4.7806                20.6082

                     67                     68                     69
                      A                      A                      A
 Frequencies --   1552.6798              1701.7874              1794.7062
 Red. masses --      1.1105                 1.0957                11.0165
 Frc consts  --      1.5774                 1.8696                20.9065
 IR Inten    --      7.9265                39.8300               376.3987

                     70                     71                     72
                      A                      A                      A
 Frequencies --   3039.8548              3046.7419              3049.4438
 Red. masses --      1.0585                 1.0511                 1.0458
 Frc consts  --      5.7630                 5.7486                 5.7297
 IR Inten    --     49.1653                12.9149                37.2625

                     73                     74                     75
                      A                      A                      A
 Frequencies --   3051.0910              3058.6510              3062.3398
 Red. masses --      1.0620                 1.0382                 1.0421
 Frc consts  --      5.8247                 5.7228                 5.7577
 IR Inten    --     21.4532                24.3167                12.7604

                     76                     77                     78
                      A                      A                      A
 Frequencies --   3078.6266              3085.2654              3097.1950
 Red. masses --      1.0825                 1.1031                 1.1055
 Frc consts  --      6.0448                 6.1868                 6.2481
 IR Inten    --     36.3513                 5.5884                30.0340

                     79                     80                     81
                      A                      A                      A
 Frequencies --   3103.8559              3115.2769              3120.1268
 Red. masses --      1.1070                 1.1032                 1.1008
 Frc consts  --      6.2834                 6.3080                 6.3138
 IR Inten    --     33.2487                54.9886                33.0610

                     82                     83                     84
                      A                      A                      A
 Frequencies --   3121.1494              3124.6594              3168.4734
 Red. masses --      1.1019                 1.1019                 1.1004
 Frc consts  --      6.3243                 6.3387                 6.5089
 IR Inten    --     20.5716                42.7832                 1.4307

                     85                     86                     87
                      A                      A                      A
 Frequencies --   3172.5734              3472.3418              3556.1524
 Red. masses --      1.0998                 1.0497                 1.0920
 Frc consts  --      6.5219                 7.4567                 8.1363
 IR Inten    --     18.2911                 0.9132                 0.3791

 - Thermochemistry -
 -------------------
 Temperature   298.150 Kelvin.  Pressure   1.00000 Atm.
 Atom     1 has atomic number  6 and mass  12.00000

 Molecular mass:   186.13683 amu.
 Principal axes and moments of inertia in atomic units:
                           1         2         3
     Eigenvalues --   871.921705253.230705379.02559
           X            0.99997   0.00763  -0.00243
           Y           -0.00727   0.99250   0.12202
           Z            0.00334  -0.12200   0.99252
 This molecule is an asymmetric top.
 Rotational symmetry number  1.
 Warning -- assumption of classical behavior for rotation
           may cause significant error
 Rotational temperatures (Kelvin)      0.09934     0.01649     0.01610
 Rotational constants (GHZ):           2.06984     0.34355     0.33551
 Zero-point vibrational energy     719816.4 (Joules/Mol)
                                  172.04026 (Kcal/Mol)
 Warning -- explicit consideration of  22 degrees of freedom as
           vibrations may cause significant error
 Vibrational temperatures:     38.80    84.41   108.82   123.72   179.80
          (Kelvin)            196.06   222.05   307.64   328.09   337.38
                              360.61   376.15   407.10   460.71   494.95
                              523.52   595.04   604.05   634.29   666.96
                              766.73   832.17   998.30  1099.70  1146.95
                             1163.99  1173.37  1242.64  1280.77  1330.55
                             1362.93  1375.56  1377.27  1395.62  1419.00
                             1461.21  1524.71  1564.83  1636.52  1641.12
                             1681.92  1687.23  1695.22  1717.95  1733.79
                             1756.68  1829.69  1863.65  1897.70  1939.44
                             1971.08  1999.71  2016.10  2039.45  2052.36
                             2071.03  2074.76  2093.73  2171.48  2172.92
                             2187.83  2202.52  2203.06  2206.16  2216.98
                             2231.69  2233.96  2448.49  2582.18  4373.67
                             4383.58  4387.47  4389.84  4400.72  4406.02
                             4429.46  4439.01  4456.17  4465.76  4482.19
                             4489.17  4490.64  4495.69  4558.73  4564.63
                             4995.93  5116.51

 Zero-point correction=                           0.274164 (Hartree/Particle)
 Thermal correction to Energy=                    0.288983
 Thermal correction to Enthalpy=                  0.289927
 Thermal correction to Gibbs Free Energy=         0.232099
 Sum of electronic and zero-point Energies=           -613.519469
 Sum of electronic and thermal Energies=              -613.504650
 Sum of electronic and thermal Enthalpies=            -613.503706
 Sum of electronic and thermal Free Energies=         -613.561534

                     E (Thermal)             CV                S
                      KCal/Mol        Cal/Mol-Kelvin    Cal/Mol-Kelvin
 Total                  181.340             54.688            121.709
 Electronic               0.000              0.000              0.000
 Translational            0.889              2.981             41.570
 Rotational               0.889              2.981             31.577
 Vibrational            179.562             48.727             48.562
 Vibration     1          0.593              1.984              6.041
 Vibration     2          0.596              1.974              4.501
 Vibration     3          0.599              1.965              4.001
 Vibration     4          0.601              1.959              3.749
 Vibration     5          0.610              1.928              3.022
 Vibration     6          0.614              1.917              2.856
 Vibration     7          0.620              1.898              2.618
 Vibration     8          0.644              1.820              2.011
 Vibration     9          0.651              1.798              1.894
 Vibration    10          0.654              1.788              1.844
 Vibration    11          0.663              1.762              1.726
 Vibration    12          0.669              1.743              1.652
 Vibration    13          0.682              1.705              1.516
 Vibration    14          0.706              1.635              1.309
 Vibration    15          0.723              1.587              1.193
 Vibration    16          0.737              1.547              1.106
 Vibration    17          0.777              1.441              0.914
 Vibration    18          0.783              1.427              0.893
 Vibration    19          0.801              1.381              0.824
 Vibration    20          0.821              1.331              0.756
 Vibration    21          0.888              1.177              0.581
 Vibration    22          0.935              1.078              0.488

                           ! Non-Optimized Parameters !
 Normal termination of Gaussian 16 at Wed Dec  9 22:44:45 2020.

 ----------------------------------------------------------------------
 # B3LYP/6-311++G(d,p) empiricaldispersion=gd3bj scf=xqc pop=npa geom=c
 heck
 ----------------------------------------------------------------------

 --------------------------------------
 CID_65928215_JID_3163_Energie_neutraal
 --------------------------------------
 Structure from the checkpoint file:  "JID_3163.chk"
 Charge =  0 Multiplicity = 1

 SCF Done:  E(RB3LYP) =  -613.977962121     A.U. after   14 cycles
 Normal termination of Gaussian 16 at Wed Dec  9 22:48:36 2020.

 ----------------------------------------------------------------------
 # B3LYP/6-311++G(d,p) empiricaldispersion=gd3bj scf=xqc pop=npa geom=c
 heck
 ----------------------------------------------------------------------

 ------------------------------------
 CID_65928215_JID_3163_Energie_kation
 ------------------------------------
 Structure from the checkpoint file:  "JID_3163.chk"
 Charge =  1 Multiplicity = 2

 SCF Done:  E(UB3LYP) =  -613.661079226     A.U. after   25 cycles
 Normal termination of Gaussian 16 at Wed Dec  9 22:58:20 2020.
 Gaussian 16:  ES64L-G16RevA.03 25-Dec-2016

 ----------------------------------------------------------------------
 # B3LYP/6-311++G(d,p) empiricaldispersion=gd3bj scf=xqc pop=npa geom=c
 heck
 ----------------------------------------------------------------------

 -----------------------------------
 CID_65928215_JID_3163_Energie_anion
 -----------------------------------
 Structure from the checkpoint file:  "JID_3163.chk"
 Charge = -1 Multiplicity = 2

                         Standard orientation:
 ---------------------------------------------------------------------
 Center     Atomic      Atomic             Coordinates (Angstroms)
 Number     Number       Type             X           Y           Z
 ---------------------------------------------------------------------
      1          6           0       -4.399605   -0.973413    0.112789
      2          6           0       -3.222059   -0.568534   -0.778721
      3          6           0       -2.241996    0.405695   -0.120769
      4          6           0       -1.338658   -0.282321    0.972789
      5          7           0       -0.237428   -0.249383    0.011135
      6          6           0       -0.941860    0.600498   -0.955552
      7          6           0        1.086697   -0.281635    0.330608
      8          8           0        1.517471   -0.690573    1.397490
      9          8           0        1.821028    0.185413   -0.710393
     10          6           0        3.272891    0.196963   -0.603117
     11          6           0        3.746192    1.151090    0.489495
     12          6           0        3.837501   -1.214930   -0.479863
     13          7           0       -2.904757    1.659283    0.192609
     14          1           0       -4.056853   -1.390133    1.067620
     15          1           0       -5.012798   -1.736079   -0.378254
     16          1           0       -5.056470   -0.123124    0.328668
     17          1           0       -2.661212   -1.464488   -1.072764
     18          1           0       -3.595536   -0.103963   -1.699370
     19          1           0       -1.154804    0.340916    1.857814
     20          1           0       -1.621334   -1.288934    1.298677
     21          1           0       -0.956727    0.212946   -1.979363
     22          1           0       -0.580250    1.636429   -0.971106
     23          1           0        3.555739    0.607390   -1.577770
     24          1           0        3.488960    0.767696    1.478236
     25          1           0        4.833621    1.270700    0.425006
     26          1           0        3.286452    2.136507    0.358833
     27          1           0        3.440057   -1.853842   -1.275348
     28          1           0        4.928319   -1.182182   -0.580157
     29          1           0        3.582525   -1.652438    0.486769
     30          1           0       -3.670534    1.501978    0.845028
     31          1           0       -2.256473    2.292124    0.658539
 ---------------------------------------------------------------------

 SCF Done:  E(UB3LYP) =  -613.965566675     A.U. after   29 cycles

 The electronic state is 2-A.
 Alpha  occ. eigenvalues --  -19.05999 -18.99393 -14.23647 -14.19931 -10.21497
 Alpha  occ. eigenvalues --  -10.14054 -10.11913 -10.10773 -10.10307 -10.07375
 Alpha  occ. eigenvalues --  -10.06776 -10.06609 -10.06579  -1.00383  -0.91515
 Alpha  occ. eigenvalues --   -0.86684  -0.79115  -0.70330  -0.67746  -0.63803
 Alpha  occ. eigenvalues --   -0.60112  -0.60050  -0.55190  -0.52798  -0.45889
 Alpha  occ. eigenvalues --   -0.44585  -0.41526  -0.41125  -0.39333  -0.38890
 Alpha  occ. eigenvalues --   -0.36588  -0.36299  -0.35016  -0.32988  -0.32159
 Alpha  occ. eigenvalues --   -0.31820  -0.31553  -0.30772  -0.29872  -0.29014
 Alpha  occ. eigenvalues --   -0.28051  -0.27073  -0.26404  -0.25135  -0.24689
 Alpha  occ. eigenvalues --   -0.23824  -0.23292  -0.20237  -0.17602  -0.15412
 Alpha  occ. eigenvalues --   -0.14706   0.04160
 Alpha virt. eigenvalues --    0.05675   0.07117   0.07869   0.08325   0.08643
 Alpha virt. eigenvalues --    0.09002   0.09993   0.10343   0.10738   0.11207
 Alpha virt. eigenvalues --    0.11873   0.12359   0.12727   0.12810   0.13017

  Beta  occ. eigenvalues --  -19.05998 -18.99386 -14.23647 -14.19881 -10.21495
  Beta  occ. eigenvalues --  -10.14042 -10.11912 -10.10757 -10.10282 -10.07359
  Beta  occ. eigenvalues --  -10.06757 -10.06565 -10.06557  -1.00376  -0.91505
  Beta  occ. eigenvalues --   -0.86671  -0.79047  -0.70299  -0.67697  -0.63773
  Beta  occ. eigenvalues --   -0.60070  -0.60007  -0.55124  -0.52748  -0.45825
  Beta  occ. eigenvalues --   -0.44523  -0.41495  -0.41087  -0.39304  -0.38853
  Beta  occ. eigenvalues --   -0.36563  -0.36269  -0.34989  -0.32964  -0.32121
  Beta  occ. eigenvalues --   -0.31774  -0.31530  -0.30745  -0.29841  -0.28988
  Beta  occ. eigenvalues --   -0.28006  -0.27050  -0.26376  -0.25093  -0.24660
  Beta  occ. eigenvalues --   -0.23793  -0.23258  -0.20220  -0.17587  -0.15382
  Beta  occ. eigenvalues --   -0.14675
  Beta virt. eigenvalues --    0.06270   0.06732   0.08018   0.08315   0.08719
  Beta virt. eigenvalues --    0.09093   0.09413   0.10431   0.10784   0.11043
  Beta virt. eigenvalues --    0.11484   0.12044   0.12451   0.12904   0.13043

 Mulliken charges and spin densities:
               1          2
     1  C    1.067028  -1.672411
     2  C   -0.502682   0.188330
     3  C   -0.392169   0.948241
     4  C    0.700471  -1.377534
     5  N   -0.193751   0.100649
     6  C    0.359250  -0.898676
     7  C    0.109053  -0.055956
     8  O   -0.292625   0.000094
     9  O   -0.004832  -0.003144
    10  C   -0.849040   0.912296
    11  C    0.595736  -1.052187
    12  C    0.498579  -0.930455
    13  N   -0.317434  -0.007432
    14  H   -0.129023   0.266245
    15  H   -0.278156   0.422621
    16  H   -0.261009   0.401095
    17  H   -0.077711   0.231018
    18  H   -0.005729   0.171653
    19  H   -0.045988   0.230944
    20  H    0.015947   0.180114
    21  H   -0.019470   0.206309
    22  H   -0.000846   0.174510
    23  H   -0.439216   0.620746
    24  H    0.091718   0.091645
    25  H   -0.227498   0.369718
    26  H   -0.064781   0.201388
    27  H    0.047260   0.082506
    28  H   -0.214500   0.371250
    29  H    0.078114   0.099448
    30  H   -0.081671   0.307216
    31  H   -0.165026   0.419759
 Sum of Mulliken charges =  -1.00000   1.00000

 Dipole moment (field-independent basis, Debye):
    X=              1.8428    Y=             -1.5811    Z=             -0.8124  Tot=              2.5604
 Quadrupole moment (field-independent basis, Debye-Ang):
   XX=           -176.6352   YY=           -118.9395   ZZ=           -114.1189
   XY=             -0.1065   XZ=              4.9400   YZ=              0.2120

 Summary of Natural Population Analysis:

                                       Natural Population
                Natural  -----------------------------------------------
    Atom  No    Charge         Core      Valence    Rydberg      Total
 -----------------------------------------------------------------------
      C    1   -0.28909      0.99966     2.28427    0.00516     3.28909
      C    2   -0.18969      0.99958     2.18181    0.00830     3.18969
      C    3    0.05015      0.99954     1.93396    0.01635     2.94985
      C    4   -0.07918      0.99960     2.06849    0.01110     3.07918
      N    5   -0.26792      0.99964     2.75754    0.01074     3.76792
      C    6   -0.06797      0.99959     2.05890    0.00947     3.06797
      C    7    0.46794      0.99964     1.50795    0.02448     2.53206
      O    8   -0.33470      0.99987     3.32979    0.00503     4.33470
      O    9   -0.29111      0.99986     3.28253    0.00872     4.29111
      C   10    0.06554      0.99956     1.92156    0.01335     2.93446
      C   11   -0.30179      0.99964     2.29618    0.00597     3.30179
      C   12   -0.30236      0.99964     2.29659    0.00613     3.30236
      N   13   -0.42134      0.99974     2.91049    0.01111     3.92134
      H   14    0.09755      0.00000     0.40101    0.00144     0.40245
      H   15    0.10160      0.00000     0.39728    0.00112     0.39840
      H   16    0.09789      0.00000     0.40075    0.00137     0.40211
      H   17    0.09898      0.00000     0.39951    0.00151     0.40102
      H   18    0.10117      0.00000     0.39750    0.00132     0.39883
      H   19    0.09676      0.00000     0.40172    0.00151     0.40324
      H   20    0.09661      0.00000     0.40207    0.00132     0.40339
      H   21    0.09619      0.00000     0.40231    0.00150     0.40381
      H   22    0.09698      0.00000     0.40150    0.00152     0.40302
      H   23    0.09056      0.00000     0.40766    0.00178     0.40944
      H   24    0.11121      0.00000     0.38787    0.00093     0.38879
      H   25    0.10092      0.00000     0.39807    0.00101     0.39908
      H   26    0.10316      0.00000     0.39576    0.00108     0.39684
      H   27    0.10173      0.00000     0.39736    0.00090     0.39827
      H   28    0.10134      0.00000     0.39771    0.00095     0.39866
      H   29    0.11138      0.00000     0.38773    0.00090     0.38862
      H   30    0.17919      0.00000     0.31795    0.00286     0.32081
      H   31    0.17832      0.00000     0.31859    0.00309     0.32168
 =======================================================================
   * Total *   -0.00000     12.99555    37.84243    0.16202    51.00000

 Normal termination of Gaussian 16 at Wed Dec  9 23:09:37 2020.
