 Gaussian 16, Revision A.03,

 -----------------------------------------------------------
 # opt freq B3LYP/6-31G(d) empiricaldispersion=gd3bj scf=xqc
 -----------------------------------------------------------

 -------------------------------
 CID_153529093_JID_1263_neutraal
 -------------------------------
 Symbolic Z-matrix:
 Charge =  0 Multiplicity = 1

 SCF Done:  E(RB3LYP) =  -459.648291361     A.U. after   14 cycles
 SCF Done:  E(RB3LYP) =  -459.653279664     A.U. after   12 cycles
 SCF Done:  E(RB3LYP) =  -459.654092355     A.U. after   12 cycles
 SCF Done:  E(RB3LYP) =  -459.654433716     A.U. after   12 cycles
 SCF Done:  E(RB3LYP) =  -459.654560266     A.U. after   12 cycles
 SCF Done:  E(RB3LYP) =  -459.654629945     A.U. after   11 cycles
 SCF Done:  E(RB3LYP) =  -459.654666213     A.U. after   11 cycles
 SCF Done:  E(RB3LYP) =  -459.654668286     A.U. after    9 cycles
 SCF Done:  E(RB3LYP) =  -459.654669092     A.U. after    8 cycles
 SCF Done:  E(RB3LYP) =  -459.654669514     A.U. after    8 cycles
 SCF Done:  E(RB3LYP) =  -459.654669774     A.U. after    8 cycles
 SCF Done:  E(RB3LYP) =  -459.654669975     A.U. after    8 cycles
 Optimization completed.
    -- Stationary point found.

 1\1\GINC-NODE116\FOpt\RB3LYP\6-31G(d)\C9H12N2\VSC10255\08-Dec-2020\0\\
 # opt freq B3LYP/6-31G(d) empiricaldispersion=gd3bj scf=xqc\\CID_15352
 9093_JID_1263_neutraal\\0,1\C,0.3492507266,1.2724078003,0.0402612976\C
 ,1.1555821619,-0.0139464335,0.3882090311\C,0.4890591776,-1.1053799227,
 -0.5124407849\C,0.1712276584,-0.2671630654,-1.7823029462\C,-0.68801946
 75,0.7631831356,-1.0190221987\C,-1.6196351583,-0.1636716944,-0.2693099
 524\C,-0.9388557875,-1.2867359772,0.0363192206\C,-1.3538639826,-2.4150
 13777,0.8774791893\N,-2.5423482551,-2.7637119951,1.1993453471\C,1.2520

 Normal termination of Gaussian 16 at Tue Dec  8 19:35:25 2020.

 --------------------------------------------------------------------
 #N Geom=AllCheck Guess=TCheck SCRF=Check GenChk RB3LYP/6-31G(d) Freq
 --------------------------------------------------------------------

 Structure from the checkpoint file:  "JID_1263.chk"
 -------------------------------
 CID_153529093_JID_1263_neutraal
 -------------------------------
 Charge =  0 Multiplicity = 1

 SCF Done:  E(RB3LYP) =  -459.654669975     A.U. after    1 cycles

  Exact polarizability: 111.644  -0.673 109.842  -2.313  -6.992  76.746
 Approx polarizability: 167.468  -2.657 173.770  -3.114 -17.953 117.464

                      1                      2                      3
                      A                      A                      A
 Frequencies --     73.0387                78.9747               145.9686
 Red. masses --      2.7915                 3.8192                 2.6633
 Frc consts  --      0.0088                 0.0140                 0.0334
 IR Inten    --      0.3328                 0.3231                 0.1787

                      4                      5                      6
                      A                      A                      A
 Frequencies --    187.1519               225.6658               231.6622
 Red. masses --      2.6730                 2.7662                 2.1880
 Frc consts  --      0.0552                 0.0830                 0.0692
 IR Inten    --      2.6013                 3.1731                 2.4755

                      7                      8                      9
                      A                      A                      A
 Frequencies --    311.7547               384.3974               420.9345
 Red. masses --      2.4216                 2.7721                 3.9310
 Frc consts  --      0.1387                 0.2413                 0.4104
 IR Inten    --      4.8603                 1.7635                 1.6658

                     10                     11                     12
                      A                      A                      A
 Frequencies --    450.6062               512.8723               548.7031
 Red. masses --      2.7408                 2.4205                 3.5111
 Frc consts  --      0.3279                 0.3751                 0.6228
 IR Inten    --      0.2529                 1.6978                 0.1243

                     13                     14                     15
                      A                      A                      A
 Frequencies --    633.5987               660.0215               779.0562
 Red. masses --      3.6932                 3.2982                 3.5039
 Frc consts  --      0.8735                 0.8465                 1.2530
 IR Inten    --      8.0088                14.5088                 4.5252

                     16                     17                     18
                      A                      A                      A
 Frequencies --    792.9954               803.7671               819.1907
 Red. masses --      2.9996                 1.9070                 2.2706
 Frc consts  --      1.1114                 0.7259                 0.8977
 IR Inten    --      2.6499                15.0873                22.8813

                     19                     20                     21
                      A                      A                      A
 Frequencies --    840.8146               872.5250               898.1403
 Red. masses --      1.5976                 2.2834                 2.0223
 Frc consts  --      0.6654                 1.0242                 0.9611
 IR Inten    --      5.4080                 6.8491                 4.3623

                     22                     23                     24
                      A                      A                      A
 Frequencies --    915.7456               942.9879               965.0823
 Red. masses --      2.8326                 1.9769                 2.1251
 Frc consts  --      1.3996                 1.0357                 1.1662
 IR Inten    --      3.6288                 1.5756                 3.2842

                     25                     26                     27
                      A                      A                      A
 Frequencies --    987.1775              1000.9808              1068.7748
 Red. masses --      2.5502                 1.7342                 1.6231
 Frc consts  --      1.4643                 1.0237                 1.0923
 IR Inten    --      0.2851                 0.4854                 1.4769

                     28                     29                     30
                      A                      A                      A
 Frequencies --   1103.1814              1134.6516              1146.0387
 Red. masses --      2.5191                 1.5386                 1.0901
 Frc consts  --      1.8063                 1.1670                 0.8436
 IR Inten    --      9.9523                 6.7052                40.0830

                     31                     32                     33
                      A                      A                      A
 Frequencies --   1150.4489              1159.5729              1191.0005
 Red. masses --      1.2419                 1.3313                 1.6837
 Frc consts  --      0.9684                 1.0547                 1.4072
 IR Inten    --     23.8602                15.9229                 6.7970

                     34                     35                     36
                      A                      A                      A
 Frequencies --   1222.1905              1237.9758              1243.3116
 Red. masses --      2.0262                 1.4893                 1.4445
 Frc consts  --      1.7832                 1.3448                 1.3157
 IR Inten    --     13.3531                 5.7034                 9.8636

                     37                     38                     39
                      A                      A                      A
 Frequencies --   1262.8494              1279.2176              1286.8601
 Red. masses --      1.3527                 1.3234                 1.3968
 Frc consts  --      1.2710                 1.2759                 1.3628
 IR Inten    --     99.8629                 5.2111                46.5805

                     40                     41                     42
                      A                      A                      A
 Frequencies --   1302.9675              1326.6894              1343.8553
 Red. masses --      1.5319                 1.5367                 1.7314
 Frc consts  --      1.5323                 1.5936                 1.8422
 IR Inten    --     40.0169                 2.0520                 0.5271

                     43                     44                     45
                      A                      A                      A
 Frequencies --   1355.4332              1443.8392              1453.0191
 Red. masses --      1.7238                 1.2539                 1.2790
 Frc consts  --      1.8659                 1.5401                 1.5909
 IR Inten    --     19.8912                28.0335                12.1913

                     46                     47                     48
                      A                      A                      A
 Frequencies --   1519.4744              1520.8109              1544.5765
 Red. masses --      1.0921                 1.0869                 1.1048
 Frc consts  --      1.4856                 1.4811                 1.5529
 IR Inten    --      2.4003                 0.7784                 0.3802

                     49                     50                     51
                      A                      A                      A
 Frequencies --   1657.4210              1699.5156              1732.9682
 Red. masses --      7.8137                 7.3815                 8.9701
 Frc consts  --     12.6465                12.5616                15.8719
 IR Inten    --     59.8983                41.6962                73.5743

                     52                     53                     54
                      A                      A                      A
 Frequencies --   3064.6060              3072.2370              3079.7269
 Red. masses --      1.0623                 1.0604                 1.0633
 Frc consts  --      5.8784                 5.8968                 5.9418
 IR Inten    --     20.4615                21.9332                50.5993

                     55                     56                     57
                      A                      A                      A
 Frequencies --   3082.9440              3104.8922              3113.1347
 Red. masses --      1.0854                 1.0871                 1.1037
 Frc consts  --      6.0779                 6.1749                 6.3021
 IR Inten    --     26.8327                25.5352                 3.7823

                     58                     59                     60
                      A                      A                      A
 Frequencies --   3129.0715              3131.9492              3133.1887
 Red. masses --      1.1017                 1.0941                 1.1045
 Frc consts  --      6.3553                 6.3230                 6.3886
 IR Inten    --     25.3266                54.2793                27.6453

                     61                     62                     63
                      A                      A                      A
 Frequencies --   3207.4419              3377.5682              3396.1391
 Red. masses --      1.0943                 1.0735                 1.0733
 Frc consts  --      6.6327                 7.2156                 7.2937
 IR Inten    --     10.3122                11.9761                 6.2953

 - Thermochemistry -
 -------------------
 Temperature   298.150 Kelvin.  Pressure   1.00000 Atm.
 Atom     1 has atomic number  6 and mass  12.00000

 Molecular mass:   148.10005 amu.
 Principal axes and moments of inertia in atomic units:
                           1         2         3
     Eigenvalues --  1327.590801503.081002311.51199
           X            0.99886  -0.04642  -0.01116
           Y            0.04637   0.99891  -0.00443
           Z            0.01136   0.00390   0.99993
 This molecule is an asymmetric top.
 Rotational symmetry number  1.
 Warning -- assumption of classical behavior for rotation
           may cause significant error
 Rotational temperatures (Kelvin)      0.06524     0.05762     0.03747
 Rotational constants (GHZ):           1.35941     1.20069     0.78076
 Zero-point vibrational energy     518960.1 (Joules/Mol)
                                  124.03445 (Kcal/Mol)
 Warning -- explicit consideration of  12 degrees of freedom as
           vibrations may cause significant error
 Vibrational temperatures:    105.09   113.63   210.02   269.27   324.68
          (Kelvin)            333.31   448.55   553.06   605.63   648.32
                              737.91   789.46   911.61   949.62  1120.89
                             1140.94  1156.44  1178.63  1209.74  1255.37
                             1292.22  1317.55  1356.75  1388.54  1420.33
                             1440.19  1537.73  1587.23  1632.51  1648.89
                             1655.24  1668.37  1713.58  1758.46  1781.17
                             1788.85  1816.96  1840.51  1851.50  1874.68
                             1908.81  1933.51  1950.17  2077.36  2090.57
                             2186.18  2188.11  2222.30  2384.66  2445.22
                             2493.35  4409.28  4420.26  4431.04  4435.67
                             4467.25  4479.11  4502.04  4506.18  4507.96
                             4614.79  4859.57  4886.29

 Zero-point correction=                           0.197661 (Hartree/Particle)
 Thermal correction to Energy=                    0.207300
 Thermal correction to Enthalpy=                  0.208244
 Thermal correction to Gibbs Free Energy=         0.162567
 Sum of electronic and zero-point Energies=           -459.457009
 Sum of electronic and thermal Energies=              -459.447370
 Sum of electronic and thermal Enthalpies=            -459.446426
 Sum of electronic and thermal Free Energies=         -459.492103

                     E (Thermal)             CV                S
                      KCal/Mol        Cal/Mol-Kelvin    Cal/Mol-Kelvin
 Total                  130.083             37.593             96.136
 Electronic               0.000              0.000              0.000
 Translational            0.889              2.981             40.889
 Rotational               0.889              2.981             29.913
 Vibrational            128.305             31.631             25.335
 Vibration     1          0.599              1.967              4.070
 Vibration     2          0.600              1.963              3.916
 Vibration     3          0.617              1.907              2.724
 Vibration     4          0.632              1.857              2.256
 Vibration     5          0.650              1.802              1.913
 Vibration     6          0.653              1.793              1.866
 Vibration     7          0.700              1.651              1.353
 Vibration     8          0.753              1.503              1.022
 Vibration     9          0.783              1.425              0.889
 Vibration    10          0.809              1.360              0.794
 Vibration    11          0.868              1.221              0.627
 Vibration    12          0.904              1.143              0.547

 Optimization completed.
    -- Stationary point found.

 1\1\GINC-NODE116\Freq\RB3LYP\6-31G(d)\C9H12N2\VSC10255\08-Dec-2020\0\\
 #N Geom=AllCheck Guess=TCheck SCRF=Check GenChk RB3LYP/6-31G(d) Freq\\
 CID_153529093_JID_1263_neutraal\\0,1\C,0.3492507266,1.2724078003,0.040
 2612976\C,1.1555821619,-0.0139464335,0.3882090311\C,0.4890591776,-1.10
 53799227,-0.5124407849\C,0.1712276584,-0.2671630654,-1.7823029462\C,-0
 .6880194675,0.7631831356,-1.0190221987\C,-1.6196351583,-0.1636716944,-
 0.2693099524\C,-0.9388557875,-1.2867359772,0.0363192206\C,-1.353863982
 6,-2.415013777,0.8774791893\N,-2.5423482551,-2.7637119951,1.1993453471

 Normal termination of Gaussian 16 at Tue Dec  8 19:40:46 2020.

 ----------------------------------------------------------------------
 # B3LYP/6-311++G(d,p) empiricaldispersion=gd3bj scf=xqc pop=npa geom=c
 heck
 ----------------------------------------------------------------------

 ---------------------------------------
 CID_153529093_JID_1263_Energie_neutraal
 ---------------------------------------
 Structure from the checkpoint file:  "JID_1263.chk"
 Charge =  0 Multiplicity = 1

 SCF Done:  E(RB3LYP) =  -459.782960165     A.U. after   14 cycles
 Normal termination of Gaussian 16 at Tue Dec  8 19:43:01 2020.

 ----------------------------------------------------------------------
 # B3LYP/6-311++G(d,p) empiricaldispersion=gd3bj scf=xqc pop=npa geom=c
 heck
 ----------------------------------------------------------------------

 -------------------------------------
 CID_153529093_JID_1263_Energie_kation
 -------------------------------------
 Structure from the checkpoint file:  "JID_1263.chk"
 Charge =  1 Multiplicity = 2

 SCF Done:  E(UB3LYP) =  -459.454046938     A.U. after   26 cycles
 Normal termination of Gaussian 16 at Tue Dec  8 19:48:57 2020.
 Gaussian 16:  ES64L-G16RevA.03 25-Dec-2016

 ------------------------------------
 CID_153529093_JID_1263_Energie_anion
 ------------------------------------
 Structure from the checkpoint file:  "JID_1263.chk"
 Charge = -1 Multiplicity = 2

                         Standard orientation:
 ---------------------------------------------------------------------
 Center     Atomic      Atomic             Coordinates (Angstroms)
 Number     Number       Type             X           Y           Z
 ---------------------------------------------------------------------
      1          6           0        1.615641   -1.363740   -0.906403
      2          6           0        1.266701    0.143428   -1.087044
      3          6           0        0.451079    0.476517    0.205420
      4          6           0        1.198750   -0.404368    1.245229
      5          6           0        0.954291   -1.716717    0.470312
      6          6           0       -0.538865   -1.623716    0.244764
      7          6           0       -0.860470   -0.323304    0.091002
      8          6           0       -2.147314    0.267904   -0.292793
      9          7           0       -3.312048   -0.255726   -0.209790
     10          6           0        0.284729    1.924273    0.564170
     11          7           0        0.630834    2.955912   -0.096710
     12          1           0        1.230364   -1.988183   -1.716502
     13          1           0        2.698649   -1.515411   -0.853017
     14          1           0        2.176740    0.752107   -1.127444
     15          1           0        0.689841    0.341864   -1.994485
     16          1           0        0.721581   -0.389355    2.229244
     17          1           0        2.257355   -0.138598    1.341042
     18          1           0        1.318524   -2.642184    0.920323
     19          1           0       -1.193889   -2.474443    0.081785
     20          1           0       -2.096297    1.288373   -0.687306
     21          1           0       -3.246371   -1.198095    0.198256
     22          1           0       -0.208676    2.100331    1.528089
     23          1           0        1.073427    2.680643   -0.982422
 ---------------------------------------------------------------------

 SCF Done:  E(UB3LYP) =  -459.788810224     A.U. after   33 cycles
 SCF Done:  E(UB3LYP) =  -459.788810224     a.u. after    1 cycles

 The electronic state is 2-A.
 Alpha  occ. eigenvalues --  -14.17371 -14.11272 -10.08853 -10.06021 -10.04951
 Alpha  occ. eigenvalues --  -10.04891 -10.04877 -10.04474 -10.03349 -10.01159
 Alpha  occ. eigenvalues --  -10.00224  -0.78554  -0.75074  -0.72348  -0.61394
 Alpha  occ. eigenvalues --   -0.60194  -0.57417  -0.50000  -0.47446  -0.43449
 Alpha  occ. eigenvalues --   -0.42940  -0.39334  -0.36537  -0.35728  -0.32643
 Alpha  occ. eigenvalues --   -0.30609  -0.28240  -0.26970  -0.25968  -0.25167
 Alpha  occ. eigenvalues --   -0.23067  -0.22050  -0.21542  -0.20595  -0.19578
 Alpha  occ. eigenvalues --   -0.17906  -0.17532  -0.14203  -0.09890  -0.09341
 Alpha  occ. eigenvalues --    0.05140
 Alpha virt. eigenvalues --    0.07700   0.09693   0.10256   0.10360   0.11011
 Alpha virt. eigenvalues --    0.11710   0.12355   0.12749   0.13089   0.13326
 Alpha virt. eigenvalues --    0.15121   0.15594   0.15821   0.17041   0.17922

  Beta  occ. eigenvalues --  -14.17311 -14.10828 -10.08816 -10.06026 -10.04979
  Beta  occ. eigenvalues --  -10.04872 -10.04864 -10.04404 -10.03200 -10.01047
  Beta  occ. eigenvalues --   -9.99809  -0.78434  -0.74848  -0.71644  -0.61139
  Beta  occ. eigenvalues --   -0.59950  -0.57104  -0.49839  -0.46726  -0.43278
  Beta  occ. eigenvalues --   -0.42736  -0.39160  -0.36177  -0.35634  -0.32500
  Beta  occ. eigenvalues --   -0.30499  -0.27976  -0.26740  -0.25831  -0.24997
  Beta  occ. eigenvalues --   -0.22952  -0.21809  -0.21320  -0.20458  -0.19292
  Beta  occ. eigenvalues --   -0.17274  -0.16111  -0.14121  -0.09346  -0.07191
  Beta virt. eigenvalues --    0.07949   0.09610   0.09939   0.10358   0.11262
  Beta virt. eigenvalues --    0.11336   0.12243   0.12453   0.12795   0.13177
  Beta virt. eigenvalues --    0.13436   0.15032   0.15520   0.15827   0.17059

 Mulliken charges and spin densities:
               1          2
     1  C    0.465097  -1.052161
     2  C   -0.807989   0.205284
     3  C    0.651535   0.004607
     4  C   -0.632071  -0.097264
     5  C   -0.089330   0.495734
     6  C   -0.526181   0.374752
     7  C    0.167840   0.048251
     8  C   -0.339087  -0.002998
     9  N   -0.372029   0.247413
    10  C   -0.190860   0.025162
    11  N   -0.284482   0.029661
    12  H   -0.050941   0.187217
    13  H   -0.151887   0.271850
    14  H    0.106496  -0.007938
    15  H    0.156977  -0.003084
    16  H    0.131849  -0.004080
    17  H    0.106469   0.024586
    18  H   -0.071866   0.267974
    19  H    0.076607   0.015722
    20  H    0.147293  -0.015348
    21  H    0.162403  -0.014096
    22  H    0.146092   0.001387
    23  H    0.198064  -0.002629
 Sum of Mulliken charges =  -1.00000   1.00000

 Dipole moment (field-independent basis, Debye):
    X=              5.0045    Y=             -0.4945    Z=              0.8340  Tot=              5.0976
 Quadrupole moment (field-independent basis, Debye-Ang):
   XX=           -110.9715   YY=            -99.2083   ZZ=            -76.3593
   XY=              4.6915   XZ=             -2.1370   YZ=             -3.2633

 Summary of Natural Population Analysis:

                                       Natural Population
                Natural  -----------------------------------------------
    Atom  No    Charge         Core      Valence    Rydberg      Total
 -----------------------------------------------------------------------
      C    1   -0.18224      0.99964     2.17351    0.00910     3.18224
      C    2   -0.19256      0.99962     2.18256    0.01038     3.19256
      C    3   -0.07928      0.99950     2.06627    0.01351     3.07928
      C    4   -0.17077      0.99961     2.16129    0.00986     3.17077
      C    5   -0.12906      0.99961     2.11585    0.01360     3.12906
      C    6   -0.00722      0.99946     1.99616    0.01160     3.00722
      C    7   -0.03645      0.99943     2.02225    0.01477     3.03645
      C    8    0.06712      0.99963     1.91751    0.01574     2.93288
      N    9   -0.26558      0.99975     2.75628    0.00955     3.76558
      C   10    0.09599      0.99962     1.88738    0.01700     2.90401
      N   11   -0.31639      0.99975     2.80766    0.00899     3.81639
      H   12    0.09873      0.00000     0.40038    0.00089     0.40127
      H   13    0.09350      0.00000     0.40474    0.00176     0.40650
      H   14    0.09179      0.00000     0.40703    0.00119     0.40821
      H   15    0.10158      0.00000     0.39750    0.00092     0.39842
      H   16    0.10202      0.00000     0.39702    0.00096     0.39798
      H   17    0.09004      0.00000     0.40893    0.00103     0.40996
      H   18    0.09841      0.00000     0.40051    0.00108     0.40159
      H   19    0.09239      0.00000     0.40636    0.00125     0.40761
      H   20    0.07009      0.00000     0.42797    0.00194     0.42991
      H   21    0.14536      0.00000     0.35247    0.00217     0.35464
      H   22    0.07798      0.00000     0.42031    0.00171     0.42202
      H   23    0.15453      0.00000     0.34350    0.00197     0.34547
 =======================================================================
   * Total *    0.00000     10.99561    28.85343    0.15096    40.00000

 Normal termination of Gaussian 16 at Tue Dec  8 19:56:26 2020.
