 Gaussian 16, Revision A.03,

 -----------------------------------------------------------
 # opt freq B3LYP/6-31G(d) empiricaldispersion=gd3bj scf=xqc
 -----------------------------------------------------------

 ------------------------------
 CID_28830387_JID_5925_neutraal
 ------------------------------
 Symbolic Z-matrix:
 Charge =  0 Multiplicity = 1

 SCF Done:  E(RB3LYP) =  -708.661657034     A.U. after   14 cycles
 SCF Done:  E(RB3LYP) =  -708.664775960     A.U. after   12 cycles
 SCF Done:  E(RB3LYP) =  -708.664306096     A.U. after   13 cycles
 SCF Done:  E(RB3LYP) =  -708.665824120     A.U. after   11 cycles
 SCF Done:  E(RB3LYP) =  -708.665934272     A.U. after   12 cycles
 SCF Done:  E(RB3LYP) =  -708.666232670     A.U. after   12 cycles
 SCF Done:  E(RB3LYP) =  -708.666947740     A.U. after   13 cycles
 SCF Done:  E(RB3LYP) =  -708.661807034     A.U. after   13 cycles
 SCF Done:  E(RB3LYP) =  -708.668800801     A.U. after   13 cycles
 SCF Done:  E(RB3LYP) =  -708.669668894     A.U. after   14 cycles
 SCF Done:  E(RB3LYP) =  -708.674321826     A.U. after    9 cycles
 SCF Done:  E(RB3LYP) =  -708.674323093     A.U. after   10 cycles
 SCF Done:  E(RB3LYP) =  -708.674323268     A.U. after    8 cycles
 SCF Done:  E(RB3LYP) =  -708.674323629     A.U. after    9 cycles
 SCF Done:  E(RB3LYP) =  -708.674323713     A.U. after    8 cycles
 Optimization completed.
    -- Stationary point found.
 Normal termination of Gaussian 16 at Thu Dec 10 18:14:42 2020.

 --------------------------------------------------------------------
 #N Geom=AllCheck Guess=TCheck SCRF=Check GenChk RB3LYP/6-31G(d) Freq
 --------------------------------------------------------------------

 Structure from the checkpoint file:  "JID_5925.chk"
 ------------------------------
 CID_28830387_JID_5925_neutraal
 ------------------------------
 Charge =  0 Multiplicity = 1

 SCF Done:  E(RB3LYP) =  -708.674323713     A.U. after    1 cycles

  Exact polarizability: 156.446  -1.409 140.326  -9.088  -5.249  81.897
 Approx polarizability: 216.129  -5.180 219.281 -17.767  -4.724 131.911

                      1                      2                      3
                      A                      A                      A
 Frequencies --     21.6567                46.6635                59.0063
 Red. masses --      5.5300                 6.2072                 4.3568
 Frc consts  --      0.0015                 0.0080                 0.0089
 IR Inten    --      0.2904                 0.8246                 0.7269

                      4                      5                      6
                      A                      A                      A
 Frequencies --     85.8937                95.5863               105.4643
 Red. masses --      4.6552                 5.2347                 4.1161
 Frc consts  --      0.0202                 0.0282                 0.0270
 IR Inten    --      2.4175                 3.6910                 0.0336

                      7                      8                      9
                      A                      A                      A
 Frequencies --    186.6324               190.6491               217.0811
 Red. masses --      3.3208                 3.6040                 3.4227
 Frc consts  --      0.0682                 0.0772                 0.0950
 IR Inten    --      0.3861                 1.1553                 0.8353

                     10                     11                     12
                      A                      A                      A
 Frequencies --    257.8579               286.5765               310.6970
 Red. masses --      2.3108                 1.3786                 2.4217
 Frc consts  --      0.0905                 0.0667                 0.1377
 IR Inten    --      3.2879                 1.7316                 2.0480

                     13                     14                     15
                      A                      A                      A
 Frequencies --    335.8099               343.3989               384.1958
 Red. masses --      3.1635                 2.7739                 2.6380
 Frc consts  --      0.2102                 0.1927                 0.2294
 IR Inten    --      0.7508                 0.3501                 1.0568

                     16                     17                     18
                      A                      A                      A
 Frequencies --    472.4648               501.8994               515.1268
 Red. masses --      3.4504                 3.7641                 2.4899
 Frc consts  --      0.4538                 0.5587                 0.3893
 IR Inten    --      2.5365                 1.3405                15.9168

                     19                     20                     21
                      A                      A                      A
 Frequencies --    541.6832               555.1313               574.4469
 Red. masses --      3.2202                 3.7775                 4.8143
 Frc consts  --      0.5567                 0.6859                 0.9360
 IR Inten    --     28.8671                 1.9421                 2.0373

                     22                     23                     24
                      A                      A                      A
 Frequencies --    599.1494               628.6653               695.0562
 Red. masses --      2.3862                 4.8133                 1.4754
 Frc consts  --      0.5047                 1.1208                 0.4200
 IR Inten    --     23.1732                 5.7211               120.7697

                     25                     26                     27
                      A                      A                      A
 Frequencies --    736.8777               763.1214               765.8500
 Red. masses --      3.2129                 1.8350                 1.3286
 Frc consts  --      1.0279                 0.6296                 0.4591
 IR Inten    --     17.2055                43.4155                42.4101

                     28                     29                     30
                      A                      A                      A
 Frequencies --    783.7895               825.5668               855.2538
 Red. masses --      3.5527                 2.4943                 2.4380
 Frc consts  --      1.2859                 1.0016                 1.0507
 IR Inten    --     22.7106                41.0725                 6.9333

                     31                     32                     33
                      A                      A                      A
 Frequencies --    861.3041               885.7772               934.4817
 Red. masses --      1.8437                 2.5811                 1.3727
 Frc consts  --      0.8059                 1.1932                 0.7063
 IR Inten    --      4.6889                 8.3696                 1.1294

                     34                     35                     36
                      A                      A                      A
 Frequencies --    959.4921               971.1145               998.6244
 Red. masses --      2.1800                 1.2456                 1.9191
 Frc consts  --      1.1825                 0.6921                 1.1276
 IR Inten    --     31.8146                 0.0412                 1.7451

                     37                     38                     39
                      A                      A                      A
 Frequencies --   1036.3527              1071.2917              1084.8808
 Red. masses --      2.2901                 4.9329                 2.4160
 Frc consts  --      1.4492                 3.3355                 1.6754
 IR Inten    --      8.7539                37.1488                15.9515

                     40                     41                     42
                      A                      A                      A
 Frequencies --   1105.4748              1149.4031              1160.4786
 Red. masses --      2.2907                 2.1459                 2.6249
 Frc consts  --      1.6493                 1.6704                 2.0828
 IR Inten    --     35.3514                41.2910                53.3868

                     43                     44                     45
                      A                      A                      A
 Frequencies --   1190.5314              1193.9217              1197.7825
 Red. masses --      1.2639                 1.9654                 1.0977
 Frc consts  --      1.0554                 1.6507                 0.9279
 IR Inten    --      3.7805               131.8595                 2.6714

                     46                     47                     48
                      A                      A                      A
 Frequencies --   1221.2063              1236.5481              1242.3216
 Red. masses --      1.9186                 1.7464                 1.2200
 Frc consts  --      1.6859                 1.5733                 1.1094
 IR Inten    --     10.7675                 0.5136                26.7030

                     49                     50                     51
                      A                      A                      A
 Frequencies --   1248.7355              1291.7858              1309.0653
 Red. masses --      1.3130                 3.2819                 1.3959
 Frc consts  --      1.2063                 3.2267                 1.4094
 IR Inten    --     21.0114               136.5990                27.8866

                     52                     53                     54
                      A                      A                      A
 Frequencies --   1331.0422              1352.1147              1378.3919
 Red. masses --      1.5215                 1.6299                 3.2824
 Frc consts  --      1.5882                 1.7557                 3.6744
 IR Inten    --      8.3468                17.1577                12.6988

                     55                     56                     57
                      A                      A                      A
 Frequencies --   1383.0438              1416.0840              1424.5329
 Red. masses --      1.7896                 1.3197                 1.4517
 Frc consts  --      2.0168                 1.5593                 1.7357
 IR Inten    --     10.7662                38.0241                11.8233

                     58                     59                     60
                      A                      A                      A
 Frequencies --   1487.3383              1492.1468              1507.7769
 Red. masses --      1.0859                 1.3792                 1.0982
 Frc consts  --      1.4154                 1.8092                 1.4709
 IR Inten    --     13.4771                16.9761                 6.5118

                     61                     62                     63
                      A                      A                      A
 Frequencies --   1512.5541              1529.1330              1532.0121
 Red. masses --      1.8220                 1.1931                 1.0984
 Frc consts  --      2.4560                 1.6437                 1.5189
 IR Inten    --      5.4377                74.6775                31.1257

                     64                     65                     66
                      A                      A                      A
 Frequencies --   1534.5269              1543.2347              1551.5626
 Red. masses --      1.1180                 1.1632                 1.8488
 Frc consts  --      1.5512                 1.6321                 2.6223
 IR Inten    --     31.2469                 2.9160                27.0452

                     67                     68                     69
                      A                      A                      A
 Frequencies --   1648.9242              1666.5082              1840.8853
 Red. masses --      6.2897                 6.0438                 9.4461
 Frc consts  --     10.0759                 9.8896                18.8606
 IR Inten    --      7.5807                29.2251               259.6717

                     70                     71                     72
                      A                      A                      A
 Frequencies --   2984.2884              3026.3557              3044.8288
 Red. masses --      1.0690                 1.0363                 1.0690
 Frc consts  --      5.6092                 5.5920                 5.8390
 IR Inten    --     42.7448                54.5297                 9.9446

                     73                     74                     75
                      A                      A                      A
 Frequencies --   3055.0740              3057.1351              3086.8089
 Red. masses --      1.0889                 1.0680                 1.1053
 Frc consts  --      5.9879                 5.8812                 6.2053
 IR Inten    --     25.4416                68.8293                39.8690

                     76                     77                     78
                      A                      A                      A
 Frequencies --   3102.5463              3134.4308              3180.5361
 Red. masses --      1.1013                 1.0920                 1.0996
 Frc consts  --      6.2457                 6.3209                 6.5537
 IR Inten    --     15.6388                19.1851                 2.7543

                     79                     80                     81
                      A                      A                      A
 Frequencies --   3184.0178              3191.9258              3210.4705
 Red. masses --      1.0860                 1.0899                 1.0954
 Frc consts  --      6.4868                 6.5426                 6.6519
 IR Inten    --      2.0117                18.1537                30.8473

                     82                     83                     84
                      A                      A                      A
 Frequencies --   3228.4449              3526.7882              3688.3164
 Red. masses --      1.0921                 1.0735                 1.0640
 Frc consts  --      6.7067                 7.8672                 8.5282
 IR Inten    --      9.7863                 1.5466                40.1948

 - Thermochemistry -
 -------------------
 Temperature   298.150 Kelvin.  Pressure   1.00000 Atm.
 Atom     1 has atomic number  6 and mass  12.00000

 Molecular mass:   209.10519 amu.
 Principal axes and moments of inertia in atomic units:
                           1         2         3
     Eigenvalues --  1688.038144523.551325718.92468
           X            0.99986   0.01669  -0.00299
           Y           -0.01673   0.99973  -0.01599
           Z            0.00272   0.01603   0.99987
 This molecule is an asymmetric top.
 Rotational symmetry number  1.
 Warning -- assumption of classical behavior for rotation
           may cause significant error
 Rotational temperatures (Kelvin)      0.05131     0.01915     0.01515
 Rotational constants (GHZ):           1.06914     0.39897     0.31557
 Zero-point vibrational energy     663482.5 (Joules/Mol)
                                  158.57612 (Kcal/Mol)
 Warning -- explicit consideration of  22 degrees of freedom as
           vibrations may cause significant error
 Vibrational temperatures:     31.16    67.14    84.90   123.58   137.53
          (Kelvin)            151.74   268.52   274.30   312.33   371.00
                              412.32   447.02   483.16   494.07   552.77
                              679.77   722.12   741.15   779.36   798.71
                              826.50   862.04   904.51  1000.03  1060.20
                             1097.96  1101.89  1127.70  1187.81  1230.52
                             1239.22  1274.44  1344.51  1380.50  1397.22
                             1436.80  1491.08  1541.35  1560.90  1590.53
                             1653.73  1669.67  1712.91  1717.79  1723.34
                             1757.04  1779.12  1787.42  1796.65  1858.59
                             1883.45  1915.07  1945.39  1983.20  1989.89
                             2037.43  2049.59  2139.95  2146.87  2169.35
                             2176.23  2200.08  2204.22  2207.84  2220.37
                             2232.35  2372.43  2397.73  2648.62  4293.73
                             4354.25  4380.83  4395.57  4398.54  4441.23
                             4463.87  4509.75  4576.08  4581.09  4592.47
                             4619.15  4645.01  5074.26  5306.66

 Zero-point correction=                           0.252707 (Hartree/Particle)
 Thermal correction to Energy=                    0.267224
 Thermal correction to Enthalpy=                  0.268169
 Thermal correction to Gibbs Free Energy=         0.209810
 Sum of electronic and zero-point Energies=           -708.421617
 Sum of electronic and thermal Energies=              -708.407099
 Sum of electronic and thermal Enthalpies=            -708.406155
 Sum of electronic and thermal Free Energies=         -708.464514

                     E (Thermal)             CV                S
                      KCal/Mol        Cal/Mol-Kelvin    Cal/Mol-Kelvin
 Total                  167.686             54.599            122.826
 Electronic               0.000              0.000              0.000
 Translational            0.889              2.981             41.917
 Rotational               0.889              2.981             32.146
 Vibrational            165.908             48.637             48.763
 Vibration     1          0.593              1.985              6.476
 Vibration     2          0.595              1.979              4.954
 Vibration     3          0.596              1.974              4.490
 Vibration     4          0.601              1.959              3.751
 Vibration     5          0.603              1.952              3.542
 Vibration     6          0.605              1.945              3.351
 Vibration     7          0.632              1.858              2.261
 Vibration     8          0.634              1.853              2.222
 Vibration     9          0.646              1.815              1.983
 Vibration    10          0.667              1.749              1.676
 Vibration    11          0.684              1.699              1.494
 Vibration    12          0.700              1.653              1.359
 Vibration    13          0.717              1.604              1.232
 Vibration    14          0.722              1.589              1.196
 Vibration    15          0.753              1.504              1.023
 Vibration    16          0.829              1.311              0.731
 Vibration    17          0.857              1.246              0.653
 Vibration    18          0.870              1.216              0.621
 Vibration    19          0.897              1.158              0.562
 Vibration    20          0.911              1.128              0.534
 Vibration    21          0.931              1.087              0.496
 Vibration    22          0.957              1.034              0.451

 Optimization completed.
    -- Stationary point found.
 Normal termination of Gaussian 16 at Thu Dec 10 18:23:32 2020.

 ----------------------------------------------------------------------
 # B3LYP/6-311++G(d,p) empiricaldispersion=gd3bj scf=xqc pop=npa geom=c
 heck
 ----------------------------------------------------------------------

 --------------------------------------
 CID_28830387_JID_5925_Energie_neutraal
 --------------------------------------
 Structure from the checkpoint file:  "JID_5925.chk"
 Charge =  0 Multiplicity = 1

 SCF Done:  E(RB3LYP) =  -708.885866738     A.U. after   15 cycles
 Normal termination of Gaussian 16 at Thu Dec 10 18:26:55 2020.

 ----------------------------------------------------------------------
 # B3LYP/6-311++G(d,p) empiricaldispersion=gd3bj scf=xqc pop=npa geom=c
 heck
 ----------------------------------------------------------------------

 ------------------------------------
 CID_28830387_JID_5925_Energie_kation
 ------------------------------------
 Structure from the checkpoint file:  "JID_5925.chk"
 Charge =  1 Multiplicity = 2

 SCF Done:  E(UB3LYP) =  -708.596285854     A.U. after   25 cycles
 Normal termination of Gaussian 16 at Thu Dec 10 18:34:15 2020.
 Gaussian 16:  ES64L-G16RevA.03 25-Dec-2016

 ----------------------------------------------------------------------
 # B3LYP/6-311++G(d,p) empiricaldispersion=gd3bj scf=xqc pop=npa geom=c
 heck
 ----------------------------------------------------------------------

 -----------------------------------
 CID_28830387_JID_5925_Energie_anion
 -----------------------------------
 Structure from the checkpoint file:  "JID_5925.chk"
 Charge = -1 Multiplicity = 2

                         Standard orientation:
 ---------------------------------------------------------------------
 Center     Atomic      Atomic             Coordinates (Angstroms)
 Number     Number       Type             X           Y           Z
 ---------------------------------------------------------------------
      1          6           0        0.087544    2.575566    0.257050
      2          8           0        0.190220    1.159705    0.287389
      3          6           0        1.423931    0.587327    0.127162
      4          6           0        2.584511    1.302050   -0.176316
      5          6           0        3.792957    0.617272   -0.334845
      6          6           0        3.846215   -0.765878   -0.193219
      7          6           0        2.677364   -1.467703    0.114859
      8          6           0        1.460577   -0.813118    0.286558
      9          6           0        0.190704   -1.550134    0.628101
     10          7           0       -0.690725   -1.653347   -0.542424
     11          6           0       -2.076509   -1.972151   -0.230443
     12          6           0       -2.857170   -0.924109    0.594950
     13          6           0       -2.889538    0.464170   -0.003353
     14          8           0       -2.992189    1.498587    0.620052
     15          8           0       -2.826309    0.448852   -1.360814
     16          1           0        0.378216    2.975395   -0.723702
     17          1           0        0.715796    3.034112    1.030977
     18          1           0       -0.962381    2.793723    0.452314
     19          1           0        2.557941    2.379111   -0.291845
     20          1           0        4.692448    1.178679   -0.571864
     21          1           0        4.784952   -1.296544   -0.319337
     22          1           0        2.706039   -2.548253    0.228910
     23          1           0        0.433827   -2.565102    0.967004
     24          1           0       -0.286288   -1.032434    1.476601
     25          1           0       -0.664021   -0.777240   -1.057912
     26          1           0       -2.601539   -2.138692   -1.176357
     27          1           0       -2.097432   -2.922030    0.318593
     28          1           0       -3.901396   -1.251787    0.698365
     29          1           0       -2.465637   -0.814737    1.609164
     30          1           0       -2.872757    1.382331   -1.639981
 ---------------------------------------------------------------------

 SCF Done:  E(UB3LYP) =  -708.873232080     A.U. after   33 cycles
 SCF Done:  E(UB3LYP) =  -708.873232080     a.u. after    1 cycles

 The electronic state is 2-A.
 Alpha  occ. eigenvalues --  -19.07018 -19.06029 -19.01621 -14.19827 -10.20905
 Alpha  occ. eigenvalues --  -10.14235 -10.11906 -10.10216 -10.10184 -10.08731
 Alpha  occ. eigenvalues --  -10.08693 -10.08511 -10.08479 -10.08085 -10.07892
 Alpha  occ. eigenvalues --   -1.01094  -0.97530  -0.92119  -0.81340  -0.76377
 Alpha  occ. eigenvalues --   -0.69056  -0.66536  -0.65887  -0.60646  -0.58566
 Alpha  occ. eigenvalues --   -0.54324  -0.51082  -0.50263  -0.49208  -0.44147
 Alpha  occ. eigenvalues --   -0.40720  -0.40209  -0.39154  -0.38964  -0.37748
 Alpha  occ. eigenvalues --   -0.37307  -0.36833  -0.35294  -0.34629  -0.33117
 Alpha  occ. eigenvalues --   -0.31631  -0.31212  -0.30816  -0.29267  -0.28674
 Alpha  occ. eigenvalues --   -0.27937  -0.27061  -0.26297  -0.25867  -0.23421
 Alpha  occ. eigenvalues --   -0.22974  -0.22699  -0.18538  -0.16341  -0.13473
 Alpha  occ. eigenvalues --   -0.13035   0.04277
 Alpha virt. eigenvalues --    0.05885   0.06483   0.07425   0.07664   0.07951
 Alpha virt. eigenvalues --    0.08842   0.09028   0.09173   0.09889   0.10371
 Alpha virt. eigenvalues --    0.10474   0.11224   0.12145   0.12678   0.12789

  Beta  occ. eigenvalues --  -19.06964 -19.06021 -19.01602 -14.19823 -10.20894
  Beta  occ. eigenvalues --  -10.14234 -10.11869 -10.10201 -10.10178 -10.08703
  Beta  occ. eigenvalues --  -10.08691 -10.08497 -10.08474 -10.08072 -10.07886
  Beta  occ. eigenvalues --   -1.01019  -0.97515  -0.92058  -0.81328  -0.76363
  Beta  occ. eigenvalues --   -0.69021  -0.66495  -0.65867  -0.60601  -0.58530
  Beta  occ. eigenvalues --   -0.54259  -0.51051  -0.50183  -0.49162  -0.44110
  Beta  occ. eigenvalues --   -0.40690  -0.40180  -0.39120  -0.38923  -0.37702
  Beta  occ. eigenvalues --   -0.37275  -0.36805  -0.35269  -0.34596  -0.33084
  Beta  occ. eigenvalues --   -0.31595  -0.31175  -0.30778  -0.29229  -0.28647
  Beta  occ. eigenvalues --   -0.27908  -0.27030  -0.26275  -0.25844  -0.23395
  Beta  occ. eigenvalues --   -0.22947  -0.22652  -0.18478  -0.16329  -0.13461
  Beta  occ. eigenvalues --   -0.13024
  Beta virt. eigenvalues --    0.06355   0.06805   0.07352   0.07518   0.08250
  Beta virt. eigenvalues --    0.08660   0.08868   0.09252   0.09531   0.10287
  Beta virt. eigenvalues --    0.10706   0.10901   0.11540   0.12498   0.12782

 Mulliken charges and spin densities:
               1          2
     1  C    0.574700  -0.904631
     2  O   -0.163421   0.057714
     3  C   -1.176698   0.513052
     4  C   -0.077228  -0.240749
     5  C    0.697674  -1.005318
     6  C    0.151855  -0.544934
     7  C   -0.512831   0.334649
     8  C    0.522444   0.676638
     9  C    0.641247  -1.100324
    10  N   -0.040703   0.045925
    11  C    0.158758  -0.630746
    12  C    0.348069  -0.433409
    13  C    0.168560  -0.388250
    14  O   -0.272942   0.052221
    15  O   -0.153565   0.034830
    16  H   -0.315305   0.483805
    17  H   -0.170285   0.301790
    18  H   -0.003863   0.206044
    19  H   -0.362383   0.534689
    20  H   -0.466194   0.634592
    21  H   -0.098448   0.246995
    22  H   -0.004670   0.131159
    23  H    0.059897   0.115121
    24  H    0.100292  -0.008419
    25  H    0.246815  -0.035620
    26  H    0.045511   0.157979
    27  H   -0.098213   0.235160
    28  H   -0.522506   0.724632
    29  H    0.111071   0.100906
    30  H   -0.387639   0.704500
 Sum of Mulliken charges =  -1.00000   1.00000

 Dipole moment (field-independent basis, Debye):
    X=              1.9667    Y=             -3.8526    Z=              2.7150  Tot=              5.1070
 Quadrupole moment (field-independent basis, Debye-Ang):
   XX=           -166.2867   YY=           -135.6248   ZZ=           -122.3509
   XY=             -3.9749   XZ=             -0.8548   YZ=              3.6286

 Summary of Natural Population Analysis:

                                       Natural Population
                Natural  -----------------------------------------------
    Atom  No    Charge         Core      Valence    Rydberg      Total
 -----------------------------------------------------------------------
      C    1   -0.10452      0.99959     2.09533    0.00960     3.10452
      O    2   -0.27749      0.99986     3.26710    0.01053     4.27749
      C    3    0.16538      0.99933     1.82169    0.01360     2.83462
      C    4   -0.14017      0.99952     2.13120    0.00945     3.14017
      C    5   -0.09274      0.99957     2.08253    0.01063     3.09274
      C    6   -0.11760      0.99956     2.10835    0.00969     3.11760
      C    7   -0.08985      0.99952     2.08145    0.00888     3.08985
      C    8   -0.03854      0.99947     2.02925    0.00982     3.03854
      C    9   -0.09341      0.99959     2.08339    0.01044     3.09341
      N   10   -0.33791      0.99975     2.82757    0.01059     3.83791
      C   11   -0.08800      0.99963     2.07516    0.01321     3.08800
      C   12   -0.25007      0.99957     2.24154    0.00895     3.25007
      C   13    0.41128      0.99972     1.56294    0.02606     2.58872
      O   14   -0.30915      0.99987     3.30270    0.00658     4.30915
      O   15   -0.34996      0.99988     3.34257    0.00751     4.34996
      H   16    0.08591      0.00000     0.41193    0.00217     0.41409
      H   17    0.08301      0.00000     0.41565    0.00133     0.41699
      H   18    0.10678      0.00000     0.39192    0.00131     0.39322
      H   19    0.10903      0.00000     0.38925    0.00172     0.39097
      H   20    0.10153      0.00000     0.39719    0.00128     0.39847
      H   21    0.09966      0.00000     0.39949    0.00085     0.40034
      H   22    0.09950      0.00000     0.39955    0.00095     0.40050
      H   23    0.09094      0.00000     0.40759    0.00146     0.40906
      H   24    0.08965      0.00000     0.40845    0.00190     0.41035
      H   25    0.17924      0.00000     0.31608    0.00468     0.32076
      H   26    0.10099      0.00000     0.39774    0.00128     0.39901
      H   27    0.09174      0.00000     0.40717    0.00109     0.40826
      H   28    0.11755      0.00000     0.38035    0.00210     0.38245
      H   29    0.11002      0.00000     0.38883    0.00115     0.38998
      H   30    0.24720      0.00000     0.23839    0.01440     0.25280
 =======================================================================
   * Total *    0.00000     14.99442    40.80235    0.20323    56.00000

 Normal termination of Gaussian 16 at Thu Dec 10 18:43:58 2020.
