 Gaussian 16, Revision A.03,

 ----------------------------------------------------------------------
 # opt=(cartesian,calcfc) freq B3LYP/6-31G(d) empiricaldispersion=gd3bj
  scf=xqc
 ----------------------------------------------------------------------

 ------------------------------
 CID_80926683_JID_5663_neutraal
 ------------------------------
 Symbolic Z-matrix:
 Charge =  0 Multiplicity = 1

 SCF Done:  E(RB3LYP) =  -1396.46328786     A.U. after   15 cycles
 SCF Done:  E(RB3LYP) =  -1396.46405272     A.U. after   12 cycles
 SCF Done:  E(RB3LYP) =  -1396.46421991     A.U. after   12 cycles
 SCF Done:  E(RB3LYP) =  -1396.46390881     A.U. after   12 cycles
 SCF Done:  E(RB3LYP) =  -1396.46440766     A.U. after   11 cycles
 SCF Done:  E(RB3LYP) =  -1396.46428669     A.U. after   12 cycles
 SCF Done:  E(RB3LYP) =  -1396.46446235     A.U. after   11 cycles
 SCF Done:  E(RB3LYP) =  -1396.46449227     A.U. after   11 cycles
 SCF Done:  E(RB3LYP) =  -1396.46453270     A.U. after   11 cycles
 SCF Done:  E(RB3LYP) =  -1396.46457608     A.U. after   11 cycles
 SCF Done:  E(RB3LYP) =  -1396.46465830     A.U. after    7 cycles
 SCF Done:  E(RB3LYP) =  -1396.46465828     A.U. after    8 cycles
 SCF Done:  E(RB3LYP) =  -1396.46465763     A.U. after    9 cycles
 SCF Done:  E(RB3LYP) =  -1396.46465802     A.U. after    8 cycles
 SCF Done:  E(RB3LYP) =  -1396.46465831     A.U. after    2 cycles
 SCF Done:  E(RB3LYP) =  -1396.46465830     A.U. after    7 cycles
 Optimization completed.
    -- Stationary point found.
 Normal termination of Gaussian 16 at Mon Jan  4 09:48:41 2021.

 --------------------------------------------------------------------
 #N Geom=AllCheck Guess=TCheck SCRF=Check GenChk RB3LYP/6-31G(d) Freq
 --------------------------------------------------------------------

 Structure from the checkpoint file:  "JID_5663.chk"
 ------------------------------
 CID_80926683_JID_5663_neutraal
 ------------------------------
 Charge =  0 Multiplicity = 1

 SCF Done:  E(RB3LYP) =  -1396.46465830     A.U. after    1 cycles

  Exact polarizability: 226.748   0.748 157.395   1.960   0.607  67.995
 Approx polarizability: 328.816  -5.682 284.167   6.539   0.043 110.059

                      1                      2                      3
                      A                      A                      A
 Frequencies --      9.9054                23.4727                86.4768
 Red. masses --      8.9162                 6.4059                 5.6544
 Frc consts  --      0.0005                 0.0021                 0.0249
 IR Inten    --      0.0706                 0.0753                 0.2900

                      4                      5                      6
                      A                      A                      A
 Frequencies --    104.4288               120.5962               140.4356
 Red. masses --      4.5135                 1.0492                 4.6376
 Frc consts  --      0.0290                 0.0090                 0.0539
 IR Inten    --      8.2147                 0.4595                 0.8631

                      7                      8                      9
                      A                      A                      A
 Frequencies --    155.4180               182.3745               199.6373
 Red. masses --      3.1874                 5.4386                 5.2744
 Frc consts  --      0.0454                 0.1066                 0.1239
 IR Inten    --      4.4895                 0.5605                 4.7860

                     10                     11                     12
                      A                      A                      A
 Frequencies --    209.1665               214.1045               269.7676
 Red. masses --      1.9943                 3.6420                 5.7097
 Frc consts  --      0.0514                 0.0984                 0.2448
 IR Inten    --     13.4229                 6.2522                 4.6538

                     13                     14                     15
                      A                      A                      A
 Frequencies --    288.7734               356.8351               450.6380
 Red. masses --      4.9150                 3.7337                 9.1287
 Frc consts  --      0.2415                 0.2801                 1.0922
 IR Inten    --     11.2612                 3.8655                 0.2802

                     16                     17                     18
                      A                      A                      A
 Frequencies --    452.3499               481.2829               511.0248
 Red. masses --      4.2550                 5.5145                 7.3660
 Frc consts  --      0.5130                 0.7526                 1.1334
 IR Inten    --      6.9317                23.6624                 5.3125

                     19                     20                     21
                      A                      A                      A
 Frequencies --    517.1678               550.3914               584.9311
 Red. masses --      1.3264                10.1710                 6.7130
 Frc consts  --      0.2090                 1.8153                 1.3532
 IR Inten    --    170.8843                 1.5264                 2.3410

                     22                     23                     24
                      A                      A                      A
 Frequencies --    649.1927               669.6701               676.2111
 Red. masses --      6.9282                 5.0290                 4.2228
 Frc consts  --      1.7203                 1.3288                 1.1377
 IR Inten    --      1.0255                 7.3254                18.4425

                     25                     26                     27
                      A                      A                      A
 Frequencies --    701.5629               717.5623               793.2069
 Red. masses --      9.9664                 8.1951                 9.8576
 Frc consts  --      2.8902                 2.4861                 3.6542
 IR Inten    --     15.1860                39.5596                19.2960

                     28                     29                     30
                      A                      A                      A
 Frequencies --    804.5457               854.3398               915.2287
 Red. masses --     10.1339                 1.2084                 3.8206
 Frc consts  --      3.8648                 0.5197                 1.8855
 IR Inten    --     13.3004                19.9746               118.3332

                     31                     32                     33
                      A                      A                      A
 Frequencies --    957.7842               999.7455              1001.4759
 Red. masses --      8.9815                 6.8804                 1.4027
 Frc consts  --      4.8544                 4.0518                 0.8289
 IR Inten    --     55.2594                27.9455                 1.6903

                     34                     35                     36
                      A                      A                      A
 Frequencies --   1024.7817              1028.9579              1062.1792
 Red. masses --      2.1293                 2.5451                 3.8542
 Frc consts  --      1.3175                 1.5877                 2.5620
 IR Inten    --     53.6505                35.7196                49.3949

                     37                     38                     39
                      A                      A                      A
 Frequencies --   1076.5236              1130.0838              1201.6829
 Red. masses --      1.5507                 1.6757                 3.1165
 Frc consts  --      1.0589                 1.2608                 2.6515
 IR Inten    --      3.3676                10.6799               102.8332

                     40                     41                     42
                      A                      A                      A
 Frequencies --   1241.5197              1289.8959              1326.8748
 Red. masses --      2.4923                 5.3526                 5.2909
 Frc consts  --      2.2633                 5.2472                 5.4883
 IR Inten    --     35.3720                33.2318               156.3384

                     43                     44                     45
                      A                      A                      A
 Frequencies --   1345.6408              1377.9252              1429.6708
 Red. masses --      1.8233                 1.1946                 1.4814
 Frc consts  --      1.9452                 1.3363                 1.7840
 IR Inten    --     37.5720                 2.9520                22.8866

                     46                     47                     48
                      A                      A                      A
 Frequencies --   1438.8184              1464.0555              1471.7125
 Red. masses --      1.5626                 4.5666                 2.5617
 Frc consts  --      1.9059                 5.7672                 3.2691
 IR Inten    --    114.1164                23.3522                50.9338

                     49                     50                     51
                      A                      A                      A
 Frequencies --   1496.9519              1506.3196              1551.5397
 Red. masses --      1.3133                 1.0446                 5.2459
 Frc consts  --      1.7339                 1.3965                 7.4404
 IR Inten    --     24.8213                 8.1030               485.2141

                     52                     53                     54
                      A                      A                      A
 Frequencies --   1566.2472              1598.6875              1636.5634
 Red. masses --      3.6577                 4.4746                 7.1143
 Frc consts  --      5.2867                 6.7380                11.2266
 IR Inten    --     25.4949               222.2292               550.8800

                     55                     56                     57
                      A                      A                      A
 Frequencies --   1744.7295              3064.9979              3122.3426
 Red. masses --      1.0647                 1.0376                 1.1012
 Frc consts  --      1.9096                 5.7432                 6.3252
 IR Inten    --     35.6487                 9.2898                 9.2896

                     58                     59                     60
                      A                      A                      A
 Frequencies --   3173.4536              3174.6005              3285.0089
 Red. masses --      1.1016                 1.0912                 1.0939
 Frc consts  --      6.5362                 6.4791                 6.9548
 IR Inten    --      5.7220                26.5909                32.4096

                     61                     62                     63
                      A                      A                      A
 Frequencies --   3435.1926              3510.6571              3635.8533
 Red. masses --      1.0481                 1.0939                 1.0780
 Frc consts  --      7.2872                 7.9435                 8.3962
 IR Inten    --      3.7753                 0.3896                85.1939

 - Thermochemistry -
 -------------------
 Temperature   298.150 Kelvin.  Pressure   1.00000 Atm.
 Atom     1 has atomic number  6 and mass  12.00000

 Molecular mass:   240.02519 amu.
 Principal axes and moments of inertia in atomic units:
                           1         2         3
     Eigenvalues --  1486.721817787.018519227.99857
           X            0.99976   0.02187  -0.00115
           Y           -0.02187   0.99976   0.00030
           Z            0.00116  -0.00028   1.00000
 This molecule is an asymmetric top.
 Rotational symmetry number  1.
 Warning -- assumption of classical behavior for rotation
           may cause significant error
 Rotational temperatures (Kelvin)      0.05826     0.01112     0.00939
 Rotational constants (GHZ):           1.21391     0.23176     0.19557
 Zero-point vibrational energy     431033.5 (Joules/Mol)
                                  103.01948 (Kcal/Mol)
 Warning -- explicit consideration of  21 degrees of freedom as
           vibrations may cause significant error
 Vibrational temperatures:     14.25    33.77   124.42   150.25   173.51
          (Kelvin)            202.06   223.61   262.40   287.23   300.94
                              308.05   388.14   415.48   513.41   648.37
                              650.83   692.46   735.25   744.09   791.89
                              841.59   934.04   963.51   972.92  1009.39
                             1032.41  1141.25  1157.56  1229.20  1316.81
                             1378.04  1438.41  1440.90  1474.43  1480.44
                             1528.24  1548.88  1625.94  1728.95  1786.27
                             1855.87  1909.08  1936.08  1982.53  2056.98
                             2070.14  2106.45  2117.47  2153.78  2167.26
                             2232.32  2253.48  2300.15  2354.65  2510.28
                             4409.85  4492.35  4565.89  4567.54  4726.40
                             4942.48  5051.05  5231.18

 Zero-point correction=                           0.164172 (Hartree/Particle)
 Thermal correction to Energy=                    0.178582
 Thermal correction to Enthalpy=                  0.179526
 Thermal correction to Gibbs Free Energy=         0.119711
 Sum of electronic and zero-point Energies=          -1396.300486
 Sum of electronic and thermal Energies=             -1396.286077
 Sum of electronic and thermal Enthalpies=           -1396.285133
 Sum of electronic and thermal Free Energies=        -1396.344947

                     E (Thermal)             CV                S
                      KCal/Mol        Cal/Mol-Kelvin    Cal/Mol-Kelvin
 Total                  112.062             51.643            125.890
 Electronic               0.000              0.000              0.000
 Translational            0.889              2.981             42.328
 Rotational               0.889              2.981             33.035
 Vibrational            110.284             45.682             50.528
 Vibration     1          0.593              1.987              8.030
 Vibration     2          0.593              1.985              6.316
 Vibration     3          0.601              1.959              3.738
 Vibration     4          0.605              1.946              3.370
 Vibration     5          0.609              1.932              3.091
 Vibration     6          0.615              1.913              2.798
 Vibration     7          0.620              1.897              2.605
 Vibration     8          0.630              1.864              2.304
 Vibration     9          0.638              1.840              2.136
 Vibration    10          0.642              1.827              2.051
 Vibration    11          0.644              1.819              2.008
 Vibration    12          0.674              1.729              1.598
 Vibration    13          0.685              1.695              1.481
 Vibration    14          0.732              1.561              1.136
 Vibration    15          0.809              1.359              0.794
 Vibration    16          0.811              1.356              0.789
 Vibration    17          0.838              1.292              0.707
 Vibration    18          0.866              1.226              0.631
 Vibration    19          0.872              1.212              0.617
 Vibration    20          0.906              1.139              0.543
 Vibration    21          0.942              1.064              0.476

 Normal termination of Gaussian 16 at Mon Jan  4 09:54:00 2021.

 ----------------------------------------------------------------------
 # B3LYP/6-311++G(d,p) empiricaldispersion=gd3bj scf=xqc pop=npa geom=c
 heck
 ----------------------------------------------------------------------

 --------------------------------------
 CID_80926683_JID_5663_Energie_neutraal
 --------------------------------------
 Structure from the checkpoint file:  "JID_5663.chk"
 Charge =  0 Multiplicity = 1

 SCF Done:  E(RB3LYP) =  -1396.68519817     A.U. after   16 cycles
 Normal termination of Gaussian 16 at Mon Jan  4 09:56:16 2021.

 ----------------------------------------------------------------------
 # B3LYP/6-311++G(d,p) empiricaldispersion=gd3bj scf=xqc pop=npa geom=c
 heck
 ----------------------------------------------------------------------

 ------------------------------------
 CID_80926683_JID_5663_Energie_kation
 ------------------------------------
 Structure from the checkpoint file:  "JID_5663.chk"
 Charge =  1 Multiplicity = 2

 SCF Done:  E(UB3LYP) =  -1396.38352047     A.U. after   25 cycles
 Normal termination of Gaussian 16 at Mon Jan  4 10:01:00 2021.
 Gaussian 16:  ES64L-G16RevA.03 25-Dec-2016

 ----------------------------------------------------------------------
 # B3LYP/6-311++G(d,p) empiricaldispersion=gd3bj scf=xqc pop=npa geom=c
 heck
 ----------------------------------------------------------------------

 -----------------------------------
 CID_80926683_JID_5663_Energie_anion
 -----------------------------------
 Structure from the checkpoint file:  "JID_5663.chk"
 Charge = -1 Multiplicity = 2

                         Standard orientation:
 ---------------------------------------------------------------------
 Center     Atomic      Atomic             Coordinates (Angstroms)
 Number     Number       Type             X           Y           Z
 ---------------------------------------------------------------------
      1          6           0        4.110075    2.111535   -0.098968
      2          6           0        3.458166    0.766367   -0.030371
      3          7           0        4.166661   -0.325844    0.136095
      4         16           0        3.110866   -1.637032    0.179875
      5          6           0        1.724682   -0.580030   -0.058802
      6          7           0        2.083824    0.671716   -0.150682
      7         16           0        0.123725   -1.293898   -0.180180
      8          6           0       -1.081604    0.031796   -0.061671
      9          7           0       -2.308037   -0.491144   -0.073462
     10          6           0       -3.322451    0.386829    0.008685
     11          7           0       -3.214508    1.727870    0.123466
     12          6           0       -1.969941    2.196291    0.126786
     13          6           0       -0.825924    1.396879    0.027943
     14          7           0       -4.589758   -0.114262   -0.032358
     15          7           0       -4.881997   -1.483728    0.063872
     16          1           0        5.191558    2.008483    0.000942
     17          1           0        3.877380    2.597735   -1.052443
     18          1           0        3.731902    2.757215    0.701144
     19          1           0       -1.868104    3.276934    0.214691
     20          1           0        0.175391    1.799129    0.018589
     21          1           0       -5.337277    0.515630    0.220991
     22          1           0       -4.610617   -1.918844   -0.818032
     23          1           0       -4.265003   -1.891653    0.768884
 ---------------------------------------------------------------------

 SCF Done:  E(UB3LYP) =  -1396.69951983     A.U. after   28 cycles

 The electronic state is 2-A.
 Alpha  occ. eigenvalues --  -88.75298 -88.74411 -14.24006 -14.23465 -14.18541
 Alpha  occ. eigenvalues --  -14.17285 -14.17127 -14.16328 -10.14280 -10.10907
 Alpha  occ. eigenvalues --  -10.10862 -10.10091 -10.07490 -10.06438 -10.03489
 Alpha  occ. eigenvalues --   -7.83819  -7.82934  -5.80224  -5.79754  -5.79325
 Alpha  occ. eigenvalues --   -5.79315  -5.78872  -5.78405  -0.90218  -0.86768
 Alpha  occ. eigenvalues --   -0.83880  -0.76299  -0.74082  -0.70316  -0.67787
 Alpha  occ. eigenvalues --   -0.64457  -0.61469  -0.57502  -0.52343  -0.51102
 Alpha  occ. eigenvalues --   -0.46152  -0.43692  -0.41497  -0.40411  -0.39645
 Alpha  occ. eigenvalues --   -0.36018  -0.34744  -0.33392  -0.33130  -0.31137
 Alpha  occ. eigenvalues --   -0.30807  -0.29035  -0.28247  -0.28048  -0.24589
 Alpha  occ. eigenvalues --   -0.22450  -0.21692  -0.19357  -0.19018  -0.18405
 Alpha  occ. eigenvalues --   -0.17998  -0.17949  -0.14960  -0.14359  -0.12342
 Alpha  occ. eigenvalues --   -0.11435  -0.09736   0.04131
 Alpha virt. eigenvalues --    0.08136   0.08344   0.08407   0.09801   0.10629
 Alpha virt. eigenvalues --    0.11265   0.11614   0.11893   0.12100   0.12408
 Alpha virt. eigenvalues --    0.12458   0.13708   0.14669   0.15422   0.15543

  Beta  occ. eigenvalues --  -88.75244 -88.74448 -14.24018 -14.23463 -14.18254
  Beta  occ. eigenvalues --  -14.17186 -14.16939 -14.16027 -10.14313 -10.10861
  Beta  occ. eigenvalues --  -10.10432 -10.09733 -10.07307 -10.06439 -10.03557
  Beta  occ. eigenvalues --   -7.83770  -7.82967  -5.80205  -5.79737  -5.79355
  Beta  occ. eigenvalues --   -5.79133  -5.78911  -5.78477  -0.90136  -0.86405
  Beta  occ. eigenvalues --   -0.83571  -0.75752  -0.73591  -0.70186  -0.67489
  Beta  occ. eigenvalues --   -0.64285  -0.61292  -0.57247  -0.52164  -0.50691
  Beta  occ. eigenvalues --   -0.45763  -0.43488  -0.41347  -0.40388  -0.39418
  Beta  occ. eigenvalues --   -0.35865  -0.34640  -0.33205  -0.32782  -0.30925
  Beta  occ. eigenvalues --   -0.29960  -0.28839  -0.28003  -0.27265  -0.24289
  Beta  occ. eigenvalues --   -0.21816  -0.21320  -0.18802  -0.18468  -0.17828
  Beta  occ. eigenvalues --   -0.17705  -0.16558  -0.14170  -0.14104  -0.12052
  Beta  occ. eigenvalues --   -0.10646  -0.09148
  Beta virt. eigenvalues --    0.08151   0.08340   0.09712   0.09863   0.10608
  Beta virt. eigenvalues --    0.10726   0.11412   0.11717   0.11945   0.12144
  Beta virt. eigenvalues --    0.12402   0.12772   0.13723   0.14714   0.15552

 Mulliken charges and spin densities:
               1          2
     1  C   -0.701662   0.000007
     2  C   -0.446770  -0.009594
     3  N   -0.091761   0.119652
     4  S    0.041679   0.117353
     5  C    0.020766   0.258827
     6  N    0.011825   0.055535
     7  S   -0.079631  -0.055688
     8  C   -0.256197   0.205724
     9  N   -0.136461   0.083829
    10  C   -0.001798  -0.011637
    11  N   -0.222586   0.134169
    12  C   -0.608381   0.139059
    13  C    0.329023  -0.021599
    14  N   -0.229034  -0.004271
    15  N   -0.298693  -0.003688
    16  H    0.138067  -0.000329
    17  H    0.146706  -0.000578
    18  H    0.143949  -0.000481
    19  H    0.148160  -0.013965
    20  H    0.318732   0.002838
    21  H    0.297422   0.001241
    22  H    0.244430  -0.000087
    23  H    0.232216   0.003685
 Sum of Mulliken charges =  -1.00000   1.00000

 Dipole moment (field-independent basis, Debye):
    X=             -0.8547    Y=              0.2306    Z=             -0.0372  Tot=              0.8860
 Quadrupole moment (field-independent basis, Debye-Ang):
   XX=           -165.6402   YY=           -114.5626   ZZ=           -108.3510
   XY=             11.4020   XZ=             -0.8103   YZ=              0.7506

 Summary of Natural Population Analysis:

                                       Natural Population
                Natural  -----------------------------------------------
    Atom  No    Charge         Core      Valence    Rydberg      Total
 -----------------------------------------------------------------------
      C    1   -0.29850      0.99962     2.29423    0.00464     3.29850
      C    2    0.18714      0.99965     1.79589    0.01732     2.81286
      N    3   -0.29965      0.99968     2.78391    0.01606     3.79965
      S    4    0.26328      4.99941     2.71072    0.02658     7.73672
      C    5    0.02150      0.99961     1.96137    0.01752     2.97850
      N    6   -0.28151      0.99960     2.76860    0.01331     3.78151
      S    7    0.14851      4.99940     2.83149    0.02060     7.85149
      C    8    0.11813      0.99947     1.86607    0.01633     2.88187
      N    9   -0.27899      0.99962     2.76611    0.01327     3.77899
      C   10    0.28467      0.99960     1.69727    0.01846     2.71533
      N   11   -0.24526      0.99967     2.73342    0.01217     3.74526
      C   12    0.07998      0.99962     1.90520    0.01520     2.92002
      C   13   -0.19293      0.99947     2.18457    0.00889     3.19293
      N   14   -0.23334      0.99964     2.71904    0.01465     3.73334
      N   15   -0.32011      0.99978     2.80937    0.01096     3.82011
      H   16    0.10373      0.00000     0.39536    0.00091     0.39627
      H   17    0.10265      0.00000     0.39635    0.00101     0.39735
      H   18    0.10248      0.00000     0.39650    0.00102     0.39752
      H   19    0.07988      0.00000     0.41885    0.00128     0.42012
      H   20    0.12656      0.00000     0.37226    0.00119     0.37344
      H   21    0.18689      0.00000     0.31072    0.00239     0.31311
      H   22    0.17145      0.00000     0.32665    0.00191     0.32855
      H   23    0.17344      0.00000     0.32444    0.00211     0.32656
 =======================================================================
   * Total *   -0.00000     22.99385    38.76838    0.23777    62.00000

 Normal termination of Gaussian 16 at Mon Jan  4 10:06:13 2021.
