 Gaussian 16, Revision A.03,

 -----------------------------------------------------------
 # opt freq B3LYP/6-31G(d) empiricaldispersion=gd3bj scf=xqc
 -----------------------------------------------------------

 ------------------------------
 CID_80108787_JID_8906_neutraal
 ------------------------------
 Symbolic Z-matrix:
 Charge =  0 Multiplicity = 1

 SCF Done:  E(RB3LYP) =  -860.060256292     A.U. after   15 cycles
 SCF Done:  E(RB3LYP) =  -860.065451987     A.U. after   12 cycles
 SCF Done:  E(RB3LYP) =  -860.065434918     A.U. after   12 cycles
 SCF Done:  E(RB3LYP) =  -860.066343695     A.U. after   12 cycles
 SCF Done:  E(RB3LYP) =  -860.066635389     A.U. after   12 cycles
 SCF Done:  E(RB3LYP) =  -860.066856443     A.U. after   12 cycles
 SCF Done:  E(RB3LYP) =  -860.066963911     A.U. after   11 cycles
 SCF Done:  E(RB3LYP) =  -860.066978163     A.U. after   10 cycles
 SCF Done:  E(RB3LYP) =  -860.066983123     A.U. after    9 cycles
 SCF Done:  E(RB3LYP) =  -860.066986519     A.U. after   10 cycles
 SCF Done:  E(RB3LYP) =  -860.066987545     A.U. after    8 cycles
 SCF Done:  E(RB3LYP) =  -860.066988130     A.U. after    8 cycles
 SCF Done:  E(RB3LYP) =  -860.066988259     A.U. after    7 cycles
 Optimization completed.
    -- Stationary point found.
 Normal termination of Gaussian 16 at Fri Dec 11 22:58:48 2020.

 --------------------------------------------------------------------
 #N Geom=AllCheck Guess=TCheck SCRF=Check GenChk RB3LYP/6-31G(d) Freq
 --------------------------------------------------------------------

 Structure from the checkpoint file:  "JID_8906.chk"
 ------------------------------
 CID_80108787_JID_8906_neutraal
 ------------------------------
 Charge =  0 Multiplicity = 1

 SCF Done:  E(RB3LYP) =  -860.066988259     A.U. after    1 cycles

  Exact polarizability: 213.593  11.380 135.093  13.792 -17.097 106.592
 Approx polarizability: 274.741  21.897 223.683  21.719 -44.790 181.074

                      1                      2                      3
                      A                      A                      A
 Frequencies --     26.4685                43.5649                67.9897
 Red. masses --      5.5303                 4.4530                 3.8708
 Frc consts  --      0.0023                 0.0050                 0.0105
 IR Inten    --      0.6277                 0.5266                 1.5024

                      4                      5                      6
                      A                      A                      A
 Frequencies --     86.3463                88.7342               119.8047
 Red. masses --      3.7397                 5.8818                 3.1509
 Frc consts  --      0.0164                 0.0273                 0.0266
 IR Inten    --      2.5811                 3.8757                 5.5117

                      7                      8                      9
                      A                      A                      A
 Frequencies --    141.1095               159.9557               184.1363
 Red. masses --      5.2061                 4.1143                 3.4785
 Frc consts  --      0.0611                 0.0620                 0.0695
 IR Inten    --      1.2749                 1.4121                 2.5981

                     10                     11                     12
                      A                      A                      A
 Frequencies --    233.8216               256.3309               290.8965
 Red. masses --      2.3036                 4.3900                 4.4382
 Frc consts  --      0.0742                 0.1699                 0.2213
 IR Inten    --      3.2442                 0.3878                 1.8292

                     13                     14                     15
                      A                      A                      A
 Frequencies --    322.0960               345.0113               381.7249
 Red. masses --      4.5637                 4.1182                 4.7970
 Frc consts  --      0.2790                 0.2888                 0.4118
 IR Inten    --      2.8875                 6.0329                 1.2179

                     16                     17                     18
                      A                      A                      A
 Frequencies --    393.0468               439.3040               472.1008
 Red. masses --      4.8904                 4.1705                 3.3984
 Frc consts  --      0.4451                 0.4742                 0.4463
 IR Inten    --      1.1603                 2.2948                12.9396

                     19                     20                     21
                      A                      A                      A
 Frequencies --    494.9126               537.5047               562.7346
 Red. masses --      3.5356                 2.2774                 3.9297
 Frc consts  --      0.5102                 0.3877                 0.7332
 IR Inten    --      2.2178                36.4571                26.0687

                     22                     23                     24
                      A                      A                      A
 Frequencies --    573.3180               600.1643               637.2261
 Red. masses --      2.6894                 3.2423                 3.2582
 Frc consts  --      0.5208                 0.6881                 0.7795
 IR Inten    --     22.0124                 6.7052                 5.0070

                     25                     26                     27
                      A                      A                      A
 Frequencies --    663.6362               704.4242               725.5022
 Red. masses --      3.3148                 3.7348                 4.4412
 Frc consts  --      0.8601                 1.0919                 1.3773
 IR Inten    --      9.1074                10.0537                13.9052

                     28                     29                     30
                      A                      A                      A
 Frequencies --    755.8214               771.2731               781.5820
 Red. masses --      4.4583                 4.4166                 3.5714
 Frc consts  --      1.5006                 1.5479                 1.2854
 IR Inten    --     12.0933                43.2376                 3.7218

                     31                     32                     33
                      A                      A                      A
 Frequencies --    804.7424               842.5882               881.5173
 Red. masses --      1.7496                 1.5310                 3.4636
 Frc consts  --      0.6676                 0.6404                 1.5858
 IR Inten    --      4.2242                21.5818                 4.3607

                     34                     35                     36
                      A                      A                      A
 Frequencies --    896.3043               910.9251               920.6559
 Red. masses --      3.0698                 1.8765                 1.7118
 Frc consts  --      1.4530                 0.9174                 0.8549
 IR Inten    --     10.7841                22.1644                 4.5397

                     37                     38                     39
                      A                      A                      A
 Frequencies --    924.0275               949.0744               993.1425
 Red. masses --      1.4589                 1.2809                 3.1078
 Frc consts  --      0.7339                 0.6798                 1.8060
 IR Inten    --     11.2869                 0.4595                35.3862

                     40                     41                     42
                      A                      A                      A
 Frequencies --   1002.1610              1017.6224              1038.6435
 Red. masses --      2.9739                 2.2218                10.5608
 Frc consts  --      1.7597                 1.3556                 6.7125
 IR Inten    --     43.2550                53.8574                99.4409

                     43                     44                     45
                      A                      A                      A
 Frequencies --   1057.7720              1092.5563              1096.0666
 Red. masses --      3.2763                 2.9581                 2.6170
 Frc consts  --      2.1599                 2.0804                 1.8523
 IR Inten    --      8.0093                10.3215                71.6133

                     46                     47                     48
                      A                      A                      A
 Frequencies --   1120.6451              1134.5298              1141.2870
 Red. masses --      2.5489                 2.3966                 2.1150
 Frc consts  --      1.8860                 1.8175                 1.6231
 IR Inten    --     10.5072                24.3039                 4.9257

                     49                     50                     51
                      A                      A                      A
 Frequencies --   1158.8483              1167.7313              1185.9984
 Red. masses --      1.6767                 1.0828                 1.3122
 Frc consts  --      1.3267                 0.8699                 1.0875
 IR Inten    --     22.4754                 1.3329                 4.1980

                     52                     53                     54
                      A                      A                      A
 Frequencies --   1217.1463              1232.9239              1273.1098
 Red. masses --      1.9651                 1.8480                 1.2693
 Frc consts  --      1.7152                 1.6551                 1.2121
 IR Inten    --     10.0583                 2.0362                 8.0912

                     55                     56                     57
                      A                      A                      A
 Frequencies --   1287.2171              1298.4427              1304.9010
 Red. masses --      1.5602                 1.4928                 1.9229
 Frc consts  --      1.5232                 1.4829                 1.9292
 IR Inten    --      4.0019                12.7990               261.6765

                     58                     59                     60
                      A                      A                      A
 Frequencies --   1307.4600              1319.2234              1332.0243
 Red. masses --      1.4580                 1.2870                 1.6245
 Frc consts  --      1.4685                 1.3197                 1.6983
 IR Inten    --     16.3907                 1.3533                70.1226

                     61                     62                     63
                      A                      A                      A
 Frequencies --   1352.8347              1363.0980              1389.7543
 Red. masses --      1.9050                 3.7678                 2.1386
 Frc consts  --      2.0542                 4.1247                 2.4337
 IR Inten    --    192.4252               129.8607               237.4245

                     64                     65                     66
                      A                      A                      A
 Frequencies --   1399.4110              1406.0939              1421.5720
 Red. masses --      1.4549                 1.3358                 1.4981
 Frc consts  --      1.6787                 1.5560                 1.7837
 IR Inten    --      0.8283                24.5763                31.0916

                     67                     68                     69
                      A                      A                      A
 Frequencies --   1441.8662              1465.9332              1474.1257
 Red. masses --      1.3503                 1.9410                 2.6894
 Frc consts  --      1.6540                 2.4576                 3.4433
 IR Inten    --     61.2657                 9.5864               134.2543

                     70                     71                     72
                      A                      A                      A
 Frequencies --   1508.1555              1530.5764              1533.6631
 Red. masses --      1.0945                 1.2255                 1.0818
 Frc consts  --      1.4668                 1.6916                 1.4992
 IR Inten    --      1.6354                15.5956                 2.0425

                     73                     74                     75
                      A                      A                      A
 Frequencies --   1535.2648              1554.3734              1559.9709
 Red. masses --      1.1128                 2.4846                 1.1161
 Frc consts  --      1.5453                 3.5368                 1.6002
 IR Inten    --      7.4764                94.6092                 0.7595

                     76                     77                     78
                      A                      A                      A
 Frequencies --   1621.7833              1666.7446              1767.8753
 Red. masses --      7.1726                 6.3935                 8.4337
 Frc consts  --     11.1151                10.4647                15.5300
 IR Inten    --     34.7502                34.7424               309.7966

                     79                     80                     81
                      A                      A                      A
 Frequencies --   3016.9980              3056.1230              3056.5633
 Red. masses --      1.0641                 1.0593                 1.0634
 Frc consts  --      5.7068                 5.8291                 5.8534
 IR Inten    --     74.1081                25.0828                33.4386

                     82                     83                     84
                      A                      A                      A
 Frequencies --   3063.8108              3064.4441              3068.5254
 Red. masses --      1.0661                 1.0836                 1.0641
 Frc consts  --      5.8960                 5.9954                 5.9031
 IR Inten    --     43.0760                19.2019                23.3297

                     85                     86                     87
                      A                      A                      A
 Frequencies --   3095.0597              3099.1428              3120.0984
 Red. masses --      1.1015                 1.0991                 1.1085
 Frc consts  --      6.2171                 6.2195                 6.3583
 IR Inten    --     62.6966                34.0504                35.3142

                     88                     89                     90
                      A                      A                      A
 Frequencies --   3128.6605              3131.0731              3209.7967
 Red. masses --      1.1056                 1.1070                 1.0876
 Frc consts  --      6.3763                 6.3943                 6.6017
 IR Inten    --     34.2309                34.6810                 4.9302

                     91                     92                     93
                      A                      A                      A
 Frequencies --   3225.8347              3234.8537              3579.2509
 Red. masses --      1.0939                 1.0908                 1.0755
 Frc consts  --      6.7070                 6.7253                 8.1177
 IR Inten    --      9.0302                 1.2693                25.9975

 - Thermochemistry -
 -------------------
 Temperature   298.150 Kelvin.  Pressure   1.00000 Atm.
 Atom     1 has atomic number  6 and mass  12.00000

 Molecular mass:   249.10011 amu.
 Principal axes and moments of inertia in atomic units:
                           1         2         3
     Eigenvalues --  2014.051528199.978329088.55143
           X            0.99998  -0.00174   0.00594
           Y            0.00183   0.99989  -0.01474
           Z           -0.00592   0.01475   0.99987
 This molecule is an asymmetric top.
 Rotational symmetry number  1.
 Warning -- assumption of classical behavior for rotation
           may cause significant error
 Rotational temperatures (Kelvin)      0.04300     0.01056     0.00953
 Rotational constants (GHZ):           0.89607     0.22009     0.19857
 Zero-point vibrational energy     711258.7 (Joules/Mol)
                                  169.99490 (Kcal/Mol)
 Warning -- explicit consideration of  23 degrees of freedom as
           vibrations may cause significant error
 Vibrational temperatures:     38.08    62.68    97.82   124.23   127.67
          (Kelvin)            172.37   203.03   230.14   264.93   336.42
                              368.80   418.54   463.42   496.39   549.22
                              565.51   632.06   679.25   712.07   773.35
                              809.65   824.88   863.50   916.83   954.82
                             1013.51  1043.84  1087.46  1109.69  1124.52
                             1157.84  1212.30  1268.31  1289.58  1310.62
                             1324.62  1329.47  1365.51  1428.91  1441.89
                             1464.13  1494.38  1521.90  1571.94  1577.00
                             1612.36  1632.34  1642.06  1667.32  1680.10
                             1706.39  1751.20  1773.90  1831.72  1852.02
                             1868.17  1877.46  1881.14  1898.07  1916.49
                             1946.43  1961.19  1999.55  2013.44  2023.06
                             2045.33  2074.52  2109.15  2120.94  2169.90
                             2202.16  2206.60  2208.90  2236.40  2244.45
                             2333.38  2398.07  2543.58  4340.79  4397.08
                             4397.71  4408.14  4409.05  4414.92  4453.10
                             4458.98  4489.13  4501.44  4504.92  4618.18
                             4641.26  4654.23  5149.74

 Zero-point correction=                           0.270904 (Hartree/Particle)
 Thermal correction to Energy=                    0.286384
 Thermal correction to Enthalpy=                  0.287328
 Thermal correction to Gibbs Free Energy=         0.226662
 Sum of electronic and zero-point Energies=           -859.796084
 Sum of electronic and thermal Energies=              -859.780604
 Sum of electronic and thermal Enthalpies=            -859.779660
 Sum of electronic and thermal Free Energies=         -859.840327

                     E (Thermal)             CV                S
                      KCal/Mol        Cal/Mol-Kelvin    Cal/Mol-Kelvin
 Total                  179.709             59.510            127.684
 Electronic               0.000              0.000              0.000
 Translational            0.889              2.981             42.439
 Rotational               0.889              2.981             33.373
 Vibrational            177.931             53.549             51.872
 Vibration     1          0.593              1.985              6.078
 Vibration     2          0.595              1.980              5.090
 Vibration     3          0.598              1.969              4.211
 Vibration     4          0.601              1.959              3.741
 Vibration     5          0.602              1.957              3.688
 Vibration     6          0.609              1.933              3.104
 Vibration     7          0.615              1.912              2.789
 Vibration     8          0.622              1.891              2.550
 Vibration     9          0.631              1.861              2.286
 Vibration    10          0.654              1.789              1.849
 Vibration    11          0.666              1.752              1.687
 Vibration    12          0.687              1.691              1.469
 Vibration    13          0.707              1.631              1.299
 Vibration    14          0.723              1.585              1.189
 Vibration    15          0.751              1.509              1.032
 Vibration    16          0.760              1.485              0.989
 Vibration    17          0.799              1.384              0.829
 Vibration    18          0.829              1.312              0.732
 Vibration    19          0.851              1.261              0.671
 Vibration    20          0.893              1.167              0.571
 Vibration    21          0.918              1.112              0.518
 Vibration    22          0.930              1.089              0.498
 Vibration    23          0.958              1.031              0.449

 Optimization completed.
    -- Stationary point found.
 Normal termination of Gaussian 16 at Fri Dec 11 23:12:37 2020.

 ----------------------------------------------------------------------
 # B3LYP/6-311++G(d,p) empiricaldispersion=gd3bj scf=xqc pop=npa geom=c
 heck
 ----------------------------------------------------------------------

 --------------------------------------
 CID_80108787_JID_8906_Energie_neutraal
 --------------------------------------
 Structure from the checkpoint file:  "JID_8906.chk"
 Charge =  0 Multiplicity = 1

 SCF Done:  E(RB3LYP) =  -860.308890490     A.U. after   16 cycles
 Normal termination of Gaussian 16 at Fri Dec 11 23:19:40 2020.

 ----------------------------------------------------------------------
 # B3LYP/6-311++G(d,p) empiricaldispersion=gd3bj scf=xqc pop=npa geom=c
 heck
 ----------------------------------------------------------------------

 ------------------------------------
 CID_80108787_JID_8906_Energie_kation
 ------------------------------------
 Structure from the checkpoint file:  "JID_8906.chk"
 Charge =  1 Multiplicity = 2

 SCF Done:  E(UB3LYP) =  -860.009853698     A.U. after   33 cycles
 SCF Done:  E(UB3LYP) =  -860.009853698     a.u. after    1 cycles
 Normal termination of Gaussian 16 at Fri Dec 11 23:40:23 2020.
 Gaussian 16:  ES64L-G16RevA.03 25-Dec-2016

 ----------------------------------------------------------------------
 # B3LYP/6-311++G(d,p) empiricaldispersion=gd3bj scf=xqc pop=npa geom=c
 heck
 ----------------------------------------------------------------------

 -----------------------------------
 CID_80108787_JID_8906_Energie_anion
 -----------------------------------
 Structure from the checkpoint file:  "JID_8906.chk"
 Charge = -1 Multiplicity = 2

                         Standard orientation:
 ---------------------------------------------------------------------
 Center     Atomic      Atomic             Coordinates (Angstroms)
 Number     Number       Type             X           Y           Z
 ---------------------------------------------------------------------
      1          6           0       -4.688083   -0.359953   -0.600299
      2          6           0       -3.718012   -1.507257   -0.327917
      3          8           0       -2.935893   -1.274052    0.853730
      4          6           0       -1.787385   -0.544773    0.690164
      5          6           0       -1.656952    0.530980   -0.216603
      6          6           0       -0.436708    1.191102   -0.319914
      7          6           0        0.663116    0.809811    0.454583
      8          6           0        0.511974   -0.220719    1.390819
      9          6           0       -0.703139   -0.888025    1.501260
     10          6           0        1.924277    1.597479    0.287586
     11          8           0        1.905815    2.792424    0.011300
     12          7           0        3.122274    0.936729    0.462259
     13          6           0        3.378201   -0.485035    0.335777
     14          6           0        2.652048   -1.288236   -0.765931
     15          8           0        3.909462   -1.805251   -1.261265
     16          6           0        4.649221   -0.877192   -0.444899
     17          8           0       -2.676371    0.970549   -1.026410
     18          6           0       -3.982508    0.985712   -0.433358
     19          1           0       -5.540773   -0.400492    0.088001
     20          1           0       -5.079687   -0.469655   -1.618808
     21          1           0       -4.251927   -2.443141   -0.144357
     22          1           0       -3.045881   -1.655495   -1.180176
     23          1           0       -0.350165    2.028972   -1.002269
     24          1           0        1.330756   -0.494153    2.046670
     25          1           0       -0.839541   -1.698697    2.209621
     26          1           0        3.910508    1.553916    0.303423
     27          1           0        3.333330   -0.991469    1.305575
     28          1           0        1.976758   -2.083362   -0.436355
     29          1           0        2.144700   -0.654778   -1.503755
     30          1           0        5.067511   -0.048569   -1.035782
     31          1           0        5.451020   -1.366940    0.118597
     32          1           0       -4.528677    1.785909   -0.939514
     33          1           0       -3.894270    1.248134    0.626862
 ---------------------------------------------------------------------

 SCF Done:  E(UB3LYP) =  -860.304359791     A.U. after   33 cycles
 SCF Done:  E(UB3LYP) =  -860.304359791     a.u. after    1 cycles

 The electronic state is 2-A.
 Alpha  occ. eigenvalues --  -19.03961 -19.03890 -19.03529 -18.96184 -14.22576
 Alpha  occ. eigenvalues --  -10.14407 -10.13953 -10.12711 -10.12648 -10.12521
 Alpha  occ. eigenvalues --  -10.12235 -10.11617 -10.10830 -10.07409 -10.06003
 Alpha  occ. eigenvalues --  -10.05886 -10.05389 -10.05022  -0.96716  -0.96288
 Alpha  occ. eigenvalues --   -0.94248  -0.91628  -0.81283  -0.74335  -0.69016
 Alpha  occ. eigenvalues --   -0.64903  -0.64525  -0.62547  -0.60920  -0.59344
 Alpha  occ. eigenvalues --   -0.52677  -0.50167  -0.49938  -0.49027  -0.46513
 Alpha  occ. eigenvalues --   -0.43133  -0.42310  -0.41255  -0.41082  -0.39924
 Alpha  occ. eigenvalues --   -0.37708  -0.36732  -0.35436  -0.33696  -0.32938
 Alpha  occ. eigenvalues --   -0.32490  -0.31997  -0.31789  -0.30823  -0.30671
 Alpha  occ. eigenvalues --   -0.30337  -0.29076  -0.26778  -0.26165  -0.26025
 Alpha  occ. eigenvalues --   -0.24659  -0.24471  -0.23826  -0.22464  -0.19966
 Alpha  occ. eigenvalues --   -0.19212  -0.17315  -0.15066  -0.14243  -0.12797
 Alpha  occ. eigenvalues --   -0.11181   0.04338
 Alpha virt. eigenvalues --    0.05897   0.06514   0.07968   0.08182   0.08682
 Alpha virt. eigenvalues --    0.09013   0.09189   0.10234   0.10421   0.11108
 Alpha virt. eigenvalues --    0.11434   0.11893   0.12475   0.12967   0.13281

  Beta  occ. eigenvalues --  -19.03973 -19.03879 -19.03525 -18.96017 -14.22564
  Beta  occ. eigenvalues --  -10.14248 -10.13938 -10.12705 -10.12639 -10.12512
  Beta  occ. eigenvalues --  -10.12203 -10.11672 -10.10556 -10.07373 -10.05956
  Beta  occ. eigenvalues --  -10.05900 -10.05271 -10.04892  -0.96665  -0.96279
  Beta  occ. eigenvalues --   -0.94204  -0.91324  -0.81167  -0.74130  -0.68918
  Beta  occ. eigenvalues --   -0.64737  -0.64407  -0.62340  -0.60870  -0.59208
  Beta  occ. eigenvalues --   -0.52357  -0.50042  -0.49851  -0.48945  -0.46400
  Beta  occ. eigenvalues --   -0.43078  -0.42267  -0.41179  -0.41001  -0.39832
  Beta  occ. eigenvalues --   -0.37584  -0.36616  -0.35362  -0.33548  -0.32857
  Beta  occ. eigenvalues --   -0.32358  -0.31923  -0.31689  -0.30769  -0.30517
  Beta  occ. eigenvalues --   -0.30153  -0.28628  -0.26577  -0.26083  -0.25712
  Beta  occ. eigenvalues --   -0.24579  -0.24266  -0.23700  -0.22391  -0.19626
  Beta  occ. eigenvalues --   -0.19108  -0.17288  -0.14739  -0.13920  -0.12286
  Beta  occ. eigenvalues --   -0.10456
  Beta virt. eigenvalues --    0.06259   0.06936   0.08039   0.08267   0.08532
  Beta virt. eigenvalues --    0.09155   0.09271   0.09460   0.10379   0.10628
  Beta virt. eigenvalues --    0.11097   0.11638   0.11817   0.12472   0.12993

 Mulliken charges and spin densities:
               1          2
     1  C    1.553390  -1.854369
     2  C   -0.548615   0.305508
     3  O   -0.137649   0.029425
     4  C   -0.132460   0.143545
     5  C    0.209985  -0.248422
     6  C   -0.225900   0.096209
     7  C    0.715300   0.004945
     8  C   -0.427984   0.114114
     9  C   -0.272997   0.054658
    10  C   -0.315156   0.083541
    11  O   -0.378209   0.060624
    12  N   -0.212503   0.012467
    13  C   -0.226561   0.158349
    14  C   -0.214433  -0.090527
    15  O   -0.208790   0.014476
    16  C    0.074694  -0.425118
    17  O   -0.142988   0.029417
    18  C   -0.608704   0.350472
    19  H   -0.261344   0.408052
    20  H   -0.274221   0.423462
    21  H   -0.448872   0.637446
    22  H    0.193502  -0.020531
    23  H    0.223511  -0.007326
    24  H    0.131819   0.010478
    25  H    0.159153   0.003307
    26  H    0.289307  -0.004857
    27  H    0.050049   0.120576
    28  H    0.171075   0.021559
    29  H    0.194644   0.012039
    30  H    0.079781   0.038008
    31  H   -0.074979   0.231876
    32  H   -0.056856   0.233390
    33  H    0.123011   0.053209
 Sum of Mulliken charges =  -1.00000   1.00000

 Dipole moment (field-independent basis, Debye):
    X=              4.5203    Y=             -0.7635    Z=              1.0994  Tot=              4.7143
 Quadrupole moment (field-independent basis, Debye-Ang):
   XX=           -186.1052   YY=           -147.0288   ZZ=           -126.6094
   XY=             -7.6728   XZ=              1.3551   YZ=             -1.9104

 Summary of Natural Population Analysis:

                                       Natural Population
                Natural  -----------------------------------------------
    Atom  No    Charge         Core      Valence    Rydberg      Total
 -----------------------------------------------------------------------
      C    1   -0.21535      0.99963     2.20666    0.00907     3.21535
      C    2   -0.00960      0.99956     1.99628    0.01376     3.00960
      O    3   -0.28532      0.99986     3.27623    0.00923     4.28532
      C    4    0.17620      0.99933     1.81189    0.01257     2.82380
      C    5    0.11294      0.99933     1.87450    0.01323     2.88706
      C    6   -0.06843      0.99950     2.05945    0.00949     3.06843
      C    7   -0.06404      0.99947     2.05411    0.01046     3.06404
      C    8   -0.08815      0.99954     2.07977    0.00884     3.08815
      C    9   -0.12972      0.99954     2.12059    0.00960     3.12972
      C   10    0.36093      0.99962     1.61822    0.02123     2.63907
      O   11   -0.31190      0.99988     3.30638    0.00564     4.31190
      N   12   -0.33139      0.99966     2.82094    0.01079     3.83139
      C   13   -0.03316      0.99959     2.02041    0.01316     3.03316
      C   14   -0.00652      0.99962     1.99434    0.01255     3.00652
      O   15   -0.30439      0.99991     3.29583    0.00866     4.30439
      C   16   -0.00086      0.99963     1.99071    0.01053     3.00086
      O   17   -0.28926      0.99986     3.28024    0.00916     4.28926
      C   18   -0.01075      0.99957     1.99775    0.01344     3.01075
      H   19    0.10172      0.00000     0.39648    0.00181     0.39828
      H   20    0.10109      0.00000     0.39731    0.00159     0.39891
      H   21    0.09393      0.00000     0.40435    0.00171     0.40607
      H   22    0.08676      0.00000     0.41187    0.00137     0.41324
      H   23    0.11153      0.00000     0.38750    0.00097     0.38847
      H   24    0.09676      0.00000     0.40219    0.00105     0.40324
      H   25    0.10162      0.00000     0.39723    0.00115     0.39838
      H   26    0.18771      0.00000     0.30933    0.00296     0.31229
      H   27    0.09366      0.00000     0.40495    0.00138     0.40634
      H   28    0.09242      0.00000     0.40642    0.00116     0.40758
      H   29    0.09060      0.00000     0.40825    0.00115     0.40940
      H   30    0.07880      0.00000     0.41945    0.00175     0.42120
      H   31    0.08396      0.00000     0.41426    0.00178     0.41604
      H   32    0.09108      0.00000     0.40774    0.00118     0.40892
      H   33    0.08714      0.00000     0.41141    0.00145     0.41286
 =======================================================================
   * Total *   -0.00000     17.99310    47.78303    0.22387    66.00000

 Normal termination of Gaussian 16 at Sat Dec 12 00:00:24 2020.
