 Gaussian 16, Revision A.03,

 -----------------------------------------------------------
 # opt freq B3LYP/6-31G(d) empiricaldispersion=gd3bj scf=xqc
 -----------------------------------------------------------

 --------------------------------
 CID_153841730_JID_10076_neutraal
 --------------------------------
 Symbolic Z-matrix:
 Charge =  0 Multiplicity = 1

 SCF Done:  E(RB3LYP) =  -844.855273850     A.U. after   14 cycles
 SCF Done:  E(RB3LYP) =  -844.857726030     A.U. after   13 cycles
 SCF Done:  E(RB3LYP) =  -844.858556016     A.U. after   12 cycles
 SCF Done:  E(RB3LYP) =  -844.858781585     A.U. after   11 cycles
 SCF Done:  E(RB3LYP) =  -844.858927085     A.U. after   12 cycles
 SCF Done:  E(RB3LYP) =  -844.858970490     A.U. after   10 cycles
 SCF Done:  E(RB3LYP) =  -844.859001533     A.U. after   10 cycles
 SCF Done:  E(RB3LYP) =  -844.859010914     A.U. after   10 cycles
 SCF Done:  E(RB3LYP) =  -844.859016206     A.U. after    9 cycles
 SCF Done:  E(RB3LYP) =  -844.859018326     A.U. after    9 cycles
 SCF Done:  E(RB3LYP) =  -844.859018480     A.U. after    7 cycles
 SCF Done:  E(RB3LYP) =  -844.859018527     A.U. after    7 cycles
 Optimization completed.
    -- Stationary point found.
 Normal termination of Gaussian 16 at Sun Dec 13 16:33:09 2020.

 --------------------------------------------------------------------
 #N Geom=AllCheck Guess=TCheck SCRF=Check GenChk RB3LYP/6-31G(d) Freq
 --------------------------------------------------------------------

 Structure from the checkpoint file:  "JID_10076.chk"
 --------------------------------
 CID_153841730_JID_10076_neutraal
 --------------------------------
 Charge =  0 Multiplicity = 1

 SCF Done:  E(RB3LYP) =  -844.859018527     A.U. after    1 cycles

  Exact polarizability: 223.834 -42.347 167.158 -19.076  -7.449 157.958
 Approx polarizability: 339.290 -74.563 257.600 -38.824 -20.618 301.130

                      1                      2                      3
                      A                      A                      A
 Frequencies --     23.8903                29.9567                55.5486
 Red. masses --      6.4745                 4.0008                 3.8552
 Frc consts  --      0.0022                 0.0021                 0.0070
 IR Inten    --      0.1756                 0.4703                 0.4090

                      4                      5                      6
                      A                      A                      A
 Frequencies --     76.5881                83.3063               107.8293
 Red. masses --      5.0824                 4.7455                 4.4566
 Frc consts  --      0.0176                 0.0194                 0.0305
 IR Inten    --      0.2430                 0.2814                 0.2629

                      7                      8                      9
                      A                      A                      A
 Frequencies --    157.2613               206.8422               249.0219
 Red. masses --      5.9573                 4.6858                 6.1091
 Frc consts  --      0.0868                 0.1181                 0.2232
 IR Inten    --      0.2742                 0.8283                 0.5415

                     10                     11                     12
                      A                      A                      A
 Frequencies --    272.2293               326.7903               332.9022
 Red. masses --      5.6619                 1.1072                 4.6360
 Frc consts  --      0.2472                 0.0697                 0.3027
 IR Inten    --      0.3098               107.9642                 4.7715

                     13                     14                     15
                      A                      A                      A
 Frequencies --    343.6390               372.9847               410.6208
 Red. masses --      6.1233                 6.3244                 4.5308
 Frc consts  --      0.4260                 0.5184                 0.4501
 IR Inten    --      1.6266                 0.9459                 5.7657

                     16                     17                     18
                      A                      A                      A
 Frequencies --    416.5170               426.8474               444.8641
 Red. masses --      3.0347                 3.2810                 4.8101
 Frc consts  --      0.3102                 0.3522                 0.5609
 IR Inten    --      0.3519                 0.9604                 9.3007

                     19                     20                     21
                      A                      A                      A
 Frequencies --    469.0404               521.3187               536.9178
 Red. masses --      4.2255                 2.5171                 5.0474
 Frc consts  --      0.5477                 0.4030                 0.8573
 IR Inten    --      1.7947                10.0471                 1.4822

                     22                     23                     24
                      A                      A                      A
 Frequencies --    554.5556               567.0850               622.5815
 Red. masses --      3.9928                 4.1128                 5.1532
 Frc consts  --      0.7235                 0.7793                 1.1769
 IR Inten    --      1.6102                 2.4233                 0.7475

                     25                     26                     27
                      A                      A                      A
 Frequencies --    629.6818               637.3275               662.5836
 Red. masses --      6.8302                 6.3924                 6.7948
 Frc consts  --      1.5956                 1.5298                 1.7576
 IR Inten    --      5.1771                 0.7944                 0.3985

                     28                     29                     30
                      A                      A                      A
 Frequencies --    703.6218               712.8033               730.2841
 Red. masses --      4.4540                 1.9019                 5.3944
 Frc consts  --      1.2992                 0.5694                 1.6950
 IR Inten    --      0.2367                24.0295                 3.8655

                     31                     32                     33
                      A                      A                      A
 Frequencies --    746.5713               761.4758               787.1252
 Red. masses --      2.5156                 2.6125                 1.7594
 Frc consts  --      0.8261                 0.8925                 0.6422
 IR Inten    --     34.5931                 9.1761                 7.0348

                     34                     35                     36
                      A                      A                      A
 Frequencies --    795.1008               802.2531               838.5207
 Red. masses --      2.4458                 1.3430                 1.7296
 Frc consts  --      0.9110                 0.5093                 0.7165
 IR Inten    --     57.7590                 8.6931                37.0979

                     37                     38                     39
                      A                      A                      A
 Frequencies --    853.5090               859.8297               886.9980
 Red. masses --      4.3831                 1.2506                 1.5835
 Frc consts  --      1.8812                 0.5448                 0.7340
 IR Inten    --     15.2318                 0.9223                 2.0025

                     40                     41                     42
                      A                      A                      A
 Frequencies --    899.3173               914.5058               931.0189
 Red. masses --      5.2554                 1.3023                 1.4107
 Frc consts  --      2.5043                 0.6417                 0.7204
 IR Inten    --     20.9703                 1.9583                 2.9571

                     43                     44                     45
                      A                      A                      A
 Frequencies --    944.1406               952.0463               968.5778
 Red. masses --      1.2866                 1.3690                 1.3420
 Frc consts  --      0.6757                 0.7311                 0.7418
 IR Inten    --      0.3256                 1.6831                 0.6185

                     46                     47                     48
                      A                      A                      A
 Frequencies --    980.0592               993.7902              1022.7492
 Red. masses --      1.2487                 1.2469                 6.2059
 Frc consts  --      0.7066                 0.7255                 3.8247
 IR Inten    --      0.0066                 0.3360                 0.8578

                     49                     50                     51
                      A                      A                      A
 Frequencies --   1032.3704              1033.2753              1067.6463
 Red. masses --      6.9280                 2.5724                 2.1098
 Frc consts  --      4.3504                 1.6182                 1.4169
 IR Inten    --      3.6408                 1.5776                 0.1858

                     52                     53                     54
                      A                      A                      A
 Frequencies --   1078.3191              1113.6687              1131.0702
 Red. masses --      1.9050                 1.6153                 1.2837
 Frc consts  --      1.3051                 1.1804                 0.9676
 IR Inten    --      6.9183                 3.3048                19.7806

                     55                     56                     57
                      A                      A                      A
 Frequencies --   1139.6850              1191.4088              1194.4117
 Red. masses --      1.6464                 1.0998                 1.0969
 Frc consts  --      1.2600                 0.9198                 0.9220
 IR Inten    --      9.7507                 0.3922                 0.0832

                     58                     59                     60
                      A                      A                      A
 Frequencies --   1195.3534              1210.0571              1218.1345
 Red. masses --      1.1592                 1.4095                 1.1415
 Frc consts  --      0.9759                 1.2160                 0.9979
 IR Inten    --      1.4265               179.3362                 1.4515

                     61                     62                     63
                      A                      A                      A
 Frequencies --   1232.6583              1263.6616              1287.3397
 Red. masses --      2.9076                 2.7916                 2.1370
 Frc consts  --      2.6030                 2.6264                 2.0866
 IR Inten    --     24.1657               293.2857               150.9941

                     64                     65                     66
                      A                      A                      A
 Frequencies --   1314.1279              1317.9735              1337.7056
 Red. masses --      4.0737                 3.1418                 2.4385
 Frc consts  --      4.1449                 3.2154                 2.5710
 IR Inten    --      3.6233                12.4685                10.9378

                     67                     68                     69
                      A                      A                      A
 Frequencies --   1344.5734              1349.8847              1370.8307
 Red. masses --      1.9398                 5.1678                 1.7536
 Frc consts  --      2.0662                 5.5482                 1.9416
 IR Inten    --      6.4700                 0.1336                 0.5109

                     70                     71                     72
                      A                      A                      A
 Frequencies --   1385.3825              1481.6048              1493.7954
 Red. masses --      2.9065                 2.2163                 2.9332
 Frc consts  --      3.2867                 2.8664                 3.8563
 IR Inten    --     23.3105                48.7272                40.2513

                     73                     74                     75
                      A                      A                      A
 Frequencies --   1505.8633              1527.7341              1554.1190
 Red. masses --      2.4006                 2.4451                 2.5449
 Frc consts  --      3.2073                 3.3624                 3.6215
 IR Inten    --      4.7591                92.7305                53.6036

                     76                     77                     78
                      A                      A                      A
 Frequencies --   1561.8849              1626.6058              1643.1606
 Red. masses --      2.6953                 5.4215                 5.8963
 Frc consts  --      3.8739                 8.4515                 9.3798
 IR Inten    --    181.0923                 1.7665                 3.6193

                     79                     80                     81
                      A                      A                      A
 Frequencies --   1659.0960              1666.7893              1667.2660
 Red. masses --      6.3310                 6.3007                 5.7411
 Frc consts  --     10.2674                10.3134                 9.4028
 IR Inten    --      1.0690                12.0176                 2.4797

                     82                     83                     84
                      A                      A                      A
 Frequencies --   1682.9243              3169.9324              3181.5536
 Red. masses --      6.1812                 1.0896                 1.0848
 Frc consts  --     10.3147                 6.4508                 6.4699
 IR Inten    --      3.7166                22.4920                 2.7472

                     85                     86                     87
                      A                      A                      A
 Frequencies --   3188.4777              3190.1645              3198.2897
 Red. masses --      1.0861                 1.0873                 1.0911
 Frc consts  --      6.5057                 6.5197                 6.5758
 IR Inten    --      1.9822                 4.9494                24.6507

                     88                     89                     90
                      A                      A                      A
 Frequencies --   3200.3292              3209.3175              3210.0678
 Red. masses --      1.0910                 1.0956                 1.0885
 Frc consts  --      6.5838                 6.6488                 6.6085
 IR Inten    --      9.2710                24.4687                15.4740

                     91                     92                     93
                      A                      A                      A
 Frequencies --   3210.8134              3220.7067              3223.0035
 Red. masses --      1.0941                 1.0960                 1.0940
 Frc consts  --      6.6455                 6.6983                 6.6957
 IR Inten    --     25.1690                13.0297                 2.0147

                     94                     95                     96
                      A                      A                      A
 Frequencies --   3224.3909              3225.3190              3755.9994
 Red. masses --      1.0942                 1.0925                 1.0659
 Frc consts  --      6.7026                 6.6959                 8.8599
 IR Inten    --     11.4483                 0.8388                38.6876

 - Thermochemistry -
 -------------------
 Temperature   298.150 Kelvin.  Pressure   1.00000 Atm.
 Atom     1 has atomic number  6 and mass  12.00000

 Molecular mass:   262.09938 amu.
 Principal axes and moments of inertia in atomic units:
                           1         2         3
     Eigenvalues --  3775.931976112.623098139.89968
           X            0.99980  -0.01901  -0.00668
           Y            0.01903   0.99982   0.00198
           Z            0.00665  -0.00210   0.99998
 This molecule is an asymmetric top.
 Rotational symmetry number  1.
 Warning -- assumption of classical behavior for rotation
           may cause significant error
 Rotational temperatures (Kelvin)      0.02294     0.01417     0.01064
 Rotational constants (GHZ):           0.47796     0.29525     0.22172
 Zero-point vibrational energy     711250.4 (Joules/Mol)
                                  169.99292 (Kcal/Mol)
 Warning -- explicit consideration of  23 degrees of freedom as
           vibrations may cause significant error
 Vibrational temperatures:     34.37    43.10    79.92   110.19   119.86
          (Kelvin)            155.14   226.26   297.60   358.29   391.68
                              470.18   478.97   494.42   536.64   590.79
                              599.28   614.14   640.06   674.84   750.06
                              772.50   797.88   815.91   895.76   905.97
                              916.97   953.31  1012.35  1025.56  1050.72
                             1074.15  1095.59  1132.50  1143.97  1154.26
                             1206.44  1228.01  1237.10  1276.19  1293.92
                             1315.77  1339.53  1358.41  1369.78  1393.57
                             1410.09  1429.84  1471.51  1485.35  1486.65
                             1536.10  1551.46  1602.32  1627.36  1639.75
                             1714.17  1718.49  1719.85  1741.00  1752.62
                             1773.52  1818.13  1852.19  1890.74  1896.27
                             1924.66  1934.54  1942.18  1972.32  1993.26
                             2131.70  2149.24  2166.60  2198.07  2236.03
                             2247.20  2340.32  2364.14  2387.07  2398.14
                             2398.82  2421.35  4560.83  4577.55  4587.51
                             4589.94  4601.63  4604.56  4617.49  4618.57
                             4619.64  4633.88  4637.18  4639.18  4640.51
                             5404.05

 Zero-point correction=                           0.270901 (Hartree/Particle)
 Thermal correction to Energy=                    0.286729
 Thermal correction to Enthalpy=                  0.287673
 Thermal correction to Gibbs Free Energy=         0.226147
 Sum of electronic and zero-point Energies=           -844.588118
 Sum of electronic and thermal Energies=              -844.572290
 Sum of electronic and thermal Enthalpies=            -844.571345
 Sum of electronic and thermal Free Energies=         -844.632871

                     E (Thermal)             CV                S
                      KCal/Mol        Cal/Mol-Kelvin    Cal/Mol-Kelvin
 Total                  179.925             63.825            129.492
 Electronic               0.000              0.000              0.000
 Translational            0.889              2.981             42.590
 Rotational               0.889              2.981             33.596
 Vibrational            178.148             57.863             53.306
 Vibration     1          0.593              1.985              6.281
 Vibration     2          0.594              1.984              5.832
 Vibration     3          0.596              1.975              4.609
 Vibration     4          0.599              1.965              3.976
 Vibration     5          0.600              1.961              3.811
 Vibration     6          0.606              1.943              3.308
 Vibration     7          0.621              1.895              2.582
 Vibration     8          0.641              1.830              2.071
 Vibration     9          0.662              1.764              1.737
 Vibration    10          0.675              1.724              1.582
 Vibration    11          0.710              1.622              1.276
 Vibration    12          0.715              1.610              1.246
 Vibration    13          0.722              1.588              1.195
 Vibration    14          0.744              1.528              1.067
 Vibration    15          0.775              1.447              0.924
 Vibration    16          0.780              1.434              0.904
 Vibration    17          0.789              1.412              0.869
 Vibration    18          0.804              1.372              0.811
 Vibration    19          0.826              1.319              0.740
 Vibration    20          0.876              1.203              0.607
 Vibration    21          0.892              1.168              0.572
 Vibration    22          0.910              1.130              0.535
 Vibration    23          0.923              1.102              0.510

 Optimization completed.
    -- Stationary point found.
 Normal termination of Gaussian 16 at Sun Dec 13 16:51:37 2020.

 ----------------------------------------------------------------------
 # B3LYP/6-311++G(d,p) empiricaldispersion=gd3bj scf=xqc pop=npa geom=c
 heck
 ----------------------------------------------------------------------

 ----------------------------------------
 CID_153841730_JID_10076_Energie_neutraal
 ----------------------------------------
 Structure from the checkpoint file:  "JID_10076.chk"
 Charge =  0 Multiplicity = 1

 SCF Done:  E(RB3LYP) =  -845.084749420     A.U. after   16 cycles
 Normal termination of Gaussian 16 at Sun Dec 13 16:59:03 2020.

 ----------------------------------------------------------------------
 # B3LYP/6-311++G(d,p) empiricaldispersion=gd3bj scf=xqc pop=npa geom=c
 heck
 ----------------------------------------------------------------------

 --------------------------------------
 CID_153841730_JID_10076_Energie_kation
 --------------------------------------
 Structure from the checkpoint file:  "JID_10076.chk"
 Charge =  1 Multiplicity = 2

 SCF Done:  E(UB3LYP) =  -844.808747993     A.U. after   33 cycles
 SCF Done:  E(UB3LYP) =  -844.809504148     a.u. after   10 cycles
 Normal termination of Gaussian 16 at Sun Dec 13 19:50:22 2020.
 Gaussian 16:  ES64L-G16RevA.03 25-Dec-2016

 ----------------------------------------------------------------------
 # B3LYP/6-311++G(d,p) empiricaldispersion=gd3bj scf=xqc pop=npa geom=c
 heck
 ----------------------------------------------------------------------

 -------------------------------------
 CID_153841730_JID_10076_Energie_anion
 -------------------------------------
 Structure from the checkpoint file:  "JID_10076.chk"
 Charge = -1 Multiplicity = 2

                         Standard orientation:
 ---------------------------------------------------------------------
 Center     Atomic      Atomic             Coordinates (Angstroms)
 Number     Number       Type             X           Y           Z
 ---------------------------------------------------------------------
      1          6           0       -0.808398    3.544235    0.177631
      2          6           0       -0.219658    3.190637   -1.036552
      3          6           0        0.653606    2.106359   -1.100194
      4          6           0        0.952975    1.357234    0.046880
      5          6           0        0.356594    1.723290    1.262880
      6          6           0       -0.515484    2.806812    1.326258
      7          6           0        1.895110    0.215028   -0.038215
      8          6           0        3.105676    0.348186   -0.735029
      9          6           0        4.018958   -0.700538   -0.826777
     10          6           0        3.735593   -1.921921   -0.215884
     11          6           0        2.532925   -2.087675    0.469414
     12          6           0        1.626677   -1.033668    0.555213
     13          8           0        0.470711   -1.256937    1.283178
     14          6           0       -0.748692   -1.206568    0.626957
     15          6           0       -1.875958   -1.011556    1.426503
     16          6           0       -3.140695   -0.973952    0.852462
     17          6           0       -3.285410   -1.123428   -0.530736
     18          6           0       -2.155181   -1.319848   -1.325520
     19          6           0       -0.884671   -1.366023   -0.749408
     20          8           0       -4.556229   -1.067870   -1.043606
     21          1           0       -1.493443    4.385773    0.228460
     22          1           0       -0.446512    3.753699   -1.937678
     23          1           0        1.093346    1.818826   -2.051031
     24          1           0        0.578866    1.150447    2.156333
     25          1           0       -0.968169    3.076723    2.276277
     26          1           0        3.337632    1.308902   -1.185358
     27          1           0        4.952549   -0.558899   -1.363094
     28          1           0        4.441405   -2.745127   -0.275984
     29          1           0        2.272745   -3.029080    0.942133
     30          1           0       -1.744656   -0.886314    2.496135
     31          1           0       -4.026024   -0.820429    1.460453
     32          1           0       -2.260166   -1.439176   -2.402150
     33          1           0       -0.009669   -1.516684   -1.371205
     34          1           0       -4.507570   -1.179824   -2.005172
 ---------------------------------------------------------------------

 SCF Done:  E(UB3LYP) =  -845.080785949     A.U. after   33 cycles
 SCF Done:  E(UB3LYP) =  -845.080785949     a.u. after    1 cycles

 The electronic state is 2-A.
 Alpha  occ. eigenvalues --  -19.04326 -19.04300 -10.12039 -10.11743 -10.11385
 Alpha  occ. eigenvalues --  -10.06268 -10.06266 -10.06187 -10.06180 -10.06011
 Alpha  occ. eigenvalues --  -10.05839 -10.05772 -10.05583 -10.05567 -10.05552
 Alpha  occ. eigenvalues --  -10.05544 -10.05381 -10.05155 -10.04854 -10.04852
 Alpha  occ. eigenvalues --   -0.96239  -0.95215  -0.75215  -0.74104  -0.72860
 Alpha  occ. eigenvalues --   -0.66073  -0.64868  -0.64245  -0.62737  -0.61428
 Alpha  occ. eigenvalues --   -0.60044  -0.52382  -0.52117  -0.50919  -0.49094
 Alpha  occ. eigenvalues --   -0.47367  -0.46296  -0.43894  -0.42886  -0.40240
 Alpha  occ. eigenvalues --   -0.38814  -0.37240  -0.36459  -0.34374  -0.33974
 Alpha  occ. eigenvalues --   -0.32934  -0.32284  -0.31813  -0.31049  -0.30622
 Alpha  occ. eigenvalues --   -0.30396  -0.30250  -0.29916  -0.27462  -0.26988
 Alpha  occ. eigenvalues --   -0.25956  -0.25460  -0.24580  -0.24265  -0.22885
 Alpha  occ. eigenvalues --   -0.22562  -0.22209  -0.19595  -0.16357  -0.15018
 Alpha  occ. eigenvalues --   -0.13868  -0.13590  -0.11477  -0.09770   0.04493
 Alpha virt. eigenvalues --    0.06269   0.07664   0.08140   0.08720   0.09068
 Alpha virt. eigenvalues --    0.09503   0.09667   0.09796   0.10180   0.10391
 Alpha virt. eigenvalues --    0.10793   0.11250   0.11571   0.11873   0.12764

  Beta  occ. eigenvalues --  -19.04326 -19.04268 -10.12053 -10.11741 -10.11345
  Beta  occ. eigenvalues --  -10.06236 -10.06214 -10.06159 -10.06137 -10.06050
  Beta  occ. eigenvalues --  -10.05768 -10.05696 -10.05616 -10.05559 -10.05471
  Beta  occ. eigenvalues --  -10.05448 -10.05168 -10.05102 -10.04769 -10.04672
  Beta  occ. eigenvalues --   -0.96217  -0.95153  -0.75024  -0.73978  -0.72690
  Beta  occ. eigenvalues --   -0.65738  -0.64747  -0.64146  -0.62597  -0.61269
  Beta  occ. eigenvalues --   -0.59820  -0.52244  -0.52001  -0.50668  -0.48962
  Beta  occ. eigenvalues --   -0.47246  -0.46144  -0.43815  -0.42779  -0.40143
  Beta  occ. eigenvalues --   -0.38750  -0.37155  -0.36337  -0.34239  -0.33908
  Beta  occ. eigenvalues --   -0.32790  -0.32192  -0.31759  -0.30972  -0.30531
  Beta  occ. eigenvalues --   -0.30326  -0.30202  -0.29852  -0.27394  -0.26810
  Beta  occ. eigenvalues --   -0.25808  -0.25108  -0.24457  -0.24003  -0.22703
  Beta  occ. eigenvalues --   -0.22474  -0.22056  -0.19459  -0.15489  -0.14637
  Beta  occ. eigenvalues --   -0.13451  -0.13240  -0.10643  -0.09623
  Beta virt. eigenvalues --    0.07339   0.07758   0.08139   0.08194   0.08654
  Beta virt. eigenvalues --    0.09427   0.09555   0.09854   0.09878   0.10234
  Beta virt. eigenvalues --    0.10624   0.10975   0.11257   0.11795   0.12085

 Mulliken charges and spin densities:
               1          2
     1  C   -0.246654   0.045623
     2  C   -0.313509  -0.077555
     3  C   -0.468483   0.085441
     4  C    1.032719   0.006331
     5  C   -0.353598   0.069513
     6  C   -0.434306   0.036343
     7  C    0.574415   0.032558
     8  C   -0.476132   0.095365
     9  C   -0.356255  -0.019161
    10  C   -0.421606   0.105546
    11  C    0.095816  -0.001562
    12  C   -0.176344   0.085372
    13  O   -0.114776   0.001109
    14  C   -0.389439   0.104473
    15  C   -0.439192   0.290495
    16  C    0.229753  -0.419214
    17  C    0.797705  -1.286820
    18  C   -0.253031   0.364584
    19  C    0.090462   0.149149
    20  O   -0.287863   0.037022
    21  H    0.117001  -0.008432
    22  H    0.059346   0.081332
    23  H    0.101663   0.049637
    24  H    0.194491  -0.009483
    25  H    0.129596   0.008104
    26  H    0.146657  -0.009186
    27  H    0.121039   0.007510
    28  H    0.119179  -0.007500
    29  H    0.137813   0.010454
    30  H    0.159938   0.006688
    31  H    0.162416   0.000882
    32  H   -0.697502   0.853713
    33  H    0.298728  -0.094813
    34  H   -0.140046   0.406483
 Sum of Mulliken charges =  -1.00000   1.00000

 Dipole moment (field-independent basis, Debye):
    X=              3.1715    Y=              0.4075    Z=              2.8092  Tot=              4.2563
 Quadrupole moment (field-independent basis, Debye-Ang):
   XX=           -172.4842   YY=           -145.1084   ZZ=           -138.3511
   XY=             -6.8172   XZ=            -15.8193   YZ=             -3.3034

 Summary of Natural Population Analysis:

                                       Natural Population
                Natural  -----------------------------------------------
    Atom  No    Charge         Core      Valence    Rydberg      Total
 -----------------------------------------------------------------------
      C    1   -0.07516      0.99957     2.06732    0.00827     3.07516
      C    2   -0.11119      0.99957     2.10095    0.01067     3.11119
      C    3   -0.08591      0.99953     2.07666    0.00971     3.08591
      C    4   -0.01000      0.99944     1.99996    0.01060     3.01000
      C    5   -0.07906      0.99953     2.06904    0.01049     3.07906
      C    6   -0.11030      0.99957     2.10256    0.00817     3.11030
      C    7   -0.02187      0.99940     2.01170    0.01077     3.02187
      C    8   -0.06917      0.99947     2.06239    0.00731     3.06917
      C    9   -0.12289      0.99958     2.11440    0.00891     3.12289
      C   10   -0.06791      0.99958     2.05981    0.00852     3.06791
      C   11   -0.12138      0.99951     2.11356    0.00831     3.12138
      C   12    0.16127      0.99932     1.82480    0.01461     2.83873
      O   13   -0.27758      0.99984     3.26819    0.00956     4.27758
      C   14    0.14586      0.99934     1.84042    0.01437     2.85414
      C   15   -0.10634      0.99952     2.09906    0.00776     3.10634
      C   16   -0.11323      0.99953     2.10508    0.00862     3.11323
      C   17    0.14227      0.99938     1.84493    0.01342     2.85773
      C   18   -0.12178      0.99953     2.11191    0.01034     3.12178
      C   19   -0.11965      0.99951     2.11167    0.00846     3.11965
      O   20   -0.34643      0.99988     3.33976    0.00680     4.34643
      H   21    0.09090      0.00000     0.40800    0.00110     0.40910
      H   22    0.09529      0.00000     0.40392    0.00079     0.40471
      H   23    0.09709      0.00000     0.40132    0.00159     0.40291
      H   24    0.10103      0.00000     0.39780    0.00117     0.39897
      H   25    0.09380      0.00000     0.40529    0.00091     0.40620
      H   26    0.09708      0.00000     0.40170    0.00123     0.40292
      H   27    0.09387      0.00000     0.40515    0.00098     0.40613
      H   28    0.09120      0.00000     0.40783    0.00096     0.40880
      H   29    0.10086      0.00000     0.39779    0.00135     0.39914
      H   30    0.10175      0.00000     0.39707    0.00118     0.39825
      H   31    0.10141      0.00000     0.39775    0.00084     0.39859
      H   32    0.10004      0.00000     0.39811    0.00185     0.39996
      H   33    0.11021      0.00000     0.38827    0.00152     0.38979
      H   34    0.23594      0.00000     0.25827    0.00579     0.26406
 =======================================================================
   * Total *    0.00001     19.99060    48.79244    0.21695    68.99999

 Normal termination of Gaussian 16 at Sun Dec 13 20:10:19 2020.
