 Gaussian 16, Revision A.03,

 -----------------------------------------------------------
 # opt freq B3LYP/6-31G(d) empiricaldispersion=gd3bj scf=xqc
 -----------------------------------------------------------

 -------------------------------
 CID_111858494_JID_6771_neutraal
 -------------------------------
 Symbolic Z-matrix:
 Charge =  0 Multiplicity = 1

 SCF Done:  E(RB3LYP) =  -1038.68466168     A.U. after   13 cycles
 SCF Done:  E(RB3LYP) =  -1038.68824926     A.U. after   11 cycles
 SCF Done:  E(RB3LYP) =  -1038.68858878     A.U. after   10 cycles
 SCF Done:  E(RB3LYP) =  -1038.68896725     A.U. after   10 cycles
 SCF Done:  E(RB3LYP) =  -1038.68897523     A.U. after   10 cycles
 SCF Done:  E(RB3LYP) =  -1038.68904845     A.U. after    9 cycles
 SCF Done:  E(RB3LYP) =  -1038.68905241     A.U. after    9 cycles
 SCF Done:  E(RB3LYP) =  -1038.68905925     A.U. after    9 cycles
 SCF Done:  E(RB3LYP) =  -1038.68905989     A.U. after    7 cycles
 SCF Done:  E(RB3LYP) =  -1038.68905997     A.U. after    6 cycles
 Optimization completed.
    -- Stationary point found.
 Normal termination of Gaussian 16 at Fri Dec 11 00:25:52 2020.

 --------------------------------------------------------------------
 #N Geom=AllCheck Guess=TCheck SCRF=Check GenChk RB3LYP/6-31G(d) Freq
 --------------------------------------------------------------------

 Structure from the checkpoint file:  "JID_6771.chk"
 -------------------------------
 CID_111858494_JID_6771_neutraal
 -------------------------------
 Charge =  0 Multiplicity = 1

 SCF Done:  E(RB3LYP) =  -1038.68905997     A.U. after    1 cycles

  Exact polarizability: 183.700  -3.571 155.143   6.128  -1.903 136.833
 Approx polarizability: 228.214   2.349 235.626   8.100  -9.421 216.664

                      1                      2                      3
                      A                      A                      A
 Frequencies --     43.5421                55.1758                71.5957
 Red. masses --      3.8025                 3.4779                 3.6148
 Frc consts  --      0.0042                 0.0062                 0.0109
 IR Inten    --      2.0762                 0.9075                 0.3952

                      4                      5                      6
                      A                      A                      A
 Frequencies --    104.8875               128.0624               168.2063
 Red. masses --      3.2530                 3.2333                 3.0643
 Frc consts  --      0.0211                 0.0312                 0.0511
 IR Inten    --      0.2032                 0.1844                 0.1858

                      7                      8                      9
                      A                      A                      A
 Frequencies --    190.3382               216.8021               218.6489
 Red. masses --      3.8455                 1.3896                 2.0375
 Frc consts  --      0.0821                 0.0385                 0.0574
 IR Inten    --      0.1503                 0.9216                 2.2648

                     10                     11                     12
                      A                      A                      A
 Frequencies --    235.4889               259.2479               286.0044
 Red. masses --      2.4737                 2.7120                 1.4409
 Frc consts  --      0.0808                 0.1074                 0.0694
 IR Inten    --      0.9699                 0.5029                 0.6469

                     13                     14                     15
                      A                      A                      A
 Frequencies --    301.2128               311.5846               329.8283
 Red. masses --      1.7094                 2.7842                 2.1413
 Frc consts  --      0.0914                 0.1593                 0.1372
 IR Inten    --      0.1045                 0.9253                 0.4974

                     16                     17                     18
                      A                      A                      A
 Frequencies --    366.7640               383.2111               393.1020
 Red. masses --      2.4095                 2.6957                 1.9713
 Frc consts  --      0.1910                 0.2332                 0.1795
 IR Inten    --      2.0919                 3.0960                 0.2389

                     19                     20                     21
                      A                      A                      A
 Frequencies --    414.3181               434.6677               452.5545
 Red. masses --      2.6613                 2.4584                 2.5405
 Frc consts  --      0.2692                 0.2737                 0.3066
 IR Inten    --      2.3406                 2.1969                 1.7064

                     22                     23                     24
                      A                      A                      A
 Frequencies --    466.1205               475.1510               497.1108
 Red. masses --      3.2149                 2.3115                 1.9172
 Frc consts  --      0.4115                 0.3075                 0.2791
 IR Inten    --      5.4855                 5.6244                 0.5334

                     25                     26                     27
                      A                      A                      A
 Frequencies --    515.0659               558.8391               561.1683
 Red. masses --      2.2928                 1.7828                 2.5677
 Frc consts  --      0.3584                 0.3280                 0.4764
 IR Inten    --     13.4973                15.2956                37.4801

                     28                     29                     30
                      A                      A                      A
 Frequencies --    610.2948               650.5452               684.7254
 Red. masses --      1.4148                 2.7691                 5.2263
 Frc consts  --      0.3105                 0.6905                 1.4437
 IR Inten    --    116.1478                10.3484                 6.1266

                     31                     32                     33
                      A                      A                      A
 Frequencies --    783.0627               793.1166               812.4463
 Red. masses --      3.5628                 1.9760                 2.0346
 Frc consts  --      1.2872                 0.7323                 0.7913
 IR Inten    --      7.1522                 1.9755                 0.7787

                     34                     35                     36
                      A                      A                      A
 Frequencies --    814.1709               860.7098               876.0199
 Red. masses --      2.7052                 2.5335                 1.6141
 Frc consts  --      1.0565                 1.1058                 0.7298
 IR Inten    --      5.1822                 1.0139                 1.8847

                     37                     38                     39
                      A                      A                      A
 Frequencies --    893.7899               907.1739               926.9404
 Red. masses --      2.1410                 2.0060                 2.1338
 Frc consts  --      1.0077                 0.9727                 1.0802
 IR Inten    --      5.5029                 1.3265                 6.1723

                     40                     41                     42
                      A                      A                      A
 Frequencies --    946.8623               955.1840               961.9564
 Red. masses --      1.6959                 1.5086                 1.8208
 Frc consts  --      0.8958                 0.8109                 0.9927
 IR Inten    --      1.6228                 6.1375                 3.9958

                     43                     44                     45
                      A                      A                      A
 Frequencies --    965.6671               976.5086              1001.4866
 Red. masses --      2.1933                 2.2549                 1.8520
 Frc consts  --      1.2050                 1.2669                 1.0944
 IR Inten    --      4.8638                 8.3782                17.4428

                     46                     47                     48
                      A                      A                      A
 Frequencies --   1014.3520              1032.5977              1035.5724
 Red. masses --      1.7785                 1.4629                 1.9700
 Frc consts  --      1.0781                 0.9190                 1.2447
 IR Inten    --     18.6719                11.3287                17.3724

                     49                     50                     51
                      A                      A                      A
 Frequencies --   1054.4301              1091.8151              1104.9015
 Red. masses --      1.8859                 1.6830                 2.5121
 Frc consts  --      1.2354                 1.1820                 1.8069
 IR Inten    --      1.5683                 2.2809                 1.3723

                     52                     53                     54
                      A                      A                      A
 Frequencies --   1113.8175              1132.9379              1142.0286
 Red. masses --      2.2705                 1.6658                 1.8828
 Frc consts  --      1.6596                 1.2598                 1.4468
 IR Inten    --     26.8369                 7.3958                50.6791

                     55                     56                     57
                      A                      A                      A
 Frequencies --   1170.4464              1177.9773              1184.6273
 Red. masses --      1.5332                 1.9290                 1.8706
 Frc consts  --      1.2376                 1.5771                 1.5467
 IR Inten    --      1.3866                47.2171                13.0173

                     58                     59                     60
                      A                      A                      A
 Frequencies --   1216.6452              1225.1635              1247.7600
 Red. masses --      1.4173                 1.4405                 2.2808
 Frc consts  --      1.2361                 1.2739                 2.0922
 IR Inten    --      2.0349                 2.6372                 9.2958

                     61                     62                     63
                      A                      A                      A
 Frequencies --   1265.1979              1288.8179              1306.4245
 Red. masses --      2.5112                 1.6516                 1.3716
 Frc consts  --      2.3684                 1.6164                 1.3793
 IR Inten    --     12.9372                12.8699                 0.8128

                     64                     65                     66
                      A                      A                      A
 Frequencies --   1315.4909              1320.3228              1331.8372
 Red. masses --      1.2393                 1.3309                 1.3108
 Frc consts  --      1.2636                 1.3669                 1.3699
 IR Inten    --      1.9589                 1.5631                 8.6073

                     67                     68                     69
                      A                      A                      A
 Frequencies --   1360.9455              1370.4918              1384.4816
 Red. masses --      1.2861                 1.3660                 1.2744
 Frc consts  --      1.4035                 1.5116                 1.4392
 IR Inten    --     70.8626                 1.1538                13.1178

                     70                     71                     72
                      A                      A                      A
 Frequencies --   1389.1680              1397.8325              1403.6734
 Red. masses --      1.4073                 1.4256                 1.4481
 Frc consts  --      1.6002                 1.6411                 1.6810
 IR Inten    --      6.8785                18.6575                 0.9087

                     73                     74                     75
                      A                      A                      A
 Frequencies --   1405.8298              1410.7147              1416.8510
 Red. masses --      1.4365                 1.3802                 1.3005
 Frc consts  --      1.6727                 1.6184                 1.5382
 IR Inten    --      2.2641                 8.2204                10.1040

                     76                     77                     78
                      A                      A                      A
 Frequencies --   1422.3189              1428.7104              1441.2918
 Red. masses --      1.4015                 1.2727                 1.3756
 Frc consts  --      1.6705                 1.5307                 1.6837
 IR Inten    --     11.6692                 8.7408                22.3596

                     79                     80                     81
                      A                      A                      A
 Frequencies --   1447.4200              1491.6261              1493.2149
 Red. masses --      1.4164                 1.0883                 1.0836
 Frc consts  --      1.7483                 1.4267                 1.4236
 IR Inten    --     29.7287                 8.5585                 0.0897

                     82                     83                     84
                      A                      A                      A
 Frequencies --   1502.1155              1507.3213              1509.6360
 Red. masses --      1.0822                 1.0659                 1.0761
 Frc consts  --      1.4387                 1.4268                 1.4450
 IR Inten    --      4.6320                 0.3638                 5.1512

                     85                     86                     87
                      A                      A                      A
 Frequencies --   1514.5499              1516.4865              1521.1902
 Red. masses --      1.0898                 1.0916                 1.0826
 Frc consts  --      1.4728                 1.4791                 1.4760
 IR Inten    --      1.2901                 7.0493                 3.1993

                     88                     89                     90
                      A                      A                      A
 Frequencies --   1522.7542              1526.7965              1529.3405
 Red. masses --      1.0627                 1.0777                 1.0873
 Frc consts  --      1.4518                 1.4802                 1.4983
 IR Inten    --     10.8134                 3.1302                 2.8596

                     91                     92                     93
                      A                      A                      A
 Frequencies --   1536.2501              1542.9003              3010.4772
 Red. masses --      1.0979                 1.0551                 1.0700
 Frc consts  --      1.5266                 1.4798                 5.7133
 IR Inten    --      1.8611                 7.1897                 9.9538

                     94                     95                     96
                      A                      A                      A
 Frequencies --   3015.8650              3020.9562              3024.0925
 Red. masses --      1.0680                 1.0683                 1.0671
 Frc consts  --      5.7231                 5.7443                 5.7497
 IR Inten    --     21.4038                37.1030                36.6502

                     97                     98                     99
                      A                      A                      A
 Frequencies --   3033.4281              3044.9355              3045.3692
 Red. masses --      1.0613                 1.0614                 1.0391
 Frc consts  --      5.7539                 5.7982                 5.6776
 IR Inten    --     32.5035                16.3156                 8.8337

                    100                    101                    102
                      A                      A                      A
 Frequencies --   3048.9887              3049.0495              3055.5125
 Red. masses --      1.0620                 1.0618                 1.0369
 Frc consts  --      5.8169                 5.8157                 5.7034
 IR Inten    --     51.1366                14.9734                17.0689

                    103                    104                    105
                      A                      A                      A
 Frequencies --   3062.6265              3076.0007              3078.3402
 Red. masses --      1.0605                 1.0940                 1.0992
 Frc consts  --      5.8608                 6.0985                 6.1369
 IR Inten    --     14.1455                70.0427                10.9410

                    106                    107                    108
                      A                      A                      A
 Frequencies --   3082.4767              3086.0486              3091.6535
 Red. masses --      1.1005                 1.1022                 1.1012
 Frc consts  --      6.1610                 6.1847                 6.2015
 IR Inten    --     48.9011                12.9475                50.3212

                    109                    110                    111
                      A                      A                      A
 Frequencies --   3099.8122              3103.8546              3115.0358
 Red. masses --      1.0933                 1.0994                 1.0996
 Frc consts  --      6.1894                 6.2404                 6.2865
 IR Inten    --     44.9668                44.2043                24.0581

                    112                    113                    114
                      A                      A                      A
 Frequencies --   3116.6316              3117.4052              3124.7028
 Red. masses --      1.1042                 1.0968                 1.1015
 Frc consts  --      6.3194                 6.2803                 6.3364
 IR Inten    --     22.4079                 2.7817                27.9785

                    115                    116                    117
                      A                      A                      A
 Frequencies --   3129.1791              3132.8883              3628.4592
 Red. masses --      1.1023                 1.1020                 1.0641
 Frc consts  --      6.3591                 6.3726                 8.2540
 IR Inten    --     28.0483                45.1549                61.6526

 - Thermochemistry -
 -------------------
 Temperature   298.150 Kelvin.  Pressure   1.00000 Atm.
 Atom     1 has atomic number  6 and mass  12.00000

 Molecular mass:   243.16569 amu.
 Principal axes and moments of inertia in atomic units:
                           1         2         3
     Eigenvalues --  2079.107226541.000357308.84905
           X            0.99984  -0.01578   0.00871
           Y            0.01562   0.99971   0.01819
           Z           -0.00900  -0.01805   0.99980
 This molecule is an asymmetric top.
 Rotational symmetry number  1.
 Warning -- assumption of classical behavior for rotation
           may cause significant error
 Rotational temperatures (Kelvin)      0.04166     0.01324     0.01185
 Rotational constants (GHZ):           0.86804     0.27591     0.24693
 Zero-point vibrational energy     981058.8 (Joules/Mol)
                                  234.47868 (Kcal/Mol)
 Warning -- explicit consideration of  28 degrees of freedom as
           vibrations may cause significant error
 Vibrational temperatures:     62.65    79.39   103.01   150.91   184.25
          (Kelvin)            242.01   273.85   311.93   314.59   338.82
                              373.00   411.50   433.38   448.30   474.55
                              527.69   551.36   565.59   596.11   625.39
                              651.13   670.64   683.64   715.23   741.06
                              804.04   807.40   878.08   935.99   985.17
                             1126.65  1141.12  1168.93  1171.41  1238.37
                             1260.40  1285.96  1305.22  1333.66  1362.32
                             1374.30  1384.04  1389.38  1404.98  1440.92
                             1459.43  1485.68  1489.96  1517.09  1570.88
                             1589.71  1602.53  1630.04  1643.12  1684.01
                             1694.85  1704.41  1750.48  1762.74  1795.25
                             1820.34  1854.32  1879.65  1892.70  1899.65
                             1916.22  1958.10  1971.83  1991.96  1998.70
                             2011.17  2019.57  2022.68  2029.70  2038.53
                             2046.40  2055.60  2073.70  2082.51  2146.12
                             2148.40  2161.21  2168.70  2172.03  2179.10
                             2181.89  2188.65  2190.90  2196.72  2200.38
                             2210.32  2219.89  4331.41  4339.16  4346.48
                             4350.99  4364.43  4380.98  4381.61  4386.81
                             4386.90  4396.20  4406.44  4425.68  4429.04
                             4435.00  4440.14  4448.20  4459.94  4465.75
                             4481.84  4484.14  4485.25  4495.75  4502.19
                             4507.53  5220.54

 Zero-point correction=                           0.373666 (Hartree/Particle)
 Thermal correction to Energy=                    0.390187
 Thermal correction to Enthalpy=                  0.391131
 Thermal correction to Gibbs Free Energy=         0.330636
 Sum of electronic and zero-point Energies=          -1038.315394
 Sum of electronic and thermal Energies=             -1038.298873
 Sum of electronic and thermal Enthalpies=           -1038.297929
 Sum of electronic and thermal Free Energies=        -1038.358424

                     E (Thermal)             CV                S
                      KCal/Mol        Cal/Mol-Kelvin    Cal/Mol-Kelvin
 Total                  244.846             66.849            127.322
 Electronic               0.000              0.000              0.000
 Translational            0.889              2.981             42.367
 Rotational               0.889              2.981             32.963
 Vibrational            243.068             60.887             51.992
 Vibration     1          0.595              1.980              5.091
 Vibration     2          0.596              1.976              4.623
 Vibration     3          0.598              1.968              4.109
 Vibration     4          0.605              1.945              3.361
 Vibration     5          0.611              1.925              2.975
 Vibration     6          0.625              1.882              2.455
 Vibration     7          0.634              1.853              2.225
 Vibration     8          0.646              1.815              1.986
 Vibration     9          0.646              1.813              1.970
 Vibration    10          0.655              1.786              1.837
 Vibration    11          0.668              1.747              1.667
 Vibration    12          0.684              1.700              1.497
 Vibration    13          0.693              1.671              1.410
 Vibration    14          0.700              1.652              1.354
 Vibration    15          0.713              1.616              1.261
 Vibration    16          0.740              1.541              1.093
 Vibration    17          0.752              1.506              1.026
 Vibration    18          0.760              1.485              0.988
 Vibration    19          0.778              1.439              0.911
 Vibration    20          0.795              1.395              0.844
 Vibration    21          0.811              1.355              0.788
 Vibration    22          0.823              1.325              0.748
 Vibration    23          0.832              1.305              0.723
 Vibration    24          0.853              1.256              0.665
 Vibration    25          0.870              1.217              0.622
 Vibration    26          0.914              1.120              0.526
 Vibration    27          0.917              1.115              0.522
 Vibration    28          0.969              1.010              0.432

 Optimization completed.
    -- Stationary point found.
 Normal termination of Gaussian 16 at Fri Dec 11 00:41:28 2020.

 ----------------------------------------------------------------------
 # B3LYP/6-311++G(d,p) empiricaldispersion=gd3bj scf=xqc pop=npa geom=c
 heck
 ----------------------------------------------------------------------

 ---------------------------------------
 CID_111858494_JID_6771_Energie_neutraal
 ---------------------------------------
 Structure from the checkpoint file:  "JID_6771.chk"
 Charge =  0 Multiplicity = 1

 SCF Done:  E(RB3LYP) =  -1038.89929293     A.U. after   14 cycles
 Normal termination of Gaussian 16 at Fri Dec 11 00:49:04 2020.

 ----------------------------------------------------------------------
 # B3LYP/6-311++G(d,p) empiricaldispersion=gd3bj scf=xqc pop=npa geom=c
 heck
 ----------------------------------------------------------------------

 -------------------------------------
 CID_111858494_JID_6771_Energie_kation
 -------------------------------------
 Structure from the checkpoint file:  "JID_6771.chk"
 Charge =  1 Multiplicity = 2

 SCF Done:  E(UB3LYP) =  -1038.62366669     A.U. after   22 cycles
 Normal termination of Gaussian 16 at Fri Dec 11 01:05:16 2020.
 Gaussian 16:  ES64L-G16RevA.03 25-Dec-2016

 ----------------------------------------------------------------------
 # B3LYP/6-311++G(d,p) empiricaldispersion=gd3bj scf=xqc pop=npa geom=c
 heck
 ----------------------------------------------------------------------

 ------------------------------------
 CID_111858494_JID_6771_Energie_anion
 ------------------------------------
 Structure from the checkpoint file:  "JID_6771.chk"
 Charge = -1 Multiplicity = 2

                         Standard orientation:
 ---------------------------------------------------------------------
 Center     Atomic      Atomic             Coordinates (Angstroms)
 Number     Number       Type             X           Y           Z
 ---------------------------------------------------------------------
      1          6           0       -4.193739    0.605916   -0.178053
      2          6           0       -3.287437   -0.622355   -0.018637
      3          6           0       -3.856157   -1.820216   -0.773107
      4          6           0       -1.838968   -0.340176   -0.487366
      5          7           0       -1.153292    0.558700    0.447827
      6          6           0       -0.990981    1.941257    0.007171
      7          6           0        0.192727    2.164841   -0.936533
      8         16           0        1.784892    1.731788   -0.140309
      9          6           0        1.371684   -0.005736    0.396570
     10          6           0        0.016222    0.024932    1.142328
     11          6           0        1.371028   -0.969107   -0.807502
     12          6           0        2.756231   -1.161473   -1.437006
     13          6           0        3.791449   -1.605038   -0.397334
     14          6           0        3.843482   -0.622319    0.778247
     15          6           0        2.455681   -0.436336    1.404124
     16          8           0       -3.225981   -0.990756    1.360175
     17          1           0       -4.264775    0.925798   -1.224981
     18          1           0       -3.814323    1.444747    0.415069
     19          1           0       -5.200023    0.370901    0.182679
     20          1           0       -3.895998   -1.621588   -1.850235
     21          1           0       -3.236009   -2.705977   -0.601170
     22          1           0       -4.870053   -2.041216   -0.424935
     23          1           0       -1.314723   -1.298266   -0.518341
     24          1           0       -1.835632    0.059411   -1.511385
     25          1           0       -1.915944    2.256448   -0.486235
     26          1           0       -0.858506    2.574090    0.893897
     27          1           0        0.070104    1.592451   -1.862759
     28          1           0        0.274882    3.222021   -1.208539
     29          1           0        0.160679    0.623453    2.051490
     30          1           0       -0.228828   -0.995604    1.461359
     31          1           0        1.002205   -1.943119   -0.450361
     32          1           0        0.661116   -0.630187   -1.568288
     33          1           0        3.077230   -0.216290   -1.891163
     34          1           0        2.687143   -1.898534   -2.246413
     35          1           0        4.781071   -1.697798   -0.860796
     36          1           0        3.524209   -2.603778   -0.020893
     37          1           0        4.224877    0.346031    0.429572
     38          1           0        4.542890   -0.977022    1.544952
     39          1           0        2.496684    0.285586    2.228015
     40          1           0        2.130856   -1.394810    1.837306
     41          1           0       -2.663834   -0.295350    1.753501
 ---------------------------------------------------------------------

 SCF Done:  E(UB3LYP) =  -1038.88741399     A.U. after   29 cycles

 The electronic state is 2-A.
 Alpha  occ. eigenvalues --  -88.73658 -19.01434 -14.21801 -10.12731 -10.11486
 Alpha  occ. eigenvalues --  -10.10609 -10.10504 -10.09946 -10.09634 -10.08127
 Alpha  occ. eigenvalues --  -10.07644 -10.07326 -10.07243 -10.06755 -10.06198
 Alpha  occ. eigenvalues --  -10.06087  -7.82321  -5.78691  -5.78362  -5.77691
 Alpha  occ. eigenvalues --   -0.92398  -0.83783  -0.75437  -0.70035  -0.68284
 Alpha  occ. eigenvalues --   -0.67741  -0.65431  -0.60660  -0.59831  -0.59254
 Alpha  occ. eigenvalues --   -0.54124  -0.52671  -0.51247  -0.48132  -0.46195
 Alpha  occ. eigenvalues --   -0.43480  -0.40895  -0.40012  -0.39161  -0.37241
 Alpha  occ. eigenvalues --   -0.36326  -0.35618  -0.35367  -0.34805  -0.33773
 Alpha  occ. eigenvalues --   -0.33253  -0.31512  -0.31249  -0.29607  -0.29336
 Alpha  occ. eigenvalues --   -0.29202  -0.28853  -0.28605  -0.27513  -0.26735
 Alpha  occ. eigenvalues --   -0.26356  -0.25720  -0.25080  -0.23927  -0.23690
 Alpha  occ. eigenvalues --   -0.22566  -0.22075  -0.21263  -0.20205  -0.17699
 Alpha  occ. eigenvalues --   -0.14072  -0.11502   0.04148
 Alpha virt. eigenvalues --    0.05971   0.06986   0.07152   0.07882   0.08285
 Alpha virt. eigenvalues --    0.08579   0.09012   0.09724   0.09927   0.10338
 Alpha virt. eigenvalues --    0.10699   0.10995   0.11568   0.11953   0.12203

  Beta  occ. eigenvalues --  -88.73653 -19.01425 -14.21803 -10.12730 -10.11485
  Beta  occ. eigenvalues --  -10.10600 -10.10486 -10.09915 -10.09612 -10.08119
  Beta  occ. eigenvalues --  -10.07638 -10.07307 -10.07227 -10.06740 -10.06175
  Beta  occ. eigenvalues --  -10.06060  -7.82316  -5.78679  -5.78359  -5.77686
  Beta  occ. eigenvalues --   -0.92378  -0.83771  -0.75418  -0.70007  -0.68257
  Beta  occ. eigenvalues --   -0.67715  -0.65405  -0.60623  -0.59790  -0.59215
  Beta  occ. eigenvalues --   -0.54078  -0.52634  -0.51204  -0.48091  -0.46151
  Beta  occ. eigenvalues --   -0.43441  -0.40856  -0.39986  -0.39131  -0.37212
  Beta  occ. eigenvalues --   -0.36297  -0.35592  -0.35343  -0.34781  -0.33746
  Beta  occ. eigenvalues --   -0.33213  -0.31471  -0.31224  -0.29580  -0.29305
  Beta  occ. eigenvalues --   -0.29174  -0.28828  -0.28573  -0.27490  -0.26711
  Beta  occ. eigenvalues --   -0.26329  -0.25695  -0.25057  -0.23895  -0.23653
  Beta  occ. eigenvalues --   -0.22543  -0.22048  -0.21237  -0.20183  -0.17684
  Beta  occ. eigenvalues --   -0.14058  -0.11488
  Beta virt. eigenvalues --    0.06132   0.06715   0.07520   0.07613   0.08210
  Beta virt. eigenvalues --    0.08715   0.08899   0.09403   0.09890   0.10136
  Beta virt. eigenvalues --    0.10525   0.10988   0.11337   0.11739   0.12294

 Mulliken charges and spin densities:
               1          2
     1  C    0.957228  -1.459741
     2  C   -1.167977   1.397747
     3  C    0.268038  -0.838615
     4  C    0.094386  -0.839292
     5  N    0.130617   0.061814
     6  C   -0.651287   0.720079
     7  C    0.561374  -1.175800
     8  S    0.118179  -0.525125
     9  C    0.041474   1.292650
    10  C    0.114685  -1.066825
    11  C    0.211720  -0.707657
    12  C   -0.180719  -0.197507
    13  C    0.176754  -0.684488
    14  C   -0.259957  -0.103657
    15  C   -0.176972  -0.196349
    16  O   -0.121575  -0.013333
    17  H   -0.222218   0.384146
    18  H   -0.044232   0.186447
    19  H    0.031926   0.122013
    20  H   -0.282050   0.431413
    21  H   -0.112870   0.268376
    22  H    0.096038   0.053186
    23  H    0.189882  -0.028162
    24  H   -0.078182   0.263218
    25  H   -0.244374   0.414877
    26  H   -0.127508   0.260444
    27  H   -0.162108   0.352644
    28  H   -0.392327   0.642724
    29  H    0.121580   0.066531
    30  H    0.073596   0.110833
    31  H    0.099518   0.082442
    32  H   -0.063343   0.226921
    33  H    0.158490  -0.007759
    34  H   -0.339138   0.518646
    35  H   -0.104066   0.273318
    36  H   -0.047649   0.171408
    37  H    0.095605   0.031985
    38  H   -0.012651   0.187423
    39  H    0.086312   0.070982
    40  H   -0.055343   0.198490
    41  H    0.219147   0.053552
 Sum of Mulliken charges =  -1.00000   1.00000

 Dipole moment (field-independent basis, Debye):
    X=              2.2454    Y=              0.5172    Z=              3.5735  Tot=              4.2520
 Quadrupole moment (field-independent basis, Debye-Ang):
   XX=           -184.6879   YY=           -161.0485   ZZ=           -152.1429
   XY=              3.3091   XZ=             -2.4263   YZ=              2.4028

 Summary of Natural Population Analysis:

                                       Natural Population
                Natural  -----------------------------------------------
    Atom  No    Charge         Core      Valence    Rydberg      Total
 -----------------------------------------------------------------------
      C    1   -0.29756      0.99961     2.29100    0.00695     3.29756
      C    2    0.11880      0.99956     1.86635    0.01530     2.88120
      C    3   -0.29050      0.99961     2.28392    0.00696     3.29050
      C    4   -0.09621      0.99953     2.08397    0.01271     3.09621
      N    5   -0.29857      0.99972     2.78367    0.01518     3.79857
      C    6   -0.08486      0.99958     2.07296    0.01232     3.08486
      C    7   -0.26060      0.99959     2.25034    0.01067     3.26060
      S    8    0.08666      4.99957     2.89776    0.01602     7.91334
      C    9   -0.08904      0.99952     2.07450    0.01502     3.08904
      C   10   -0.08356      0.99953     2.07158    0.01245     3.08356
      C   11   -0.20101      0.99956     2.18933    0.01212     3.20101
      C   12   -0.19193      0.99962     2.18319    0.00912     3.19193
      C   13   -0.18848      0.99963     2.18134    0.00752     3.18848
      C   14   -0.19129      0.99962     2.18314    0.00852     3.19129
      C   15   -0.19719      0.99957     2.18711    0.01051     3.19719
      O   16   -0.38197      0.99989     3.37605    0.00602     4.38197
      H   17    0.10177      0.00000     0.39694    0.00129     0.39823
      H   18    0.09977      0.00000     0.39902    0.00122     0.40023
      H   19    0.10103      0.00000     0.39807    0.00091     0.39897
      H   20    0.10240      0.00000     0.39645    0.00114     0.39760
      H   21    0.10332      0.00000     0.39572    0.00095     0.39668
      H   22    0.10131      0.00000     0.39789    0.00081     0.39869
      H   23    0.10099      0.00000     0.39710    0.00191     0.39901
      H   24    0.09820      0.00000     0.39944    0.00237     0.40180
      H   25    0.10276      0.00000     0.39566    0.00158     0.39724
      H   26    0.09550      0.00000     0.40325    0.00125     0.40450
      H   27    0.10177      0.00000     0.39630    0.00193     0.39823
      H   28    0.10997      0.00000     0.38878    0.00125     0.39003
      H   29    0.09799      0.00000     0.40074    0.00127     0.40201
      H   30    0.10248      0.00000     0.39623    0.00129     0.39752
      H   31    0.09908      0.00000     0.39907    0.00185     0.40092
      H   32    0.10504      0.00000     0.39290    0.00206     0.39496
      H   33    0.10071      0.00000     0.39790    0.00139     0.39929
      H   34    0.10041      0.00000     0.39857    0.00101     0.39959
      H   35    0.09772      0.00000     0.40139    0.00089     0.40228
      H   36    0.09264      0.00000     0.40604    0.00132     0.40736
      H   37    0.09809      0.00000     0.40072    0.00119     0.40191
      H   38    0.09787      0.00000     0.40131    0.00083     0.40213
      H   39    0.10377      0.00000     0.39522    0.00101     0.39623
      H   40    0.09954      0.00000     0.39907    0.00139     0.40046
      H   41    0.23320      0.00000     0.26385    0.00295     0.26680
 =======================================================================
   * Total *   -0.00000     19.99372    46.79383    0.21245    67.00000

 Normal termination of Gaussian 16 at Fri Dec 11 01:26:02 2020.
