 Gaussian 16, Revision A.03,

 -----------------------------------------------------------
 # opt freq B3LYP/6-31G(d) empiricaldispersion=gd3bj scf=xqc
 -----------------------------------------------------------

 ------------------------------
 CID_59582725_JID_1961_neutraal
 ------------------------------
 Symbolic Z-matrix:
 Charge =  0 Multiplicity = 1

 SCF Done:  E(RB3LYP) =  -500.490382842     A.U. after   13 cycles
 SCF Done:  E(RB3LYP) =  -500.494075894     A.U. after   11 cycles
 SCF Done:  E(RB3LYP) =  -500.494698885     A.U. after   12 cycles
 SCF Done:  E(RB3LYP) =  -500.494942135     A.U. after   12 cycles
 SCF Done:  E(RB3LYP) =  -500.495101314     A.U. after   11 cycles
 SCF Done:  E(RB3LYP) =  -500.495167076     A.U. after   10 cycles
 SCF Done:  E(RB3LYP) =  -500.495199747     A.U. after   10 cycles
 SCF Done:  E(RB3LYP) =  -500.495223177     A.U. after   10 cycles
 SCF Done:  E(RB3LYP) =  -500.495235405     A.U. after   10 cycles
 SCF Done:  E(RB3LYP) =  -500.495237521     A.U. after    8 cycles
 SCF Done:  E(RB3LYP) =  -500.495238065     A.U. after    8 cycles
 SCF Done:  E(RB3LYP) =  -500.495238260     A.U. after    7 cycles
 Optimization completed.
    -- Stationary point found.
 Normal termination of Gaussian 16 at Tue Dec  8 21:47:20 2020.

 --------------------------------------------------------------------
 #N Geom=AllCheck Guess=TCheck SCRF=Check GenChk RB3LYP/6-31G(d) Freq
 --------------------------------------------------------------------

 Structure from the checkpoint file:  "JID_1961.chk"
 ------------------------------
 CID_59582725_JID_1961_neutraal
 ------------------------------
 Charge =  0 Multiplicity = 1

 SCF Done:  E(RB3LYP) =  -500.495238260     A.U. after    1 cycles

  Exact polarizability: 115.765   3.057  99.133   6.448  -2.211  82.689
 Approx polarizability: 138.374   8.522 148.661   7.279  -5.694 124.045

                      1                      2                      3
                      A                      A                      A
 Frequencies --     32.0405                41.3367                54.6208
 Red. masses --      4.8455                 3.5971                 3.9444
 Frc consts  --      0.0029                 0.0036                 0.0069
 IR Inten    --      1.9151                 1.3321                 3.0121

                      4                      5                      6
                      A                      A                      A
 Frequencies --     77.9495                94.0352               142.3446
 Red. masses --      2.1573                 3.1824                 3.1336
 Frc consts  --      0.0077                 0.0166                 0.0374
 IR Inten    --      1.4184                 0.5294                 2.5311

                      7                      8                      9
                      A                      A                      A
 Frequencies --    217.6562               219.5832               251.7958
 Red. masses --      1.1223                 1.9823                 1.6578
 Frc consts  --      0.0313                 0.0563                 0.0619
 IR Inten    --      0.0844                 1.5050                 0.4751

                     10                     11                     12
                      A                      A                      A
 Frequencies --    277.0048               312.8107               343.6609
 Red. masses --      2.3406                 1.8697                 2.1680
 Frc consts  --      0.1058                 0.1078                 0.1509
 IR Inten    --      2.4222                 0.4125                 0.2634

                     13                     14                     15
                      A                      A                      A
 Frequencies --    389.7215               418.2131               440.7440
 Red. masses --      1.8127                 1.2895                 2.1528
 Frc consts  --      0.1622                 0.1329                 0.2464
 IR Inten    --     10.0658                46.1488                 9.8882

                     16                     17                     18
                      A                      A                      A
 Frequencies --    446.1497               507.0451               532.3723
 Red. masses --      2.1540                 2.1023                 3.5977
 Frc consts  --      0.2526                 0.3184                 0.6008
 IR Inten    --      6.8988                15.6022                20.6553

                     19                     20                     21
                      A                      A                      A
 Frequencies --    572.6167               599.7089               667.5449
 Red. masses --      1.7797                 1.7588                 1.4732
 Frc consts  --      0.3438                 0.3727                 0.3868
 IR Inten    --    122.9134                52.7009                66.1395

                     22                     23                     24
                      A                      A                      A
 Frequencies --    731.8329               779.6858               786.2399
 Red. masses --      1.6173                 2.0188                 2.4636
 Frc consts  --      0.5104                 0.7231                 0.8973
 IR Inten    --     14.5457                28.8892                53.7762

                     25                     26                     27
                      A                      A                      A
 Frequencies --    822.5445               860.1803               896.9001
 Red. masses --      1.6987                 2.4998                 2.2198
 Frc consts  --      0.6772                 1.0898                 1.0521
 IR Inten    --      6.0151                 3.5189                 0.1880

                     28                     29                     30
                      A                      A                      A
 Frequencies --    932.3655               976.0670               990.2142
 Red. masses --      1.8762                 1.5686                 1.3667
 Frc consts  --      0.9609                 0.8805                 0.7896
 IR Inten    --      3.2492                 2.3335                 4.2658

                     31                     32                     33
                      A                      A                      A
 Frequencies --   1002.7191              1040.6861              1063.4299
 Red. masses --      1.7205                 1.5663                 2.4690
 Frc consts  --      1.0192                 0.9994                 1.6451
 IR Inten    --      1.6249                 0.3987                 1.0019

                     34                     35                     36
                      A                      A                      A
 Frequencies --   1073.5614              1118.3410              1141.9958
 Red. masses --      1.7704                 1.7181                 2.1009
 Frc consts  --      1.2022                 1.2660                 1.6143
 IR Inten    --      4.4479                22.1912                23.5270

                     37                     38                     39
                      A                      A                      A
 Frequencies --   1163.8918              1182.5630              1191.4793
 Red. masses --      2.0761                 2.4650                 1.7425
 Frc consts  --      1.6570                 2.0310                 1.4575
 IR Inten    --     16.6901                 3.1946                 2.7247

                     40                     41                     42
                      A                      A                      A
 Frequencies --   1245.5753              1263.7358              1315.1401
 Red. masses --      1.3832                 1.3853                 1.2683
 Frc consts  --      1.2643                 1.3035                 1.2924
 IR Inten    --      1.6660                 2.6761                 9.7446

                     43                     44                     45
                      A                      A                      A
 Frequencies --   1325.7386              1360.0397              1365.7472
 Red. masses --      1.2289                 1.1662                 1.2825
 Frc consts  --      1.2726                 1.2710                 1.4094
 IR Inten    --      3.1101                 9.2348                 9.1082

                     46                     47                     48
                      A                      A                      A
 Frequencies --   1389.5342              1403.7704              1413.3514
 Red. masses --      1.4775                 1.4824                 1.4703
 Frc consts  --      1.6808                 1.7211                 1.7305
 IR Inten    --     81.7717                 4.8072                 1.8556

                     49                     50                     51
                      A                      A                      A
 Frequencies --   1424.5228              1439.6316              1444.5879
 Red. masses --      1.4942                 1.2741                 1.2435
 Frc consts  --      1.7865                 1.5559                 1.5289
 IR Inten    --      9.8206                 4.8032                 4.1267

                     52                     53                     54
                      A                      A                      A
 Frequencies --   1449.7449              1481.3692              1513.6506
 Red. masses --      2.0459                 1.4214                 1.0681
 Frc consts  --      2.5335                 1.8378                 1.4419
 IR Inten    --    134.6732                33.4968                 0.3401

                     55                     56                     57
                      A                      A                      A
 Frequencies --   1515.8875              1525.2402              1527.6501
 Red. masses --      1.0759                 1.0776                 1.0548
 Frc consts  --      1.4566                 1.4770                 1.4503
 IR Inten    --      2.6872                10.8408                 3.0538

                     58                     59                     60
                      A                      A                      A
 Frequencies --   1531.8123              1536.1012              1537.1462
 Red. masses --      1.0603                 1.0860                 1.1206
 Frc consts  --      1.4659                 1.5098                 1.5600
 IR Inten    --      2.4021                13.9418                17.0436

                     61                     62                     63
                      A                      A                      A
 Frequencies --   1545.0822              1656.2278              1819.7476
 Red. masses --      1.0492                 1.2041                 6.6152
 Frc consts  --      1.4757                 1.9461                12.9068
 IR Inten    --      1.7713               151.1611               387.4499

                     64                     65                     66
                      A                      A                      A
 Frequencies --   2988.5869              3025.4408              3033.2413
 Red. masses --      1.0810                 1.0641                 1.0599
 Frc consts  --      5.6885                 5.7388                 5.7453
 IR Inten    --     26.8430                19.7095                19.6831

                     67                     68                     69
                      A                      A                      A
 Frequencies --   3043.3206              3045.0458              3046.3671
 Red. masses --      1.0463                 1.0599                 1.0402
 Frc consts  --      5.7095                 5.7904                 5.6878
 IR Inten    --      9.9733                64.6450                24.5483

                     70                     71                     72
                      A                      A                      A
 Frequencies --   3055.0839              3068.3935              3071.9466
 Red. masses --      1.0719                 1.0922                 1.0955
 Frc consts  --      5.8944                 6.0585                 6.0912
 IR Inten    --     23.4119                39.3577                35.4172

                     73                     74                     75
                      A                      A                      A
 Frequencies --   3090.2674              3106.4149              3107.6261
 Red. masses --      1.1005                 1.1002                 1.0994
 Frc consts  --      6.1918                 6.2550                 6.2557
 IR Inten    --      9.9115                19.2199                85.9346

                     76                     77                     78
                      A                      A                      A
 Frequencies --   3108.5001              3119.5876              3128.8026
 Red. masses --      1.0999                 1.1021                 1.1000
 Frc consts  --      6.2621                 6.3193                 6.3445
 IR Inten    --     32.8381                49.1040                37.5534

                     79                     80                     81
                      A                      A                      A
 Frequencies --   3564.6629              3604.9115              3677.3877
 Red. masses --      1.0474                 1.0757                 1.0997
 Frc consts  --      7.8417                 8.2366                 8.7618
 IR Inten    --     18.5797                17.0419                24.8856

 - Thermochemistry -
 -------------------
 Temperature   298.150 Kelvin.  Pressure   1.00000 Atm.
 Atom     1 has atomic number  6 and mass  12.00000

 Molecular mass:   158.14191 amu.
 Principal axes and moments of inertia in atomic units:
                           1         2         3
     Eigenvalues --   874.943893762.436764061.04137
           X            0.99983  -0.01600   0.00955
           Y            0.01579   0.99963   0.02198
           Z           -0.00990  -0.02183   0.99971
 This molecule is an asymmetric top.
 Rotational symmetry number  1.
 Warning -- assumption of classical behavior for rotation
           may cause significant error
 Rotational temperatures (Kelvin)      0.09899     0.02302     0.02133
 Rotational constants (GHZ):           2.06269     0.47967     0.44440
 Zero-point vibrational energy     695689.9 (Joules/Mol)
                                  166.27389 (Kcal/Mol)
 Warning -- explicit consideration of  20 degrees of freedom as
           vibrations may cause significant error
 Vibrational temperatures:     46.10    59.47    78.59   112.15   135.30
          (Kelvin)            204.80   313.16   315.93   362.28   398.55
                              450.06   494.45   560.72   601.72   634.13
                              641.91   729.52   765.97   823.87   862.85
                              960.45  1052.94  1121.79  1131.22  1183.46
                             1237.61  1290.44  1341.47  1404.34  1424.70
                             1442.69  1497.32  1530.04  1544.62  1609.04
                             1643.08  1674.58  1701.44  1714.27  1792.11
                             1818.23  1892.19  1907.44  1956.79  1965.01
                             1999.23  2019.71  2033.50  2049.57  2071.31
                             2078.44  2085.86  2131.36  2177.81  2181.02
                             2194.48  2197.95  2203.94  2210.11  2211.61
                             2223.03  2382.94  2618.21  4299.91  4352.93
                             4364.16  4378.66  4381.14  4383.04  4395.58
                             4414.73  4419.85  4446.21  4469.44  4471.18
                             4472.44  4488.39  4501.65  5128.75  5186.66
                             5290.94

 Zero-point correction=                           0.264974 (Hartree/Particle)
 Thermal correction to Energy=                    0.278305
 Thermal correction to Enthalpy=                  0.279249
 Thermal correction to Gibbs Free Energy=         0.224063
 Sum of electronic and zero-point Energies=           -500.230264
 Sum of electronic and thermal Energies=              -500.216933
 Sum of electronic and thermal Enthalpies=            -500.215989
 Sum of electronic and thermal Free Energies=         -500.271175

                     E (Thermal)             CV                S
                      KCal/Mol        Cal/Mol-Kelvin    Cal/Mol-Kelvin
 Total                  174.639             48.951            116.150
 Electronic               0.000              0.000              0.000
 Translational            0.889              2.981             41.084
 Rotational               0.889              2.981             30.970
 Vibrational            172.862             42.989             44.096
 Vibration     1          0.594              1.983              5.699
 Vibration     2          0.594              1.981              5.194
 Vibration     3          0.596              1.976              4.643
 Vibration     4          0.599              1.964              3.942
 Vibration     5          0.603              1.953              3.574
 Vibration     6          0.616              1.911              2.772
 Vibration     7          0.646              1.814              1.979
 Vibration     8          0.647              1.811              1.963
 Vibration     9          0.664              1.760              1.718
 Vibration    10          0.678              1.716              1.552
 Vibration    11          0.701              1.649              1.347
 Vibration    12          0.722              1.588              1.195
 Vibration    13          0.758              1.492              1.001
 Vibration    14          0.781              1.431              0.898
 Vibration    15          0.801              1.381              0.824
 Vibration    16          0.805              1.369              0.808
 Vibration    17          0.862              1.234              0.641
 Vibration    18          0.887              1.178              0.582
 Vibration    19          0.929              1.090              0.499
 Vibration    20          0.958              1.032              0.450

 Optimization completed.
    -- Stationary point found.
 Normal termination of Gaussian 16 at Tue Dec  8 21:54:47 2020.

 ----------------------------------------------------------------------
 # B3LYP/6-311++G(d,p) empiricaldispersion=gd3bj scf=xqc pop=npa geom=c
 heck
 ----------------------------------------------------------------------

 --------------------------------------
 CID_59582725_JID_1961_Energie_neutraal
 --------------------------------------
 Structure from the checkpoint file:  "JID_1961.chk"
 Charge =  0 Multiplicity = 1

 SCF Done:  E(RB3LYP) =  -500.653826550     A.U. after   13 cycles
 Normal termination of Gaussian 16 at Tue Dec  8 21:57:12 2020.

 ----------------------------------------------------------------------
 # B3LYP/6-311++G(d,p) empiricaldispersion=gd3bj scf=xqc pop=npa geom=c
 heck
 ----------------------------------------------------------------------

 ------------------------------------
 CID_59582725_JID_1961_Energie_kation
 ------------------------------------
 Structure from the checkpoint file:  "JID_1961.chk"
 Charge =  1 Multiplicity = 2

 SCF Done:  E(UB3LYP) =  -500.319260040     A.U. after   29 cycles
 Normal termination of Gaussian 16 at Tue Dec  8 22:04:32 2020.
 Gaussian 16:  ES64L-G16RevA.03 25-Dec-2016

 ----------------------------------------------------------------------
 # B3LYP/6-311++G(d,p) empiricaldispersion=gd3bj scf=xqc pop=npa geom=c
 heck
 ----------------------------------------------------------------------

 -----------------------------------
 CID_59582725_JID_1961_Energie_anion
 -----------------------------------
 Structure from the checkpoint file:  "JID_1961.chk"
 Charge = -1 Multiplicity = 2

                         Standard orientation:
 ---------------------------------------------------------------------
 Center     Atomic      Atomic             Coordinates (Angstroms)
 Number     Number       Type             X           Y           Z
 ---------------------------------------------------------------------
      1          6           0       -3.882649   -0.573754   -0.879254
      2          6           0       -2.756740   -0.672381    0.154440
      3          6           0       -1.719324    0.461763    0.080210
      4          6           0       -2.355527    1.840323    0.303027
      5          6           0       -0.569587    0.257859    1.085688
      6          6           0        0.236738   -1.041921    0.949289
      7          6           0        0.842325   -1.256552   -0.446706
      8          7           0        1.641091   -0.138765   -0.945471
      9          6           0        2.783788    0.346821   -0.333412
     10          8           0        3.151179    1.507341   -0.460167
     11          7           0        3.479522   -0.574328    0.442327
     12          1           0       -4.510614    0.308448   -0.718619
     13          1           0       -4.533942   -1.453624   -0.834332
     14          1           0       -3.477326   -0.511910   -1.897136
     15          1           0       -3.185084   -0.691598    1.167401
     16          1           0       -2.248216   -1.635688    0.022797
     17          1           0       -1.297678    0.455841   -0.938197
     18          1           0       -2.844872    1.886059    1.284598
     19          1           0       -1.595971    2.629759    0.273599
     20          1           0       -3.107124    2.074463   -0.457137
     21          1           0        0.121239    1.106607    1.001123
     22          1           0       -0.981817    0.306907    2.103244
     23          1           0        1.049973   -1.025217    1.683496
     24          1           0       -0.384369   -1.914143    1.189349
     25          1           0        1.452209   -2.168662   -0.451241
     26          1           0        0.053112   -1.427032   -1.185664
     27          1           0        1.118427    0.622811   -1.359071
     28          1           0        3.431100   -1.549544    0.176315
     29          1           0        4.413082   -0.253508    0.663129
 ---------------------------------------------------------------------

 SCF Done:  E(UB3LYP) =  -500.642931092     A.U. after   31 cycles

 The electronic state is 2-A.
 Alpha  occ. eigenvalues --  -18.97917 -14.22595 -14.21992 -10.19080 -10.10309
 Alpha  occ. eigenvalues --  -10.07834 -10.06773 -10.06725 -10.06597 -10.06520
 Alpha  occ. eigenvalues --  -10.06187  -0.94379  -0.82577  -0.78470  -0.72405
 Alpha  occ. eigenvalues --   -0.66728  -0.63309  -0.58813  -0.54430  -0.51573
 Alpha  occ. eigenvalues --   -0.48858  -0.45763  -0.43950  -0.39274  -0.37935
 Alpha  occ. eigenvalues --   -0.36986  -0.35355  -0.34599  -0.34079  -0.32645
 Alpha  occ. eigenvalues --   -0.31393  -0.30699  -0.29062  -0.28867  -0.27364
 Alpha  occ. eigenvalues --   -0.26455  -0.25699  -0.24771  -0.22710  -0.21779
 Alpha  occ. eigenvalues --   -0.21730  -0.17828  -0.16529  -0.15074   0.04305
 Alpha virt. eigenvalues --    0.06093   0.07583   0.07681   0.08477   0.09293
 Alpha virt. eigenvalues --    0.10107   0.10443   0.11013   0.11139   0.12227
 Alpha virt. eigenvalues --    0.12762   0.13414   0.13553   0.14109   0.14159

  Beta  occ. eigenvalues --  -18.97911 -14.22588 -14.21925 -10.19076 -10.10265
  Beta  occ. eigenvalues --  -10.07825 -10.06754 -10.06720 -10.06582 -10.06506
  Beta  occ. eigenvalues --  -10.06153  -0.94362  -0.82545  -0.78378  -0.72380
  Beta  occ. eigenvalues --   -0.66687  -0.63266  -0.58759  -0.54367  -0.51517
  Beta  occ. eigenvalues --   -0.48781  -0.45713  -0.43859  -0.39213  -0.37893
  Beta  occ. eigenvalues --   -0.36945  -0.35325  -0.34563  -0.34031  -0.32618
  Beta  occ. eigenvalues --   -0.31368  -0.30673  -0.29031  -0.28822  -0.27328
  Beta  occ. eigenvalues --   -0.26416  -0.25659  -0.24740  -0.22675  -0.21753
  Beta  occ. eigenvalues --   -0.21703  -0.17782  -0.16485  -0.15054
  Beta virt. eigenvalues --    0.06496   0.07539   0.07946   0.08069   0.09105
  Beta virt. eigenvalues --    0.10096   0.10372   0.10737   0.11173   0.11803
  Beta virt. eigenvalues --    0.12637   0.12980   0.13589   0.13751   0.14275

 Mulliken charges and spin densities:
               1          2
     1  C    1.155449  -1.837628
     2  C   -1.368664   1.153103
     3  C    0.508891  -0.141789
     4  C    0.501282  -1.163348
     5  C   -0.279963  -0.055212
     6  C   -0.806589   0.686418
     7  C    1.369103  -1.922744
     8  N   -0.214461   0.072710
     9  C    0.625049  -0.605211
    10  O   -0.403342   0.024706
    11  N   -0.362473  -0.023472
    12  H   -0.177607   0.309739
    13  H   -0.399551   0.542365
    14  H   -0.239282   0.381939
    15  H   -0.066915   0.197496
    16  H    0.241775  -0.118023
    17  H    0.119829  -0.024237
    18  H    0.012998   0.126717
    19  H    0.146303  -0.016945
    20  H   -0.009522   0.144787
    21  H    0.057878   0.152039
    22  H    0.040202   0.102223
    23  H    0.088637   0.087781
    24  H   -0.385155   0.542709
    25  H   -1.024539   1.199268
    26  H   -0.103903   0.317732
    27  H    0.223233   0.066716
    28  H   -0.231130   0.488320
    29  H   -0.017534   0.311841
 Sum of Mulliken charges =  -1.00000   1.00000

 Dipole moment (field-independent basis, Debye):
    X=             -2.2527    Y=              4.0548    Z=              1.6732  Tot=              4.9311
 Quadrupole moment (field-independent basis, Debye-Ang):
   XX=           -152.3373   YY=           -118.5382   ZZ=            -98.0482
   XY=             -0.3721   XZ=             -3.3332   YZ=             -1.1227

 Summary of Natural Population Analysis:

                                       Natural Population
                Natural  -----------------------------------------------
    Atom  No    Charge         Core      Valence    Rydberg      Total
 -----------------------------------------------------------------------
      C    1   -0.28529      0.99967     2.28050    0.00512     3.28529
      C    2   -0.19054      0.99962     2.18185    0.00907     3.19054
      C    3   -0.11390      0.99960     2.10426    0.01004     3.11390
      C    4   -0.28349      0.99965     2.27894    0.00490     3.28349
      C    5   -0.18939      0.99961     2.18195    0.00784     3.18939
      C    6   -0.19942      0.99962     2.19106    0.00874     3.19942
      C    7   -0.09212      0.99961     2.07949    0.01301     3.09212
      N    8   -0.33449      0.99968     2.82408    0.01073     3.83449
      C    9    0.40245      0.99973     1.57424    0.02359     2.59755
      O   10   -0.34211      0.99987     3.33669    0.00555     4.34211
      N   11   -0.41829      0.99972     2.90977    0.00880     3.91829
      H   12    0.09477      0.00000     0.40417    0.00106     0.40523
      H   13    0.10035      0.00000     0.39859    0.00106     0.39965
      H   14    0.09679      0.00000     0.40202    0.00119     0.40321
      H   15    0.09202      0.00000     0.40688    0.00110     0.40798
      H   16    0.09900      0.00000     0.39948    0.00152     0.40100
      H   17    0.08865      0.00000     0.40924    0.00211     0.41135
      H   18    0.09519      0.00000     0.40389    0.00092     0.40481
      H   19    0.09876      0.00000     0.40033    0.00090     0.40124
      H   20    0.09943      0.00000     0.39974    0.00083     0.40057
      H   21    0.09957      0.00000     0.39925    0.00119     0.40043
      H   22    0.09632      0.00000     0.40269    0.00099     0.40368
      H   23    0.10441      0.00000     0.39424    0.00135     0.39559
      H   24    0.09946      0.00000     0.39909    0.00145     0.40054
      H   25    0.10070      0.00000     0.39543    0.00388     0.39930
      H   26    0.09926      0.00000     0.39913    0.00162     0.40074
      H   27    0.19192      0.00000     0.30569    0.00239     0.30808
      H   28    0.19626      0.00000     0.29639    0.00736     0.30374
      H   29    0.19374      0.00000     0.30443    0.00183     0.30626
 =======================================================================
   * Total *   -0.00000     10.99638    32.86348    0.14014    44.00000

 Normal termination of Gaussian 16 at Tue Dec  8 22:12:05 2020.
