 Gaussian 16, Revision A.03,

 -----------------------------------------------------------
 # opt freq B3LYP/6-31G(d) empiricaldispersion=gd3bj scf=xqc
 -----------------------------------------------------------

 -------------------------------
 CID_104650753_JID_3702_neutraal
 -------------------------------
 Symbolic Z-matrix:
 Charge =  0 Multiplicity = 1

 SCF Done:  E(RB3LYP) =  -627.354688470     A.U. after   15 cycles
 SCF Done:  E(RB3LYP) =  -627.357407022     A.U. after   12 cycles
 SCF Done:  E(RB3LYP) =  -627.357835295     A.U. after   13 cycles
 SCF Done:  E(RB3LYP) =  -627.357884434     A.U. after   12 cycles
 SCF Done:  E(RB3LYP) =  -627.357950724     A.U. after   12 cycles
 SCF Done:  E(RB3LYP) =  -627.358024980     A.U. after   11 cycles
 SCF Done:  E(RB3LYP) =  -627.358035207     A.U. after   10 cycles
 SCF Done:  E(RB3LYP) =  -627.358039991     A.U. after   10 cycles
 SCF Done:  E(RB3LYP) =  -627.358047682     A.U. after   11 cycles
 SCF Done:  E(RB3LYP) =  -627.358053423     A.U. after   11 cycles
 SCF Done:  E(RB3LYP) =  -627.358060394     A.U. after   11 cycles
 SCF Done:  E(RB3LYP) =  -627.358066333     A.U. after   11 cycles
 SCF Done:  E(RB3LYP) =  -627.358066985     A.U. after    9 cycles
 SCF Done:  E(RB3LYP) =  -627.358067033     A.U. after    9 cycles
 Optimization completed.
    -- Stationary point found.
 Normal termination of Gaussian 16 at Mon Dec 14 13:09:47 2020.

 --------------------------------------------------------------------
 #N Geom=AllCheck Guess=TCheck SCRF=Check GenChk RB3LYP/6-31G(d) Freq
 --------------------------------------------------------------------

 Structure from the checkpoint file:  "JID_3702.chk"
 -------------------------------
 CID_104650753_JID_3702_neutraal
 -------------------------------
 Charge =  0 Multiplicity = 1

 SCF Done:  E(RB3LYP) =  -627.358067033     A.U. after    1 cycles

  Exact polarizability: 137.416  10.831 105.005 -13.847   4.317  80.262
 Approx polarizability: 193.173  17.324 163.201 -32.416  10.675 123.260

                      1                      2                      3
                      A                      A                      A
 Frequencies --     22.1366                37.3344                45.9084
 Red. masses --      4.2446                 5.2608                 3.9617
 Frc consts  --      0.0012                 0.0043                 0.0049
 IR Inten    --      4.2184                 2.3352                 8.4533

                      4                      5                      6
                      A                      A                      A
 Frequencies --     87.9176                99.8032               120.4921
 Red. masses --      4.1327                 2.4136                 5.6111
 Frc consts  --      0.0188                 0.0142                 0.0480
 IR Inten    --      5.6839                 2.9655                 2.2542

                      7                      8                      9
                      A                      A                      A
 Frequencies --    172.4613               205.0757               225.9540
 Red. masses --      3.5336                 2.5949                 2.1198
 Frc consts  --      0.0619                 0.0643                 0.0638
 IR Inten    --      1.2907                 0.6144                 2.6243

                     10                     11                     12
                      A                      A                      A
 Frequencies --    253.3589               271.4618               307.4649
 Red. masses --      1.8421                 2.1772                 2.7041
 Frc consts  --      0.0697                 0.0945                 0.1506
 IR Inten    --      4.4396                 0.4128                 1.1750

                     13                     14                     15
                      A                      A                      A
 Frequencies --    357.7799               362.1334               429.3411
 Red. masses --      2.9000                 3.0216                 2.8136
 Frc consts  --      0.2187                 0.2335                 0.3056
 IR Inten    --      3.2578                 0.3575                 1.1935

                     16                     17                     18
                      A                      A                      A
 Frequencies --    514.2782               591.4825               654.0120
 Red. masses --      3.3848                 3.2376                 3.9979
 Frc consts  --      0.5274                 0.6674                 1.0075
 IR Inten    --      0.6359                 0.5476                 2.3251

                     19                     20                     21
                      A                      A                      A
 Frequencies --    679.9883               718.7385               770.3593
 Red. masses --      2.3901                 6.6063                 1.8534
 Frc consts  --      0.6511                 2.0107                 0.6480
 IR Inten    --      2.1118                 0.2233                12.5839

                     22                     23                     24
                      A                      A                      A
 Frequencies --    787.4685               811.1481               833.9483
 Red. masses --      4.7033                 1.3894                 2.4102
 Frc consts  --      1.7184                 0.5386                 0.9876
 IR Inten    --     83.7502                23.8047                 0.6846

                     25                     26                     27
                      A                      A                      A
 Frequencies --    913.3411               978.4732               985.5690
 Red. masses --      2.0684                 2.0409                 2.1296
 Frc consts  --      1.0166                 1.1513                 1.2188
 IR Inten    --     15.9364                 0.2146                 4.9764

                     28                     29                     30
                      A                      A                      A
 Frequencies --   1020.2967              1021.6282              1056.0852
 Red. masses --      1.7870                 4.5941                 4.0143
 Frc consts  --      1.0961                 2.8251                 2.6379
 IR Inten    --      0.2286                24.2062                13.3393

                     31                     32                     33
                      A                      A                      A
 Frequencies --   1068.7844              1113.6108              1121.5173
 Red. masses --      2.2463                 1.7020                 2.6229
 Frc consts  --      1.5118                 1.2436                 1.9438
 IR Inten    --     17.0330                18.5504                 9.8010

                     34                     35                     36
                      A                      A                      A
 Frequencies --   1147.3579              1171.0570              1173.5991
 Red. masses --      2.9536                 1.7509                 2.8569
 Frc consts  --      2.2909                 1.4147                 2.3184
 IR Inten    --      3.8776                67.7404                94.1976

                     37                     38                     39
                      A                      A                      A
 Frequencies --   1193.3780              1226.1104              1259.1907
 Red. masses --      1.2663                 1.6096                 1.3297
 Frc consts  --      1.0625                 1.4257                 1.2422
 IR Inten    --      2.2456                18.1417                16.6082

                     40                     41                     42
                      A                      A                      A
 Frequencies --   1276.8320              1297.5565              1323.3670
 Red. masses --      1.6949                 1.6241                 3.3644
 Frc consts  --      1.6280                 1.6111                 3.4715
 IR Inten    --     13.8190                23.0890                42.7094

                     43                     44                     45
                      A                      A                      A
 Frequencies --   1340.8409              1388.1108              1399.4032
 Red. masses --      1.1361                 1.4002                 2.1871
 Frc consts  --      1.2035                 1.5896                 2.5235
 IR Inten    --      3.6447                11.6132                18.1245

                     46                     47                     48
                      A                      A                      A
 Frequencies --   1410.9490              1422.6474              1437.1834
 Red. masses --      2.6526                 1.4345                 1.3086
 Frc consts  --      3.1113                 1.7105                 1.5925
 IR Inten    --      6.4195                 5.2506                 5.7884

                     49                     50                     51
                      A                      A                      A
 Frequencies --   1445.2548              1501.9921              1504.7747
 Red. masses --      1.3766                 1.3739                 1.3369
 Frc consts  --      1.6941                 1.8261                 1.7835
 IR Inten    --     12.1889                18.1209                23.2637

                     52                     53                     54
                      A                      A                      A
 Frequencies --   1510.8788              1515.0343              1517.0837
 Red. masses --      1.7145                 1.0498                 1.1674
 Frc consts  --      2.3059                 1.4197                 1.5831
 IR Inten    --     11.8752                 5.0540                 9.9238

                     55                     56                     57
                      A                      A                      A
 Frequencies --   1523.5359              1534.7162              1561.7566
 Red. masses --      1.1299                 1.0681                 1.1183
 Frc consts  --      1.5452                 1.4823                 1.6071
 IR Inten    --     15.0590                10.3339                 5.3950

                     58                     59                     60
                      A                      A                      A
 Frequencies --   1570.2626              1814.5386              2893.8997
 Red. masses --      3.9922                 9.8877                 1.0829
 Frc consts  --      5.7998                19.1813                 5.3430
 IR Inten    --     37.3736               274.3571               130.0787

                     61                     62                     63
                      A                      A                      A
 Frequencies --   2966.3592              2989.7868              3004.8208
 Red. masses --      1.0620                 1.0445                 1.0919
 Frc consts  --      5.5058                 5.5011                 5.8085
 IR Inten    --     57.3333                69.7641                68.5538

                     64                     65                     66
                      A                      A                      A
 Frequencies --   3035.3421              3062.9140              3081.0922
 Red. masses --      1.1027                 1.0616                 1.0630
 Frc consts  --      5.9858                 5.8681                 5.9456
 IR Inten    --     65.3897                23.9175                 5.2113

                     67                     68                     69
                      A                      A                      A
 Frequencies --   3092.3295              3102.2053              3126.3045
 Red. masses --      1.0612                 1.1010                 1.1050
 Frc consts  --      5.9788                 6.2426                 6.3633
 IR Inten    --     18.1113                32.5996                18.3607

                     70                     71                     72
                      A                      A                      A
 Frequencies --   3141.2394              3146.5890              3296.1675
 Red. masses --      1.0967                 1.1050                 1.0990
 Frc consts  --      6.3759                 6.4460                 7.0348
 IR Inten    --     30.6595                14.3166                 0.4849

 - Thermochemistry -
 -------------------
 Temperature   298.150 Kelvin.  Pressure   1.00000 Atm.
 Atom     1 has atomic number  6 and mass  12.00000

 Molecular mass:   183.10078 amu.
 Principal axes and moments of inertia in atomic units:
                           1         2         3
     Eigenvalues --  1161.715124878.226075460.97468
           X            0.99996  -0.00894   0.00244
           Y            0.00889   0.99978   0.01879
           Z           -0.00261  -0.01877   0.99982
 This molecule is an asymmetric top.
 Rotational symmetry number  1.
 Warning -- assumption of classical behavior for rotation
           may cause significant error
 Rotational temperatures (Kelvin)      0.07456     0.01776     0.01586
 Rotational constants (GHZ):           1.55351     0.36996     0.33048
 Zero-point vibrational energy     568500.2 (Joules/Mol)
                                  135.87481 (Kcal/Mol)
 Warning -- explicit consideration of  17 degrees of freedom as
           vibrations may cause significant error
 Vibrational temperatures:     31.85    53.72    66.05   126.49   143.59
          (Kelvin)            173.36   248.13   295.06   325.10   364.53
                              390.57   442.37   514.77   521.03   617.73
                              739.93   851.01   940.98   978.35  1034.10
                             1108.38  1132.99  1167.06  1199.87  1314.09
                             1407.80  1418.01  1467.98  1469.90  1519.47
                             1537.74  1602.24  1613.61  1650.79  1684.89
                             1688.55  1717.00  1764.10  1811.69  1837.08
                             1866.89  1904.03  1929.17  1997.18  2013.43
                             2030.04  2046.87  2067.79  2079.40  2161.03
                             2165.04  2173.82  2179.80  2182.75  2192.03
                             2208.11  2247.02  2259.26  2610.72  4163.68
                             4267.93  4301.64  4323.27  4367.18  4406.85
                             4433.00  4449.17  4463.38  4498.05  4519.54
                             4527.24  4742.45

 Zero-point correction=                           0.216530 (Hartree/Particle)
 Thermal correction to Energy=                    0.229747
 Thermal correction to Enthalpy=                  0.230691
 Thermal correction to Gibbs Free Energy=         0.174243
 Sum of electronic and zero-point Energies=           -627.141537
 Sum of electronic and thermal Energies=              -627.128320
 Sum of electronic and thermal Enthalpies=            -627.127376
 Sum of electronic and thermal Free Energies=         -627.183824

                     E (Thermal)             CV                S
                      KCal/Mol        Cal/Mol-Kelvin    Cal/Mol-Kelvin
 Total                  144.168             46.585            118.804
 Electronic               0.000              0.000              0.000
 Translational            0.889              2.981             41.521
 Rotational               0.889              2.981             31.804
 Vibrational            142.391             40.623             45.479
 Vibration     1          0.593              1.985              6.433
 Vibration     2          0.594              1.982              5.396
 Vibration     3          0.595              1.979              4.986
 Vibration     4          0.601              1.958              3.706
 Vibration     5          0.604              1.949              3.458
 Vibration     6          0.609              1.932              3.092
 Vibration     7          0.626              1.876              2.408
 Vibration     8          0.640              1.833              2.087
 Vibration     9          0.650              1.801              1.911
 Vibration    10          0.665              1.757              1.707
 Vibration    11          0.675              1.726              1.587
 Vibration    12          0.697              1.660              1.376
 Vibration    13          0.733              1.559              1.132
 Vibration    14          0.736              1.550              1.113
 Vibration    15          0.791              1.406              0.861
 Vibration    16          0.869              1.218              0.623
 Vibration    17          0.949              1.050              0.465

 Optimization completed.
    -- Stationary point found.
 Normal termination of Gaussian 16 at Mon Dec 14 13:15:33 2020.

 ----------------------------------------------------------------------
 # B3LYP/6-311++G(d,p) empiricaldispersion=gd3bj scf=xqc pop=npa geom=c
 heck
 ----------------------------------------------------------------------

 ---------------------------------------
 CID_104650753_JID_3702_Energie_neutraal
 ---------------------------------------
 Structure from the checkpoint file:  "JID_3702.chk"
 Charge =  0 Multiplicity = 1

 SCF Done:  E(RB3LYP) =  -627.536279724     A.U. after   14 cycles
 Normal termination of Gaussian 16 at Mon Dec 14 13:17:39 2020.

 ----------------------------------------------------------------------
 # B3LYP/6-311++G(d,p) empiricaldispersion=gd3bj scf=xqc pop=npa geom=c
 heck
 ----------------------------------------------------------------------

 -------------------------------------
 CID_104650753_JID_3702_Energie_kation
 -------------------------------------
 Structure from the checkpoint file:  "JID_3702.chk"
 Charge =  1 Multiplicity = 2

 SCF Done:  E(UB3LYP) =  -627.198906499     A.U. after   31 cycles
 Normal termination of Gaussian 16 at Mon Dec 14 13:23:46 2020.
 Gaussian 16:  ES64L-G16RevA.03 25-Dec-2016

 ----------------------------------------------------------------------
 # B3LYP/6-311++G(d,p) empiricaldispersion=gd3bj scf=xqc pop=npa geom=c
 heck
 ----------------------------------------------------------------------

 ------------------------------------
 CID_104650753_JID_3702_Energie_anion
 ------------------------------------
 Structure from the checkpoint file:  "JID_3702.chk"
 Charge = -1 Multiplicity = 2

                         Standard orientation:
 ---------------------------------------------------------------------
 Center     Atomic      Atomic             Coordinates (Angstroms)
 Number     Number       Type             X           Y           Z
 ---------------------------------------------------------------------
      1          6           0        4.021907   -1.668812   -0.446665
      2          8           0        3.426891   -0.471268    0.003963
      3          6           0        2.273301   -0.698484    0.792179
      4          6           0        1.727328    0.642593    1.268742
      5          6           0        1.560903    1.681712    0.152404
      6          6           0        0.723574    1.205692   -1.036051
      7          7           0       -0.605487    0.750498   -0.628021
      8          6           0       -1.178198   -0.460281   -0.765446
      9          6           0       -2.420006   -0.331647   -0.161514
     10          7           0       -2.531041    0.951660    0.311317
     11          7           0       -1.443538    1.601000    0.032464
     12          6           0       -3.455399   -1.361338   -0.029856
     13          8           0       -4.529518   -1.212218    0.514574
     14          1           0        4.890843   -1.393166   -1.049174
     15          1           0        3.327726   -2.259392   -1.067149
     16          1           0        4.352437   -2.299001    0.393863
     17          1           0        1.517114   -1.243506    0.199385
     18          1           0        2.515083   -1.338459    1.656566
     19          1           0        0.766110    0.466197    1.766638
     20          1           0        2.404492    1.055962    2.024565
     21          1           0        1.103354    2.585306    0.566643
     22          1           0        2.544748    1.956727   -0.240449
     23          1           0        0.593941    2.013327   -1.762188
     24          1           0        1.206541    0.367184   -1.542627
     25          1           0       -0.689642   -1.285004   -1.261378
     26          1           0       -3.171732   -2.337015   -0.486060
 ---------------------------------------------------------------------

 SCF Done:  E(UB3LYP) =  -627.540495451     A.U. after   33 cycles
 SCF Done:  E(UB3LYP) =  -627.540495451     a.u. after    1 cycles

 The electronic state is 2-A.
 Alpha  occ. eigenvalues --  -19.03868 -18.95987 -14.29022 -14.25619 -14.21646
 Alpha  occ. eigenvalues --  -10.12866 -10.12319 -10.12025 -10.10121 -10.09904
 Alpha  occ. eigenvalues --  -10.08221 -10.08195 -10.07504  -0.98474  -0.95207
 Alpha  occ. eigenvalues --   -0.89571  -0.81160  -0.71367  -0.69425  -0.65035
 Alpha  occ. eigenvalues --   -0.59823  -0.55984  -0.54848  -0.50492  -0.48704
 Alpha  occ. eigenvalues --   -0.44240  -0.41543  -0.40963  -0.40231  -0.37800
 Alpha  occ. eigenvalues --   -0.37223  -0.35349  -0.34055  -0.33605  -0.33202
 Alpha  occ. eigenvalues --   -0.30663  -0.29958  -0.28831  -0.26793  -0.26321
 Alpha  occ. eigenvalues --   -0.25363  -0.25057  -0.23310  -0.22597  -0.18792
 Alpha  occ. eigenvalues --   -0.17489  -0.15814  -0.14894  -0.11702   0.03842
 Alpha virt. eigenvalues --    0.05484   0.07216   0.07549   0.08081   0.09253
 Alpha virt. eigenvalues --    0.10089   0.10363   0.10615   0.11013   0.11683
 Alpha virt. eigenvalues --    0.12707   0.13490   0.13789   0.14200   0.15060

  Beta  occ. eigenvalues --  -19.03860 -18.95570 -14.29012 -14.25661 -14.21516
  Beta  occ. eigenvalues --  -10.12861 -10.12305 -10.11976 -10.09862 -10.09704
  Beta  occ. eigenvalues --  -10.08218 -10.08192 -10.07509  -0.98410  -0.95196
  Beta  occ. eigenvalues --   -0.88813  -0.81039  -0.71306  -0.69243  -0.64976
  Beta  occ. eigenvalues --   -0.59752  -0.55916  -0.54336  -0.50407  -0.48506
  Beta  occ. eigenvalues --   -0.44042  -0.41370  -0.40923  -0.40080  -0.37706
  Beta  occ. eigenvalues --   -0.37174  -0.35241  -0.33873  -0.33445  -0.33095
  Beta  occ. eigenvalues --   -0.30566  -0.29887  -0.28403  -0.26745  -0.25941
  Beta  occ. eigenvalues --   -0.25186  -0.23651  -0.23266  -0.22551  -0.18314
  Beta  occ. eigenvalues --   -0.17380  -0.15688  -0.14049  -0.11351
  Beta virt. eigenvalues --    0.06278   0.07503   0.07833   0.08547   0.08962
  Beta virt. eigenvalues --    0.09705   0.10291   0.10533   0.10854   0.11148
  Beta virt. eigenvalues --    0.11810   0.12880   0.13721   0.13795   0.14273

 Mulliken charges and spin densities:
               1          2
     1  C    0.966935  -1.205217
     2  O   -0.191281   0.078790
     3  C   -0.447635   0.016256
     4  C   -0.349616   0.037813
     5  C   -0.451522   0.155804
     6  C    0.441300  -0.664420
     7  N    0.283930   0.032002
     8  C   -0.464181   0.250453
     9  C    0.555313  -0.239966
    10  N   -0.195879   0.079977
    11  N   -0.170819  -0.010436
    12  C   -0.251718   0.080644
    13  O   -0.347445   0.133868
    14  H   -0.318738   0.460850
    15  H   -0.486092   0.620954
    16  H   -0.221457   0.344589
    17  H    0.448900  -0.298442
    18  H    0.041310   0.076138
    19  H    0.129842   0.036949
    20  H    0.146757   0.023647
    21  H    0.170467  -0.017657
    22  H    0.073961   0.107973
    23  H    0.047762   0.159859
    24  H   -0.160901   0.325532
    25  H   -0.264835   0.415840
    26  H    0.015643  -0.001800
 Sum of Mulliken charges =  -1.00000   1.00000

 Dipole moment (field-independent basis, Debye):
    X=              4.6648    Y=              2.3723    Z=              0.9622  Tot=              5.3211
 Quadrupole moment (field-independent basis, Debye-Ang):
   XX=           -174.3790   YY=           -105.7741   ZZ=            -98.8015
   XY=              7.2534   XZ=             15.6220   YZ=             -3.5139

 Summary of Natural Population Analysis:

                                       Natural Population
                Natural  -----------------------------------------------
    Atom  No    Charge         Core      Valence    Rydberg      Total
 -----------------------------------------------------------------------
      C    1   -0.09631      0.99962     2.08724    0.00944     3.09631
      O    2   -0.30283      0.99988     3.29257    0.01038     4.30283
      C    3   -0.01061      0.99959     1.99893    0.01209     3.01061
      C    4   -0.20031      0.99962     2.19317    0.00753     3.20031
      C    5   -0.19698      0.99962     2.18809    0.00926     3.19698
      C    6   -0.08609      0.99960     2.07392    0.01257     3.08609
      N    7   -0.11276      0.99966     2.59924    0.01386     3.61276
      C    8    0.02508      0.99951     1.96299    0.01242     2.97492
      C    9   -0.01807      0.99954     2.00250    0.01603     3.01807
      N   10   -0.09727      0.99973     2.58405    0.01349     3.59727
      N   11   -0.06310      0.99978     2.54909    0.01423     3.56310
      C   12    0.22440      0.99969     1.75489    0.02102     2.77560
      O   13   -0.23694      0.99988     3.23023    0.00682     4.23694
      H   14    0.09149      0.00000     0.40699    0.00152     0.40851
      H   15    0.08113      0.00000     0.41626    0.00262     0.41887
      H   16    0.07673      0.00000     0.42151    0.00175     0.42327
      H   17    0.07883      0.00000     0.41930    0.00187     0.42117
      H   18    0.08050      0.00000     0.41827    0.00124     0.41950
      H   19    0.10578      0.00000     0.39313    0.00109     0.39422
      H   20    0.09827      0.00000     0.40074    0.00099     0.40173
      H   21    0.10496      0.00000     0.39395    0.00110     0.39504
      H   22    0.10588      0.00000     0.39286    0.00126     0.39412
      H   23    0.10269      0.00000     0.39618    0.00113     0.39731
      H   24    0.10585      0.00000     0.39250    0.00165     0.39415
      H   25    0.10618      0.00000     0.39213    0.00170     0.39382
      H   26    0.03351      0.00000     0.46399    0.00250     0.46649
 =======================================================================
   * Total *   -0.00000     12.99573    35.82471    0.17956    49.00000

 Normal termination of Gaussian 16 at Mon Dec 14 13:30:20 2020.
