 Gaussian 16, Revision A.03,

 -----------------------------------------------------------
 # opt freq B3LYP/6-31G(d) empiricaldispersion=gd3bj scf=xqc
 -----------------------------------------------------------

 --------------------------------
 CID_105718691_JID_10517_neutraal
 --------------------------------
 Symbolic Z-matrix:
 Charge =  0 Multiplicity = 1

 SCF Done:  E(RB3LYP) =  -1243.05665702     A.U. after   15 cycles
 SCF Done:  E(RB3LYP) =  -1243.06143576     A.U. after   14 cycles
 SCF Done:  E(RB3LYP) =  -1243.05610611     A.U. after   14 cycles
 SCF Done:  E(RB3LYP) =  -1243.06343964     A.U. after   13 cycles
 SCF Done:  E(RB3LYP) =  -1243.06164431     A.U. after   13 cycles
 SCF Done:  E(RB3LYP) =  -1243.06596918     A.U. after   12 cycles
 SCF Done:  E(RB3LYP) =  -1243.06675689     A.U. after   13 cycles
 SCF Done:  E(RB3LYP) =  -1243.06726781     A.U. after   13 cycles
 SCF Done:  E(RB3LYP) =  -1243.06752402     A.U. after   14 cycles
 SCF Done:  E(RB3LYP) =  -1243.06827694     A.U. after   13 cycles
 SCF Done:  E(RB3LYP) =  -1243.06913966     A.U. after   10 cycles
 SCF Done:  E(RB3LYP) =  -1243.06914130     A.U. after    8 cycles
 SCF Done:  E(RB3LYP) =  -1243.06914176     A.U. after    8 cycles
 SCF Done:  E(RB3LYP) =  -1243.06914191     A.U. after    7 cycles
 SCF Done:  E(RB3LYP) =  -1243.06914198     A.U. after    7 cycles
 Optimization completed.
    -- Stationary point found.
 Normal termination of Gaussian 16 at Sun Dec 13 13:19:29 2020.

 --------------------------------------------------------------------
 #N Geom=AllCheck Guess=TCheck SCRF=Check GenChk RB3LYP/6-31G(d) Freq
 --------------------------------------------------------------------

 Structure from the checkpoint file:  "JID_10517.chk"
 --------------------------------
 CID_105718691_JID_10517_neutraal
 --------------------------------
 Charge =  0 Multiplicity = 1

 SCF Done:  E(RB3LYP) =  -1243.06914198     A.U. after    1 cycles

  Exact polarizability: 212.458 -14.014 184.781  10.011  14.051 151.353
 Approx polarizability: 282.527 -28.211 305.961  13.506  39.238 254.100

                      1                      2                      3
                      A                      A                      A
 Frequencies --     23.3387                44.7830                62.5641
 Red. masses --      4.8879                 3.9087                 5.2489
 Frc consts  --      0.0016                 0.0046                 0.0121
 IR Inten    --      0.5187                 3.4726                 4.7095

                      4                      5                      6
                      A                      A                      A
 Frequencies --     70.4569                84.1054                99.4584
 Red. masses --      6.9745                 5.2838                 2.7980
 Frc consts  --      0.0204                 0.0220                 0.0163
 IR Inten    --      0.3387                 1.7502                 0.6592

                      7                      8                      9
                      A                      A                      A
 Frequencies --    107.4686               124.1014               145.4758
 Red. masses --      3.4755                 3.7215                 3.2991
 Frc consts  --      0.0237                 0.0338                 0.0411
 IR Inten    --      2.3657                 1.3650                 1.2051

                     10                     11                     12
                      A                      A                      A
 Frequencies --    169.2269               169.9864               223.1601
 Red. masses --      3.3285                 4.2079                 1.3492
 Frc consts  --      0.0562                 0.0716                 0.0396
 IR Inten    --      0.4004                 2.3185                 0.3168

                     13                     14                     15
                      A                      A                      A
 Frequencies --    234.2585               241.2770               245.7163
 Red. masses --      2.7267                 3.9257                 3.0137
 Frc consts  --      0.0882                 0.1346                 0.1072
 IR Inten    --      0.2480                 1.5382                 1.5727

                     16                     17                     18
                      A                      A                      A
 Frequencies --    285.0395               295.2921               326.3869
 Red. masses --      3.6031                 3.3652                 2.8924
 Frc consts  --      0.1725                 0.1729                 0.1815
 IR Inten    --      4.1348                 2.1666                 0.0497

                     19                     20                     21
                      A                      A                      A
 Frequencies --    341.9031               358.7740               370.6970
 Red. masses --      2.5531                 3.1936                 1.4002
 Frc consts  --      0.1758                 0.2422                 0.1134
 IR Inten    --      5.2710                 2.7496               171.2200

                     22                     23                     24
                      A                      A                      A
 Frequencies --    390.9906               412.9554               446.8504
 Red. masses --      2.4292                 3.6024                 3.4219
 Frc consts  --      0.2188                 0.3620                 0.4026
 IR Inten    --     22.1318                 5.7160                 4.8515

                     25                     26                     27
                      A                      A                      A
 Frequencies --    457.8759               473.5850               502.9610
 Red. masses --      2.4415                 3.2455                 2.3242
 Frc consts  --      0.3016                 0.4289                 0.3464
 IR Inten    --      3.1776                 1.3870                 3.0741

                     28                     29                     30
                      A                      A                      A
 Frequencies --    540.4901               564.8228               595.5050
 Red. masses --      1.9170                 2.8112                 3.3580
 Frc consts  --      0.3299                 0.5284                 0.7016
 IR Inten    --      1.3590                11.9812                 1.7886

                     31                     32                     33
                      A                      A                      A
 Frequencies --    602.9144               623.7763               651.5822
 Red. masses --      2.3054                 1.6354                 3.0046
 Frc consts  --      0.4937                 0.3749                 0.7516
 IR Inten    --     44.4485                16.2493                15.1823

                     34                     35                     36
                      A                      A                      A
 Frequencies --    672.9632               686.0735               725.4244
 Red. masses --      3.2250                 3.6932                 1.4558
 Frc consts  --      0.8605                 1.0242                 0.4514
 IR Inten    --     11.2199                 2.5139                50.5755

                     37                     38                     39
                      A                      A                      A
 Frequencies --    736.4837               758.3677               778.4680
 Red. masses --      2.7309                 2.3956                 2.9332
 Frc consts  --      0.8727                 0.8117                 1.0473
 IR Inten    --     11.3107                24.5291                19.0488

                     40                     41                     42
                      A                      A                      A
 Frequencies --    787.4178               806.1306               852.1426
 Red. masses --      2.2807                 1.8412                 2.2262
 Frc consts  --      0.8332                 0.7050                 0.9525
 IR Inten    --     23.4035                 6.1047                12.5338

                     43                     44                     45
                      A                      A                      A
 Frequencies --    853.6979               865.2034               870.8139
 Red. masses --      1.5202                 1.3526                 1.6885
 Frc consts  --      0.6528                 0.5965                 0.7544
 IR Inten    --      7.1799                 7.3077                 0.2969

                     46                     47                     48
                      A                      A                      A
 Frequencies --    883.1076               917.4154               944.2003
 Red. masses --      2.2507                 5.9115                 2.1062
 Frc consts  --      1.0342                 2.9314                 1.1063
 IR Inten    --      3.1583                 8.8009                12.7625

                     49                     50                     51
                      A                      A                      A
 Frequencies --    971.5740               978.9620               985.7478
 Red. masses --      2.1944                 2.3993                 2.2154
 Frc consts  --      1.2205                 1.3548                 1.2683
 IR Inten    --      7.0088                 2.7829                 0.7325

                     52                     53                     54
                      A                      A                      A
 Frequencies --   1011.4858              1027.8639              1053.9855
 Red. masses --      2.0323                 2.2221                 2.2095
 Frc consts  --      1.2251                 1.3832                 1.4461
 IR Inten    --      2.4919                27.9343                 2.7945

                     55                     56                     57
                      A                      A                      A
 Frequencies --   1062.7245              1067.9210              1094.9012
 Red. masses --      2.0120                 1.8473                 2.0116
 Frc consts  --      1.3388                 1.2413                 1.4208
 IR Inten    --      3.4702                 2.9971                 5.4482

                     58                     59                     60
                      A                      A                      A
 Frequencies --   1099.2100              1116.7140              1134.3721
 Red. masses --      1.8628                 2.0440                 1.9491
 Frc consts  --      1.3261                 1.5018                 1.4777
 IR Inten    --      8.1552                 3.0888                 2.1683

                     61                     62                     63
                      A                      A                      A
 Frequencies --   1145.9445              1167.5126              1181.7785
 Red. masses --      2.0081                 2.7817                 2.3707
 Frc consts  --      1.5537                 2.2340                 1.9507
 IR Inten    --     25.0445                20.4985                20.7419

                     64                     65                     66
                      A                      A                      A
 Frequencies --   1218.4433              1231.9070              1240.4108
 Red. masses --      1.7444                 2.5961                 1.2280
 Frc consts  --      1.5258                 2.3213                 1.1132
 IR Inten    --     26.0488                48.6642                 9.4095

                     67                     68                     69
                      A                      A                      A
 Frequencies --   1251.2145              1264.7643              1293.9700
 Red. masses --      3.2038                 1.2780                 1.3407
 Frc consts  --      2.9551                 1.2045                 1.3226
 IR Inten    --      8.9180                 4.7948                31.0851

                     70                     71                     72
                      A                      A                      A
 Frequencies --   1305.9812              1313.2512              1329.6622
 Red. masses --      1.6909                 1.3780                 1.1946
 Frc consts  --      1.6992                 1.4002                 1.2444
 IR Inten    --     31.1515                26.7786                 7.3702

                     73                     74                     75
                      A                      A                      A
 Frequencies --   1333.3591              1366.8883              1373.8519
 Red. masses --      1.4340                 1.6725                 1.3633
 Frc consts  --      1.5021                 1.8412                 1.5161
 IR Inten    --     10.8787                38.4820                17.0455

                     76                     77                     78
                      A                      A                      A
 Frequencies --   1385.1101              1394.5935              1398.6876
 Red. masses --      2.2626                 1.6196                 1.4285
 Frc consts  --      2.5575                 1.8559                 1.6466
 IR Inten    --    105.0502                36.6206                 2.7548

                     79                     80                     81
                      A                      A                      A
 Frequencies --   1406.6559              1408.7990              1413.6472
 Red. masses --      1.5037                 1.8812                 1.6553
 Frc consts  --      1.7530                 2.1998                 1.9490
 IR Inten    --      8.1153                50.6062                30.0677

                     82                     83                     84
                      A                      A                      A
 Frequencies --   1419.4363              1432.8503              1448.6410
 Red. masses --      1.4932                 1.3492                 3.2601
 Frc consts  --      1.7726                 1.6321                 4.0309
 IR Inten    --      8.1588                23.9110                68.3502

                     85                     86                     87
                      A                      A                      A
 Frequencies --   1475.6031              1506.9833              1515.5954
 Red. masses --      1.3567                 1.0813                 1.0832
 Frc consts  --      1.7405                 1.4469                 1.4659
 IR Inten    --      3.0382                 6.3341                 2.5231

                     88                     89                     90
                      A                      A                      A
 Frequencies --   1519.2437              1520.8884              1528.0597
 Red. masses --      1.0869                 1.0904                 1.1034
 Frc consts  --      1.4780                 1.4861                 1.5180
 IR Inten    --      1.3890                 2.7331                 6.8695

                     91                     92                     93
                      A                      A                      A
 Frequencies --   1528.9086              1534.9887              1543.2874
 Red. masses --      1.0453                 1.0779                 1.0946
 Frc consts  --      1.4396                 1.4964                 1.5360
 IR Inten    --      1.0238                11.8664                 8.9086

                     94                     95                     96
                      A                      A                      A
 Frequencies --   1561.7059              1563.8924              1649.0180
 Red. masses --      2.9781                 1.2484                 8.1201
 Frc consts  --      4.2794                 1.7990                13.0095
 IR Inten    --     31.2324                11.6408                60.3860

                     97                     98                     99
                      A                      A                      A
 Frequencies --   1667.7590              1769.5998              3024.8306
 Red. masses --      1.2538                 7.9436                 1.0695
 Frc consts  --      2.0547                14.6561                 5.7653
 IR Inten    --    130.2787               296.9174                18.2203

                    100                    101                    102
                      A                      A                      A
 Frequencies --   3026.4410              3038.8568              3040.3694
 Red. masses --      1.0616                 1.0629                 1.0716
 Frc consts  --      5.7291                 5.7830                 5.8365
 IR Inten    --     21.9218                20.7544                23.3112

                    103                    104                    105
                      A                      A                      A
 Frequencies --   3045.5839              3059.7544              3066.7179
 Red. masses --      1.0633                 1.0344                 1.0866
 Frc consts  --      5.8111                 5.7059                 6.0212
 IR Inten    --     12.9561                30.3305                36.2501

                    106                    107                    108
                      A                      A                      A
 Frequencies --   3068.9505              3072.7562              3075.7111
 Red. masses --      1.0883                 1.0890                 1.0910
 Frc consts  --      6.0390                 6.0583                 6.0807
 IR Inten    --     50.4549                13.6506                29.5970

                    109                    110                    111
                      A                      A                      A
 Frequencies --   3083.8570              3090.0031              3115.7383
 Red. masses --      1.0836                 1.0851                 1.1009
 Frc consts  --      6.0718                 6.1042                 6.2970
 IR Inten    --      3.3919                82.8174                 9.8052

                    112                    113                    114
                      A                      A                      A
 Frequencies --   3117.4577              3124.6184              3133.4248
 Red. masses --      1.1008                 1.0994                 1.0993
 Frc consts  --      6.3031                 6.3242                 6.3590
 IR Inten    --     22.7535                10.8494                22.2257

                    115                    116                    117
                      A                      A                      A
 Frequencies --   3144.0308              3277.6647              3304.5802
 Red. masses --      1.0985                 1.0904                 1.1055
 Frc consts  --      6.3976                 6.9016                 7.1131
 IR Inten    --     17.6712                 1.2072                 1.3853

                    118                    119                    120
                      A                      A                      A
 Frequencies --   3562.0683              3578.6983              3699.4333
 Red. masses --      1.0748                 1.0449                 1.1039
 Frc consts  --      8.0348                 7.8846                 8.9013
 IR Inten    --     19.4673                35.8269                40.7496

 - Thermochemistry -
 -------------------
 Temperature   298.150 Kelvin.  Pressure   1.00000 Atm.
 Atom     1 has atomic number  6 and mass  12.00000

 Molecular mass:   294.14020 amu.
 Principal axes and moments of inertia in atomic units:
                           1         2         3
     Eigenvalues --  3428.433667933.207078673.32357
           X            0.99980  -0.01818   0.00888
           Y            0.01791   0.99942   0.02912
           Z           -0.00940  -0.02895   0.99954
 This molecule is an asymmetric top.
 Rotational symmetry number  1.
 Warning -- assumption of classical behavior for rotation
           may cause significant error
 Rotational temperatures (Kelvin)      0.02526     0.01092     0.00999
 Rotational constants (GHZ):           0.52640     0.22749     0.20808
 Zero-point vibrational energy     947416.0 (Joules/Mol)
                                  226.43787 (Kcal/Mol)
 Warning -- explicit consideration of  31 degrees of freedom as
           vibrations may cause significant error
 Vibrational temperatures:     33.58    64.43    90.02   101.37   121.01
          (Kelvin)            143.10   154.62   178.55   209.31   243.48
                              244.57   321.08   337.05   347.14   353.53
                              410.11   424.86   469.60   491.92   516.20
                              533.35   562.55   594.15   642.92   658.78
                              681.38   723.65   777.64   812.65   856.80
                              867.46   897.48   937.48   968.24   987.11
                             1043.72  1059.64  1091.12  1120.04  1132.92
                             1159.84  1226.04  1228.28  1244.83  1252.91
                             1270.59  1319.96  1358.49  1397.88  1408.51
                             1418.27  1455.30  1478.87  1516.45  1529.02
                             1536.50  1575.32  1581.52  1606.70  1632.11
                             1648.76  1679.79  1700.32  1753.07  1772.44
                             1784.67  1800.22  1819.71  1861.73  1879.02
                             1889.48  1913.09  1918.41  1966.65  1976.67
                             1992.86  2006.51  2012.40  2023.86  2026.95
                             2033.92  2042.25  2061.55  2084.27  2123.06
                             2168.21  2180.60  2185.85  2188.22  2198.54
                             2199.76  2208.51  2220.45  2246.95  2250.09
                             2372.57  2399.53  2546.06  4352.06  4354.37
                             4372.24  4374.41  4381.92  4402.30  4412.32
                             4415.54  4421.01  4425.26  4436.98  4445.83
                             4482.85  4485.33  4495.63  4508.30  4523.56
                             4715.83  4754.55  5125.02  5148.95  5322.66

 Zero-point correction=                           0.360852 (Hartree/Particle)
 Thermal correction to Energy=                    0.380601
 Thermal correction to Enthalpy=                  0.381545
 Thermal correction to Gibbs Free Energy=         0.312508
 Sum of electronic and zero-point Energies=          -1242.708290
 Sum of electronic and thermal Energies=             -1242.688541
 Sum of electronic and thermal Enthalpies=           -1242.687597
 Sum of electronic and thermal Free Energies=        -1242.756634

                     E (Thermal)             CV                S
                      KCal/Mol        Cal/Mol-Kelvin    Cal/Mol-Kelvin
 Total                  238.831             76.500            145.302
 Electronic               0.000              0.000              0.000
 Translational            0.889              2.981             42.934
 Rotational               0.889              2.981             33.822
 Vibrational            237.053             70.538             68.546
 Vibration     1          0.593              1.985              6.328
 Vibration     2          0.595              1.979              5.035
 Vibration     3          0.597              1.972              4.375
 Vibration     4          0.598              1.968              4.141
 Vibration     5          0.601              1.960              3.793
 Vibration     6          0.604              1.949              3.465
 Vibration     7          0.606              1.943              3.314
 Vibration     8          0.610              1.929              3.035
 Vibration     9          0.617              1.908              2.731
 Vibration    10          0.625              1.880              2.444
 Vibration    11          0.625              1.879              2.436
 Vibration    12          0.649              1.806              1.933
 Vibration    13          0.654              1.788              1.846
 Vibration    14          0.658              1.777              1.793
 Vibration    15          0.660              1.770              1.761
 Vibration    16          0.683              1.701              1.503
 Vibration    17          0.690              1.683              1.443
 Vibration    18          0.710              1.623              1.278
 Vibration    19          0.721              1.592              1.203
 Vibration    20          0.734              1.557              1.127
 Vibration    21          0.743              1.532              1.077
 Vibration    22          0.759              1.489              0.996
 Vibration    23          0.777              1.442              0.916
 Vibration    24          0.806              1.368              0.805
 Vibration    25          0.816              1.343              0.772
 Vibration    26          0.830              1.309              0.728
 Vibration    27          0.858              1.243              0.651
 Vibration    28          0.896              1.161              0.564
 Vibration    29          0.921              1.107              0.514
 Vibration    30          0.953              1.041              0.457
 Vibration    31          0.961              1.026              0.445

                           ! Non-Optimized Parameters !
 Normal termination of Gaussian 16 at Sun Dec 13 13:44:20 2020.

 ----------------------------------------------------------------------
 # B3LYP/6-311++G(d,p) empiricaldispersion=gd3bj scf=xqc pop=npa geom=c
 heck
 ----------------------------------------------------------------------

 ----------------------------------------
 CID_105718691_JID_10517_Energie_neutraal
 ----------------------------------------
 Structure from the checkpoint file:  "JID_10517.chk"
 Charge =  0 Multiplicity = 1

 SCF Done:  E(RB3LYP) =  -1243.33487297     A.U. after   17 cycles
 Normal termination of Gaussian 16 at Sun Dec 13 13:55:49 2020.

 ----------------------------------------------------------------------
 # B3LYP/6-311++G(d,p) empiricaldispersion=gd3bj scf=xqc pop=npa geom=c
 heck
 ----------------------------------------------------------------------

 --------------------------------------
 CID_105718691_JID_10517_Energie_kation
 --------------------------------------
 Structure from the checkpoint file:  "JID_10517.chk"
 Charge =  1 Multiplicity = 2

 SCF Done:  E(UB3LYP) =  -1243.04996374     A.U. after   29 cycles
 Normal termination of Gaussian 16 at Sun Dec 13 14:21:51 2020.
 Gaussian 16:  ES64L-G16RevA.03 25-Dec-2016

 ----------------------------------------------------------------------
 # B3LYP/6-311++G(d,p) empiricaldispersion=gd3bj scf=xqc pop=npa geom=c
 heck
 ----------------------------------------------------------------------

 -------------------------------------
 CID_105718691_JID_10517_Energie_anion
 -------------------------------------
 Structure from the checkpoint file:  "JID_10517.chk"
 Charge = -1 Multiplicity = 2

                         Standard orientation:
 ---------------------------------------------------------------------
 Center     Atomic      Atomic             Coordinates (Angstroms)
 Number     Number       Type             X           Y           Z
 ---------------------------------------------------------------------
      1          6           0       -3.939221    1.150570   -1.214787
      2          6           0       -3.649514    0.648881    0.208204
      3          6           0       -2.807714   -0.578355    0.240013
      4          6           0       -1.606633   -0.883749    0.826509
      5          6           0       -1.332661   -2.262172    0.501810
      6          6           0       -2.367101   -2.683073   -0.271267
      7          8           0       -3.265020   -1.667208   -0.450432
      8          6           0       -0.854144    0.040084    1.716672
      9          8           0       -1.392600    0.583026    2.673227
     10          7           0        0.493876    0.248738    1.466390
     11          6           0        1.152321    0.288655    0.142455
     12          6           0        2.382655    1.227180    0.290049
     13          6           0        3.593551    0.637332    1.035172
     14          6           0        4.608791   -0.035799    0.098866
     15          6           0        4.138119   -1.333457   -0.568706
     16          6           0        2.766864   -1.262567   -1.259642
     17          6           0        1.597150   -1.140476   -0.261442
     18          6           0        0.219063    0.978323   -0.889368
     19         16           0       -0.423526    2.491242   -0.622133
     20          7           0        0.011707    0.322808   -2.043628
     21          1           0       -3.011217    1.453841   -1.708793
     22          1           0       -4.600686    2.022277   -1.182095
     23          1           0       -4.424710    0.373823   -1.814397
     24          1           0       -3.134549    1.414953    0.792630
     25          1           0       -4.596128    0.438798    0.724921
     26          1           0       -0.500226   -2.856756    0.847146
     27          1           0       -2.622491   -3.623788   -0.733699
     28          1           0        0.823824    0.970468    2.098961
     29          1           0        2.697842    1.539829   -0.710994
     30          1           0        2.023562    2.139697    0.774112
     31          1           0        3.267187   -0.058483    1.818972
     32          1           0        4.103489    1.457658    1.553976
     33          1           0        5.530809   -0.246235    0.655680
     34          1           0        4.882026    0.690179   -0.680331
     35          1           0        4.095310   -2.133384    0.184152
     36          1           0        4.894953   -1.643419   -1.300626
     37          1           0        2.631810   -2.186332   -1.836528
     38          1           0        2.751610   -0.444739   -1.991453
     39          1           0        1.879530   -1.642691    0.668595
     40          1           0        0.728868   -1.698688   -0.619496
     41          1           0        0.275930   -0.643064   -2.170192
     42          1           0       -0.607589    0.740559   -2.725334
 ---------------------------------------------------------------------

 SCF Done:  E(UB3LYP) =  -1243.33448359     A.U. after   33 cycles
 SCF Done:  E(UB3LYP) =  -1243.33448358     a.u. after    1 cycles

 The electronic state is 2-A.
 Alpha  occ. eigenvalues --  -88.66183 -19.10033 -18.98988 -14.22460 -14.22427
 Alpha  occ. eigenvalues --  -10.17740 -10.13814 -10.13427 -10.12578 -10.11219
 Alpha  occ. eigenvalues --  -10.08828 -10.08489 -10.08290 -10.07128 -10.07096
 Alpha  occ. eigenvalues --  -10.07055 -10.07031 -10.06951 -10.06716 -10.06637
 Alpha  occ. eigenvalues --   -7.74976  -5.71323  -5.70855  -5.70536  -1.02440
 Alpha  occ. eigenvalues --   -0.93936  -0.83690  -0.81025  -0.72747  -0.71983
 Alpha  occ. eigenvalues --   -0.70496  -0.66771  -0.66634  -0.63554  -0.61568
 Alpha  occ. eigenvalues --   -0.56396  -0.55937  -0.54562  -0.53829  -0.49923
 Alpha  occ. eigenvalues --   -0.48624  -0.47404  -0.45807  -0.44371  -0.43492
 Alpha  occ. eigenvalues --   -0.41972  -0.39377  -0.38157  -0.37626  -0.36278
 Alpha  occ. eigenvalues --   -0.35671  -0.35531  -0.34254  -0.34103  -0.32856
 Alpha  occ. eigenvalues --   -0.32167  -0.31474  -0.31241  -0.30463  -0.30399
 Alpha  occ. eigenvalues --   -0.29120  -0.28530  -0.27514  -0.26456  -0.26273
 Alpha  occ. eigenvalues --   -0.26138  -0.25320  -0.24377  -0.23672  -0.22998
 Alpha  occ. eigenvalues --   -0.22369  -0.21827  -0.21703  -0.19042  -0.16930
 Alpha  occ. eigenvalues --   -0.15165  -0.13469  -0.11015  -0.08852   0.03904
 Alpha virt. eigenvalues --    0.05709   0.06525   0.07119   0.07449   0.08009
 Alpha virt. eigenvalues --    0.08547   0.08646   0.09418   0.09771   0.10115
 Alpha virt. eigenvalues --    0.10380   0.10653   0.11262   0.11557   0.11683

  Beta  occ. eigenvalues --  -88.66169 -19.10024 -18.98992 -14.22421 -14.22320
  Beta  occ. eigenvalues --  -10.17739 -10.13788 -10.13424 -10.12612 -10.10666
  Beta  occ. eigenvalues --  -10.08822 -10.08492 -10.08289 -10.07114 -10.07079
  Beta  occ. eigenvalues --  -10.07044 -10.07017 -10.06924 -10.06687 -10.06631
  Beta  occ. eigenvalues --   -7.74963  -5.71335  -5.70790  -5.70529  -1.02422
  Beta  occ. eigenvalues --   -0.93934  -0.83354  -0.80829  -0.72706  -0.71964
  Beta  occ. eigenvalues --   -0.70478  -0.66698  -0.66534  -0.63538  -0.61108
  Beta  occ. eigenvalues --   -0.56332  -0.55886  -0.54516  -0.53812  -0.49878
  Beta  occ. eigenvalues --   -0.48367  -0.47319  -0.45697  -0.44334  -0.43365
  Beta  occ. eigenvalues --   -0.41932  -0.39281  -0.38115  -0.37530  -0.36226
  Beta  occ. eigenvalues --   -0.35654  -0.35472  -0.34222  -0.34042  -0.32820
  Beta  occ. eigenvalues --   -0.32094  -0.31433  -0.31202  -0.30383  -0.30320
  Beta  occ. eigenvalues --   -0.29076  -0.28473  -0.27494  -0.26443  -0.26080
  Beta  occ. eigenvalues --   -0.25424  -0.25136  -0.24060  -0.23566  -0.22891
  Beta  occ. eigenvalues --   -0.22141  -0.21678  -0.21563  -0.18985  -0.16870
  Beta  occ. eigenvalues --   -0.15081  -0.13410  -0.10255  -0.08804
  Beta virt. eigenvalues --    0.06104   0.06687   0.07172   0.07878   0.08018
  Beta virt. eigenvalues --    0.08608   0.08684   0.09311   0.09894   0.10026
  Beta virt. eigenvalues --    0.10204   0.10564   0.10843   0.11250   0.11608

 Mulliken charges and spin densities:
               1          2
     1  C   -0.534771  -0.004646
     2  C   -0.239080   0.042440
     3  C   -0.063171  -0.144614
     4  C    0.698086  -0.105299
     5  C    0.301966  -0.171053
     6  C    0.057549  -0.113654
     7  O    0.052919   0.004926
     8  C   -1.172628   0.099365
     9  O   -0.236492   0.001993
    10  N   -0.065038  -0.018836
    11  C    0.988052   0.389506
    12  C   -0.307384  -0.200559
    13  C   -0.812102   0.725384
    14  C    0.765799  -1.301587
    15  C   -0.691313   0.241009
    16  C   -0.128854  -0.351667
    17  C   -0.246550  -0.557058
    18  C    0.292248  -0.225555
    19  S   -0.446213  -0.087877
    20  N   -0.460528   0.194214
    21  H    0.102876   0.003654
    22  H    0.107957   0.026796
    23  H    0.134590  -0.002682
    24  H    0.199791   0.005970
    25  H    0.157704   0.003556
    26  H   -0.113274   0.290519
    27  H   -0.077485   0.263044
    28  H    0.291764   0.030251
    29  H    0.003050   0.197228
    30  H    0.077233   0.021875
    31  H    0.047985   0.081840
    32  H    0.003963   0.179006
    33  H   -0.025913   0.176254
    34  H    0.021370   0.118809
    35  H   -0.011463   0.144173
    36  H   -0.171518   0.340079
    37  H   -0.723818   0.911593
    38  H    0.043513   0.127516
    39  H    0.309207  -0.114663
    40  H    0.650813  -0.537207
    41  H    0.046429   0.187337
    42  H    0.172729   0.128621
 Sum of Mulliken charges =  -1.00000   1.00000

 Dipole moment (field-independent basis, Debye):
    X=             -2.9036    Y=             -2.1252    Z=              0.8264  Tot=              3.6920
 Quadrupole moment (field-independent basis, Debye-Ang):
   XX=           -183.7577   YY=           -173.5348   ZZ=           -167.2238
   XY=              7.3954   XZ=             13.9051   YZ=             -3.5017

 Summary of Natural Population Analysis:

                                       Natural Population
                Natural  -----------------------------------------------
    Atom  No    Charge         Core      Valence    Rydberg      Total
 -----------------------------------------------------------------------
      C    1   -0.28352      0.99966     2.27978    0.00409     3.28352
      C    2   -0.21601      0.99960     2.20965    0.00676     3.21601
      C    3    0.19253      0.99939     1.79253    0.01554     2.80747
      C    4   -0.11502      0.99939     2.10353    0.01210     3.11502
      C    5   -0.14282      0.99954     2.13379    0.00949     3.14282
      C    6    0.04950      0.99951     1.93642    0.01458     2.95050
      O    7   -0.23699      0.99986     3.23010    0.00703     4.23699
      C    8    0.35038      0.99962     1.62814    0.02187     2.64962
      O    9   -0.31375      0.99988     3.30874    0.00514     4.31375
      N   10   -0.31985      0.99965     2.80986    0.01034     3.81985
      C   11    0.04263      0.99947     1.94249    0.01540     2.95737
      C   12   -0.19117      0.99958     2.18097    0.01062     3.19117
      C   13   -0.19694      0.99962     2.18888    0.00843     3.19694
      C   14   -0.18612      0.99962     2.17885    0.00764     3.18612
      C   15   -0.18496      0.99962     2.17716    0.00818     3.18496
      C   16   -0.19835      0.99962     2.18890    0.00983     3.19835
      C   17   -0.20671      0.99958     2.19575    0.01138     3.20671
      C   18    0.14556      0.99958     1.83252    0.02233     2.85444
      S   19   -0.13720      4.99952     3.12450    0.01318     8.13720
      N   20   -0.36781      0.99965     2.85676    0.01140     3.86781
      H   21    0.11015      0.00000     0.38874    0.00111     0.38985
      H   22    0.09471      0.00000     0.40444    0.00084     0.40529
      H   23    0.09387      0.00000     0.40528    0.00085     0.40613
      H   24    0.12413      0.00000     0.37493    0.00093     0.37587
      H   25    0.10005      0.00000     0.39886    0.00110     0.39995
      H   26    0.11373      0.00000     0.38540    0.00087     0.38627
      H   27    0.09513      0.00000     0.40390    0.00097     0.40487
      H   28    0.19322      0.00000     0.30447    0.00231     0.30678
      H   29    0.10700      0.00000     0.39183    0.00117     0.39300
      H   30    0.11260      0.00000     0.38632    0.00108     0.38740
      H   31    0.09642      0.00000     0.40239    0.00118     0.40358
      H   32    0.10026      0.00000     0.39892    0.00082     0.39974
      H   33    0.09586      0.00000     0.40322    0.00093     0.40414
      H   34    0.09222      0.00000     0.40656    0.00123     0.40778
      H   35    0.08995      0.00000     0.40884    0.00121     0.41005
      H   36    0.09862      0.00000     0.40030    0.00108     0.40138
      H   37    0.10142      0.00000     0.39675    0.00182     0.39858
      H   38    0.10115      0.00000     0.39724    0.00161     0.39885
      H   39    0.10459      0.00000     0.39382    0.00160     0.39541
      H   40    0.10379      0.00000     0.39392    0.00229     0.39621
      H   41    0.19226      0.00000     0.30550    0.00224     0.30774
      H   42    0.19552      0.00000     0.30280    0.00168     0.30448
 =======================================================================
   * Total *    0.00001     23.99196    54.75378    0.25425    78.99999

 Normal termination of Gaussian 16 at Sun Dec 13 14:52:07 2020.
