 Gaussian 16, Revision A.03,

 -----------------------------------------------------------
 # opt freq B3LYP/6-31G(d) empiricaldispersion=gd3bj scf=xqc
 -----------------------------------------------------------

 ------------------------------
 CID_61284284_JID_8275_neutraal
 ------------------------------
 Symbolic Z-matrix:
 Charge =  0 Multiplicity = 1

 SCF Done:  E(RB3LYP) =  -835.089789565     A.U. after   17 cycles
 SCF Done:  E(RB3LYP) =  -835.093685422     A.U. after   16 cycles
 SCF Done:  E(RB3LYP) =  -835.092762338     A.U. after   15 cycles
 SCF Done:  E(RB3LYP) =  -835.094504043     A.U. after   15 cycles
 SCF Done:  E(RB3LYP) =  -835.095459982     A.U. after   15 cycles
 SCF Done:  E(RB3LYP) =  -835.095061041     A.U. after   15 cycles
 SCF Done:  E(RB3LYP) =  -835.099490958     A.U. after   14 cycles
 SCF Done:  E(RB3LYP) =  -835.100233034     A.U. after   14 cycles
 SCF Done:  E(RB3LYP) =  -835.100892694     A.U. after   15 cycles
 SCF Done:  E(RB3LYP) =  -835.101251777     A.U. after   13 cycles
 SCF Done:  E(RB3LYP) =  -835.101400270     A.U. after   12 cycles
 SCF Done:  E(RB3LYP) =  -835.101414070     A.U. after   10 cycles
 SCF Done:  E(RB3LYP) =  -835.101419459     A.U. after   11 cycles
 SCF Done:  E(RB3LYP) =  -835.101421036     A.U. after    9 cycles
 SCF Done:  E(RB3LYP) =  -835.101421154     A.U. after    8 cycles
 SCF Done:  E(RB3LYP) =  -835.101421265     A.U. after    8 cycles
 Optimization completed.
    -- Stationary point found.
 Normal termination of Gaussian 16 at Fri Dec 11 20:01:56 2020.

 --------------------------------------------------------------------
 #N Geom=AllCheck Guess=TCheck SCRF=Check GenChk RB3LYP/6-31G(d) Freq
 --------------------------------------------------------------------

 Structure from the checkpoint file:  "JID_8275.chk"
 ------------------------------
 CID_61284284_JID_8275_neutraal
 ------------------------------
 Charge =  0 Multiplicity = 1

 SCF Done:  E(RB3LYP) =  -835.101421265     A.U. after    1 cycles

  Exact polarizability: 140.213  -9.586 161.957 -23.191 -11.031 134.105
 Approx polarizability: 229.113 -33.199 269.237 -58.248 -24.203 238.080

                      1                      2                      3
                      A                      A                      A
 Frequencies --     37.9415                47.5953                51.6456
 Red. masses --      5.2521                 4.5377                 5.5408
 Frc consts  --      0.0045                 0.0061                 0.0087
 IR Inten    --      0.9313                 0.3219                 2.3530

                      4                      5                      6
                      A                      A                      A
 Frequencies --     86.5091                97.7854               117.3933
 Red. masses --      5.4249                 5.7816                 6.3092
 Frc consts  --      0.0239                 0.0326                 0.0512
 IR Inten    --      0.3355                 0.5746                 1.1077

                      7                      8                      9
                      A                      A                      A
 Frequencies --    143.4748               170.1143               192.0072
 Red. masses --      5.6025                 4.6148                 4.1134
 Frc consts  --      0.0679                 0.0787                 0.0893
 IR Inten    --      3.7348                 2.9270                 0.9056

                     10                     11                     12
                      A                      A                      A
 Frequencies --    232.5534               250.2991               270.7354
 Red. masses --      1.6973                 3.9095                 1.8080
 Frc consts  --      0.0541                 0.1443                 0.0781
 IR Inten    --      0.5310                 0.3297                 1.0090

                     13                     14                     15
                      A                      A                      A
 Frequencies --    309.0882               328.7238               346.1438
 Red. masses --      4.0252                 3.4725                 2.3594
 Frc consts  --      0.2266                 0.2211                 0.1666
 IR Inten    --      0.9817                 0.3521                 1.7201

                     16                     17                     18
                      A                      A                      A
 Frequencies --    385.5848               398.9803               445.3143
 Red. masses --      5.7301                 4.5868                 4.6094
 Frc consts  --      0.5019                 0.4302                 0.5386
 IR Inten    --      1.6466                 1.9045                 1.9121

                     19                     20                     21
                      A                      A                      A
 Frequencies --    507.4575               570.9750               580.9198
 Red. masses --      3.5605                 3.2151                 4.8567
 Frc consts  --      0.5402                 0.6176                 0.9657
 IR Inten    --      6.9407                 1.5935                 1.0897

                     22                     23                     24
                      A                      A                      A
 Frequencies --    609.4442               621.2798               653.7119
 Red. masses --      2.7115                 3.0899                 3.6760
 Frc consts  --      0.5934                 0.7027                 0.9256
 IR Inten    --     12.4823                31.5553                 4.8367

                     25                     26                     27
                      A                      A                      A
 Frequencies --    678.3137               703.0327               727.1604
 Red. masses --      3.9300                 2.5564                 4.1952
 Frc consts  --      1.0654                 0.7444                 1.3070
 IR Inten    --     18.6824                35.9092                22.4189

                     28                     29                     30
                      A                      A                      A
 Frequencies --    739.6344               763.0287               772.8266
 Red. masses --      1.6213                 1.8780                 3.3100
 Frc consts  --      0.5226                 0.6442                 1.1648
 IR Inten    --     82.9669                27.9445                44.0997

                     31                     32                     33
                      A                      A                      A
 Frequencies --    796.7187               802.7371               811.0253
 Red. masses --      2.0831                 1.5040                 3.0130
 Frc consts  --      0.7791                 0.5710                 1.1677
 IR Inten    --     72.5062                34.7237                68.8802

                     34                     35                     36
                      A                      A                      A
 Frequencies --    863.9300               877.3229               881.0167
 Red. masses --      7.1858                 1.3092                 1.5443
 Frc consts  --      3.1600                 0.5937                 0.7062
 IR Inten    --     23.1143                 6.7029                 3.1787

                     37                     38                     39
                      A                      A                      A
 Frequencies --    890.9451               948.4970               957.5162
 Red. masses --      1.9284                 5.1885                 1.3779
 Frc consts  --      0.9019                 2.7502                 0.7443
 IR Inten    --      4.1574                16.3518                 1.6376

                     40                     41                     42
                      A                      A                      A
 Frequencies --    971.9183               991.3956              1038.1839
 Red. masses --      1.4552                 1.2920                 2.5678
 Frc consts  --      0.8099                 0.7482                 1.6306
 IR Inten    --      1.7813                 0.5980                21.7768

                     43                     44                     45
                      A                      A                      A
 Frequencies --   1046.5598              1068.4457              1078.0636
 Red. masses --      3.0856                 1.3905                 2.9660
 Frc consts  --      1.9912                 0.9353                 2.0310
 IR Inten    --     10.7087                 4.3799                 0.8823

                     46                     47                     48
                      A                      A                      A
 Frequencies --   1091.1819              1095.7175              1136.6295
 Red. masses --      2.7636                 2.5219                 2.6928
 Frc consts  --      1.9387                 1.7839                 2.0497
 IR Inten    --      6.8711                 4.3361                12.7123

                     49                     50                     51
                      A                      A                      A
 Frequencies --   1148.0923              1156.6775              1178.1261
 Red. masses --      2.8250                 2.7506                 1.8358
 Frc consts  --      2.1940                 2.1682                 1.5013
 IR Inten    --     24.2444                51.2956                 6.5788

                     52                     53                     54
                      A                      A                      A
 Frequencies --   1198.6677              1214.3229              1250.1936
 Red. masses --      1.1577                 1.8933                 2.3199
 Frc consts  --      0.9801                 1.6449                 2.1364
 IR Inten    --      4.4569                20.0873                 5.7947

                     55                     56                     57
                      A                      A                      A
 Frequencies --   1270.9793              1302.3538              1339.7745
 Red. masses --      1.5825                 1.7031                 2.2313
 Frc consts  --      1.5061                 1.7019                 2.3598
 IR Inten    --      1.2030                 0.5201                19.8991

                     58                     59                     60
                      A                      A                      A
 Frequencies --   1346.7362              1367.3957              1384.5031
 Red. masses --      1.6851                 2.5800                 1.8350
 Frc consts  --      1.8007                 2.8423                 2.0724
 IR Inten    --     10.0927                 9.6677                18.1407

                     61                     62                     63
                      A                      A                      A
 Frequencies --   1390.0927              1400.2258              1423.0992
 Red. masses --      1.8460                 4.5190                 1.3922
 Frc consts  --      2.1016                 5.2203                 1.6612
 IR Inten    --     13.2607               157.0509                31.5518

                     64                     65                     66
                      A                      A                      A
 Frequencies --   1434.4955              1468.4004              1492.4797
 Red. masses --      1.2516                 2.5193                 1.9849
 Frc consts  --      1.5174                 3.2005                 2.6050
 IR Inten    --     10.2016                 0.6666                 2.3121

                     67                     68                     69
                      A                      A                      A
 Frequencies --   1495.8027              1512.7715              1515.0246
 Red. masses --      1.2055                 1.2260                 2.3828
 Frc consts  --      1.5891                 1.6530                 3.2224
 IR Inten    --      2.8690                 9.8758                 3.5500

                     70                     71                     72
                      A                      A                      A
 Frequencies --   1522.5253              1523.3048              1538.6634
 Red. masses --      1.1815                 1.7143                 1.2858
 Frc consts  --      1.6136                 2.3438                 1.7936
 IR Inten    --      8.3291                 9.5002                 8.0564

                     73                     74                     75
                      A                      A                      A
 Frequencies --   1615.5181              1621.1790              1636.8733
 Red. masses --      7.4007                 3.3925                 5.8394
 Frc consts  --     11.3801                 5.2533                 9.2182
 IR Inten    --    226.7312                30.4944                32.4337

                     76                     77                     78
                      A                      A                      A
 Frequencies --   1666.9565              3053.2540              3061.8195
 Red. masses --      6.4750                 1.0367                 1.0602
 Frc consts  --     10.6008                 5.6943                 5.8561
 IR Inten    --     28.6026                19.3405                32.8209

                     79                     80                     81
                      A                      A                      A
 Frequencies --   3106.1664              3116.7800              3143.2597
 Red. masses --      1.1053                 1.0980                 1.0957
 Frc consts  --      6.2830                 6.2841                 6.3784
 IR Inten    --     16.4824                14.3878                 7.9127

                     82                     83                     84
                      A                      A                      A
 Frequencies --   3148.6542              3191.1673              3206.8287
 Red. masses --      1.0943                 1.0865                 1.0907
 Frc consts  --      6.3920                 6.5189                 6.6086
 IR Inten    --     22.1333                 4.4982                 9.7211

                     85                     86                     87
                      A                      A                      A
 Frequencies --   3220.6766              3241.0483              3251.0671
 Red. masses --      1.0941                 1.0943                 1.0919
 Frc consts  --      6.6865                 6.7724                 6.7998
 IR Inten    --     11.7316                 1.5682                 8.4357

                     88                     89                     90
                      A                      A                      A
 Frequencies --   3269.7515              3501.6508              3585.1089
 Red. masses --      1.1013                 1.0735                 1.0836
 Frc consts  --      6.9375                 7.7553                 8.2060
 IR Inten    --      5.6239                 0.3848               177.9525

 - Thermochemistry -
 -------------------
 Temperature   298.150 Kelvin.  Pressure   1.00000 Atm.
 Atom     1 has atomic number  6 and mass  12.00000

 Molecular mass:   246.11168 amu.
 Principal axes and moments of inertia in atomic units:
                           1         2         3
     Eigenvalues --  3382.886714256.955304781.75418
           X            0.99989  -0.00395   0.01441
           Y            0.00387   0.99997   0.00608
           Z           -0.01443  -0.00602   0.99988
 This molecule is an asymmetric top.
 Rotational symmetry number  1.
 Warning -- assumption of classical behavior for rotation
           may cause significant error
 Rotational temperatures (Kelvin)      0.02560     0.02035     0.01811
 Rotational constants (GHZ):           0.53349     0.42395     0.37742
 Zero-point vibrational energy     680076.7 (Joules/Mol)
                                  162.54223 (Kcal/Mol)
 Warning -- explicit consideration of  22 degrees of freedom as
           vibrations may cause significant error
 Vibrational temperatures:     54.59    68.48    74.31   124.47   140.69
          (Kelvin)            168.90   206.43   244.76   276.26   334.59
                              360.12   389.53   444.71   472.96   498.02
                              554.77   574.04   640.71   730.12   821.51
                              835.81   876.85   893.88   940.55   975.94
                             1011.51  1046.22  1064.17  1097.83  1111.93
                             1146.30  1154.96  1166.88  1243.00  1262.27
                             1267.59  1281.87  1364.68  1377.65  1398.37
                             1426.40  1493.72  1505.77  1537.26  1551.09
                             1569.97  1576.49  1635.36  1651.85  1664.20
                             1695.06  1724.62  1747.14  1798.75  1828.66
                             1873.80  1927.64  1937.65  1967.38  1991.99
                             2000.03  2014.61  2047.52  2063.92  2112.70
                             2147.35  2152.13  2176.54  2179.78  2190.57
                             2191.70  2213.79  2324.37  2332.51  2355.10
                             2398.38  4392.95  4405.28  4469.08  4484.35
                             4522.45  4530.21  4591.38  4613.91  4633.84
                             4663.15  4677.56  4704.44  5038.09  5158.17

 Zero-point correction=                           0.259028 (Hartree/Particle)
 Thermal correction to Energy=                    0.274626
 Thermal correction to Enthalpy=                  0.275570
 Thermal correction to Gibbs Free Energy=         0.215322
 Sum of electronic and zero-point Energies=           -834.842394
 Sum of electronic and thermal Energies=              -834.826795
 Sum of electronic and thermal Enthalpies=            -834.825851
 Sum of electronic and thermal Free Energies=         -834.886099

                     E (Thermal)             CV                S
                      KCal/Mol        Cal/Mol-Kelvin    Cal/Mol-Kelvin
 Total                  172.330             59.878            126.803
 Electronic               0.000              0.000              0.000
 Translational            0.889              2.981             42.403
 Rotational               0.889              2.981             32.599
 Vibrational            170.553             53.917             51.802
 Vibration     1          0.594              1.982              5.364
 Vibration     2          0.595              1.978              4.915
 Vibration     3          0.596              1.977              4.753
 Vibration     4          0.601              1.959              3.738
 Vibration     5          0.603              1.951              3.498
 Vibration     6          0.608              1.935              3.143
 Vibration     7          0.616              1.910              2.757
 Vibration     8          0.625              1.879              2.434
 Vibration     9          0.634              1.851              2.208
 Vibration    10          0.653              1.791              1.859
 Vibration    11          0.663              1.762              1.728
 Vibration    12          0.674              1.727              1.592
 Vibration    13          0.698              1.656              1.367
 Vibration    14          0.712              1.618              1.266
 Vibration    15          0.724              1.583              1.184
 Vibration    16          0.754              1.501              1.017
 Vibration    17          0.765              1.472              0.966
 Vibration    18          0.805              1.371              0.810
 Vibration    19          0.863              1.233              0.640
 Vibration    20          0.927              1.094              0.502
 Vibration    21          0.938              1.073              0.484
 Vibration    22          0.968              1.012              0.434

 Optimization completed.
    -- Stationary point found.
 Normal termination of Gaussian 16 at Fri Dec 11 20:17:09 2020.

 ----------------------------------------------------------------------
 # B3LYP/6-311++G(d,p) empiricaldispersion=gd3bj scf=xqc pop=npa geom=c
 heck
 ----------------------------------------------------------------------

 --------------------------------------
 CID_61284284_JID_8275_Energie_neutraal
 --------------------------------------
 Structure from the checkpoint file:  "JID_8275.chk"
 Charge =  0 Multiplicity = 1

 SCF Done:  E(RB3LYP) =  -835.335204096     A.U. after   20 cycles
 Normal termination of Gaussian 16 at Fri Dec 11 20:25:59 2020.

 ----------------------------------------------------------------------
 # B3LYP/6-311++G(d,p) empiricaldispersion=gd3bj scf=xqc pop=npa geom=c
 heck
 ----------------------------------------------------------------------

 ------------------------------------
 CID_61284284_JID_8275_Energie_kation
 ------------------------------------
 Structure from the checkpoint file:  "JID_8275.chk"
 Charge =  1 Multiplicity = 2

 SCF Done:  E(UB3LYP) =  -835.029156805     A.U. after   30 cycles
 Normal termination of Gaussian 16 at Fri Dec 11 20:45:04 2020.
 Gaussian 16:  ES64L-G16RevA.03 25-Dec-2016

 ----------------------------------------------------------------------
 # B3LYP/6-311++G(d,p) empiricaldispersion=gd3bj scf=xqc pop=npa geom=c
 heck
 ----------------------------------------------------------------------

 -----------------------------------
 CID_61284284_JID_8275_Energie_anion
 -----------------------------------
 Structure from the checkpoint file:  "JID_8275.chk"
 Charge = -1 Multiplicity = 2

                         Standard orientation:
 ---------------------------------------------------------------------
 Center     Atomic      Atomic             Coordinates (Angstroms)
 Number     Number       Type             X           Y           Z
 ---------------------------------------------------------------------
      1          6           0        1.230357    2.724874    1.347576
      2          6           0        0.389760    1.862616    0.393688
      3          6           0        0.648097    0.379528    0.710311
      4          6           0        0.146839   -0.160462    1.900180
      5          6           0        0.428353   -1.463033    2.301014
      6          6           0        1.265312   -2.271489    1.530007
      7          6           0        1.800245   -1.766459    0.353126
      8          6           0        1.468247   -0.470324   -0.046108
      9          7           0        1.998328   -0.067018   -1.354140
     10          8           0        3.156800   -0.364851   -1.620652
     11          8           0        1.236673    0.516970   -2.142009
     12          7           0       -1.001656    2.303344    0.467841
     13          6           0       -1.906810    1.810187   -0.578220
     14          6           0       -2.177822    0.332225   -0.587202
     15          6           0       -3.036723   -0.458854    0.161886
     16          6           0       -2.725271   -1.785686   -0.209532
     17          7           0       -1.751721   -1.831713   -1.121961
     18          7           0       -1.452300   -0.534316   -1.342649
     19          1           0        0.912366    2.582336    2.387268
     20          1           0        1.106772    3.780445    1.090836
     21          1           0        2.290544    2.458911    1.284604
     22          1           0        0.715795    2.065301   -0.626347
     23          1           0       -0.489654    0.457577    2.526329
     24          1           0       -0.002352   -1.846523    3.221026
     25          1           0        1.491134   -3.287368    1.836661
     26          1           0        2.446715   -2.363547   -0.278743
     27          1           0       -1.393432    2.104059    1.385995
     28          1           0       -2.853479    2.347930   -0.461619
     29          1           0       -1.486506    2.114603   -1.543741
     30          1           0       -3.781441   -0.120021    0.868420
     31          1           0       -3.172726   -2.707218    0.139504
     32          1           0       -0.663569   -0.294255   -1.932899
 ---------------------------------------------------------------------

 SCF Done:  E(UB3LYP) =  -835.376446796     A.U. after   22 cycles

 The electronic state is 2-A.
 Alpha  occ. eigenvalues --  -18.94425 -18.94139 -14.30709 -14.25761 -14.21356
 Alpha  occ. eigenvalues --  -14.19651 -10.10459 -10.09568 -10.08603 -10.07760
 Alpha  occ. eigenvalues --  -10.06951 -10.05541 -10.05326 -10.05173 -10.04978
 Alpha  occ. eigenvalues --  -10.04751 -10.04316 -10.04082  -1.02173  -0.92716
 Alpha  occ. eigenvalues --   -0.85026  -0.80784  -0.73572  -0.70536  -0.67554
 Alpha  occ. eigenvalues --   -0.65328  -0.64107  -0.61096  -0.56921  -0.53732
 Alpha  occ. eigenvalues --   -0.51178  -0.49010  -0.48205  -0.46316  -0.44582
 Alpha  occ. eigenvalues --   -0.41518  -0.38875  -0.36950  -0.36488  -0.35618
 Alpha  occ. eigenvalues --   -0.34373  -0.33298  -0.32826  -0.32382  -0.32097
 Alpha  occ. eigenvalues --   -0.31387  -0.30723  -0.30333  -0.29598  -0.28064
 Alpha  occ. eigenvalues --   -0.27245  -0.26015  -0.25243  -0.23492  -0.22708
 Alpha  occ. eigenvalues --   -0.22274  -0.18038  -0.15483  -0.14937  -0.13897
 Alpha  occ. eigenvalues --   -0.13318  -0.12369  -0.12056  -0.11858  -0.09708
 Alpha  occ. eigenvalues --    0.02737
 Alpha virt. eigenvalues --    0.07299   0.08616   0.08805   0.09823   0.09958
 Alpha virt. eigenvalues --    0.10608   0.11183   0.11432   0.11884   0.12197
 Alpha virt. eigenvalues --    0.12441   0.13125   0.13678   0.14296   0.14540

  Beta  occ. eigenvalues --  -18.93966 -18.93493 -14.29819 -14.25753 -14.21353
  Beta  occ. eigenvalues --  -14.19642 -10.10459 -10.09570 -10.08613 -10.07761
  Beta  occ. eigenvalues --  -10.06938 -10.05540 -10.05319 -10.05057 -10.04993
  Beta  occ. eigenvalues --  -10.04795 -10.04114 -10.03966  -1.00825  -0.92708
  Beta  occ. eigenvalues --   -0.83971  -0.80756  -0.73340  -0.70524  -0.67529
  Beta  occ. eigenvalues --   -0.65211  -0.63608  -0.60978  -0.56911  -0.52855
  Beta  occ. eigenvalues --   -0.51006  -0.48989  -0.48185  -0.46206  -0.44170
  Beta  occ. eigenvalues --   -0.41409  -0.38478  -0.36816  -0.35786  -0.35099
  Beta  occ. eigenvalues --   -0.33888  -0.32751  -0.32605  -0.31961  -0.31362
  Beta  occ. eigenvalues --   -0.31169  -0.30428  -0.29880  -0.28666  -0.27968
  Beta  occ. eigenvalues --   -0.27194  -0.25909  -0.25115  -0.23069  -0.22560
  Beta  occ. eigenvalues --   -0.22111  -0.18028  -0.15295  -0.14803  -0.12745
  Beta  occ. eigenvalues --   -0.12195  -0.11738  -0.11462  -0.10186  -0.08930
  Beta virt. eigenvalues --    0.07287   0.08601   0.08768   0.09744   0.09791
  Beta virt. eigenvalues --    0.10210   0.10831   0.11178   0.11803   0.12027
  Beta virt. eigenvalues --    0.12214   0.12556   0.13624   0.14113   0.14503

 Mulliken charges and spin densities:
               1          2
     1  C   -0.528350   0.007236
     2  C   -1.324006  -0.045354
     3  C    1.612269   0.102609
     4  C   -0.417427  -0.061001
     5  C   -0.639545   0.173145
     6  C   -0.275760  -0.034686
     7  C   -0.160023   0.117309
     8  C    0.005803  -0.029745
     9  N   -0.406718   0.309258
    10  O   -0.091081   0.238822
    11  O   -0.258990   0.173020
    12  N    0.094997   0.007284
    13  C   -0.781000  -0.007584
    14  C    0.412906  -0.003231
    15  C   -0.352672  -0.000385
    16  C   -0.150000  -0.002451
    17  N   -0.139749   0.006258
    18  N    0.109286  -0.009328
    19  H    0.127404   0.000891
    20  H    0.128957   0.005299
    21  H    0.151794   0.004608
    22  H    0.180612   0.019785
    23  H    0.083814   0.004867
    24  H    0.123178  -0.012064
    25  H    0.123796   0.000000
    26  H    0.193961   0.008764
    27  H    0.234061  -0.000677
    28  H    0.180509   0.000940
    29  H    0.181760  -0.000541
    30  H    0.124236   0.000171
    31  H    0.128902   0.000026
    32  H    0.327077   0.026755
 Sum of Mulliken charges =  -1.00000   1.00000

 Dipole moment (field-independent basis, Debye):
    X=             -6.4532    Y=              1.7017    Z=              5.7048  Tot=              8.7798
 Quadrupole moment (field-independent basis, Debye-Ang):
   XX=           -139.4274   YY=           -122.6680   ZZ=           -129.3198
   XY=             -2.4952   XZ=              7.7865   YZ=             -2.1651

 Summary of Natural Population Analysis:

                                       Natural Population
                Natural  -----------------------------------------------
    Atom  No    Charge         Core      Valence    Rydberg      Total
 -----------------------------------------------------------------------
      C    1   -0.27742      0.99965     2.27327    0.00450     3.27742
      C    2   -0.02939      0.99956     2.01646    0.01337     3.02939
      C    3    0.00139      0.99944     1.98483    0.01434     2.99861
      C    4   -0.11896      0.99952     2.11122    0.00822     3.11896
      C    5   -0.06572      0.99957     2.05724    0.00890     3.06572
      C    6   -0.11897      0.99957     2.11062    0.00878     3.11897
      C    7   -0.06878      0.99952     2.06042    0.00884     3.06878
      C    8    0.04744      0.99936     1.93704    0.01617     2.95256
      N    9    0.33790      0.99970     2.13717    0.02523     3.16210
      O   10   -0.16315      0.99990     3.15573    0.00752     4.16315
      O   11   -0.23425      0.99989     3.22574    0.00861     4.23425
      N   12   -0.33483      0.99975     2.82181    0.01328     3.83483
      C   13   -0.10233      0.99959     2.09242    0.01033     3.10233
      C   14    0.06819      0.99955     1.92140    0.01086     2.93181
      C   15   -0.17146      0.99950     2.16430    0.00766     3.17146
      C   16   -0.01966      0.99965     2.00603    0.01397     3.01966
      N   17   -0.14965      0.99975     2.63614    0.01376     3.64965
      N   18   -0.17191      0.99964     2.65799    0.01428     3.67191
      H   19    0.09100      0.00000     0.40809    0.00091     0.40900
      H   20    0.09728      0.00000     0.40174    0.00098     0.40272
      H   21    0.10379      0.00000     0.39554    0.00067     0.39621
      H   22    0.11738      0.00000     0.38094    0.00168     0.38262
      H   23    0.08877      0.00000     0.40965    0.00157     0.41123
      H   24    0.08875      0.00000     0.40985    0.00140     0.41125
      H   25    0.09336      0.00000     0.40564    0.00100     0.40664
      H   26    0.10971      0.00000     0.38915    0.00113     0.39029
      H   27    0.16776      0.00000     0.33040    0.00184     0.33224
      H   28    0.09563      0.00000     0.40338    0.00100     0.40437
      H   29    0.10432      0.00000     0.39459    0.00109     0.39568
      H   30    0.10123      0.00000     0.39790    0.00087     0.39877
      H   31    0.09159      0.00000     0.40752    0.00089     0.40841
      H   32    0.22100      0.00000     0.27704    0.00196     0.27900
 =======================================================================
   * Total *   -0.00000     17.99310    46.78127    0.22563    65.00000

 Normal termination of Gaussian 16 at Fri Dec 11 20:59:17 2020.
