 Gaussian 16, Revision A.03,

 -----------------------------------------------------------
 # opt freq B3LYP/6-31G(d) empiricaldispersion=gd3bj scf=xqc
 -----------------------------------------------------------

 ------------------------------
 CID_60692189_JID_9136_neutraal
 ------------------------------
 Symbolic Z-matrix:
 Charge =  0 Multiplicity = 1

 SCF Done:  E(RB3LYP) =  -1524.31438080     A.U. after   16 cycles
 SCF Done:  E(RB3LYP) =  -1524.31907798     A.U. after   14 cycles
 SCF Done:  E(RB3LYP) =  -1524.31927956     A.U. after   13 cycles
 SCF Done:  E(RB3LYP) =  -1524.32015909     A.U. after   12 cycles
 SCF Done:  E(RB3LYP) =  -1524.32031520     A.U. after   12 cycles
 SCF Done:  E(RB3LYP) =  -1524.32035707     A.U. after   11 cycles
 SCF Done:  E(RB3LYP) =  -1524.32036181     A.U. after   10 cycles
 SCF Done:  E(RB3LYP) =  -1524.32036462     A.U. after   10 cycles
 SCF Done:  E(RB3LYP) =  -1524.32036581     A.U. after    9 cycles
 SCF Done:  E(RB3LYP) =  -1524.32036653     A.U. after    9 cycles
 SCF Done:  E(RB3LYP) =  -1524.32036674     A.U. after    8 cycles
 SCF Done:  E(RB3LYP) =  -1524.32036690     A.U. after    8 cycles
 SCF Done:  E(RB3LYP) =  -1524.32036705     A.U. after    8 cycles
 SCF Done:  E(RB3LYP) =  -1524.32036712     A.U. after    7 cycles
 SCF Done:  E(RB3LYP) =  -1524.32036714     A.U. after    7 cycles
 Optimization completed.
    -- Stationary point found.
 Normal termination of Gaussian 16 at Sun Dec 13 16:16:26 2020.

 --------------------------------------------------------------------
 #N Geom=AllCheck Guess=TCheck SCRF=Check GenChk RB3LYP/6-31G(d) Freq
 --------------------------------------------------------------------

 Structure from the checkpoint file:  "JID_9136.chk"
 ------------------------------
 CID_60692189_JID_9136_neutraal
 ------------------------------
 Charge =  0 Multiplicity = 1

 SCF Done:  E(RB3LYP) =  -1524.32036714     A.U. after    1 cycles

  Exact polarizability: 248.981  40.058 163.261   0.470  19.828 165.473
 Approx polarizability: 359.348  84.573 267.423  -4.423  60.753 316.670

                      1                      2                      3
                      A                      A                      A
 Frequencies --     18.2407                22.5829                39.4412
 Red. masses --      5.2759                 7.6854                 6.1503
 Frc consts  --      0.0010                 0.0023                 0.0056
 IR Inten    --      0.0807                 0.3189                 0.9311

                      4                      5                      6
                      A                      A                      A
 Frequencies --     46.6236                68.6077                99.7137
 Red. masses --      3.8886                 5.4732                 5.5324
 Frc consts  --      0.0050                 0.0152                 0.0324
 IR Inten    --      0.7947                 2.0202                 1.4105

                      7                      8                      9
                      A                      A                      A
 Frequencies --    109.1085               125.1076               169.6335
 Red. masses --      5.6422                 5.8074                 3.2838
 Frc consts  --      0.0396                 0.0536                 0.0557
 IR Inten    --      4.2299                 1.5886                 1.5261

                     10                     11                     12
                      A                      A                      A
 Frequencies --    239.1475               246.7485               271.2750
 Red. masses --      7.1026                 4.2551                 4.9352
 Frc consts  --      0.2393                 0.1526                 0.2140
 IR Inten    --      0.2438                 3.6296                 0.1859

                     13                     14                     15
                      A                      A                      A
 Frequencies --    278.3704               334.9830               358.5502
 Red. masses --      2.3278                 7.6269                 2.4922
 Frc consts  --      0.1063                 0.5042                 0.1888
 IR Inten    --      1.8105                 1.0534                 6.0102

                     16                     17                     18
                      A                      A                      A
 Frequencies --    392.0466               412.7970               433.4563
 Red. masses --      5.7544                 3.4192                 2.0938
 Frc consts  --      0.5211                 0.3433                 0.2318
 IR Inten    --      0.9498                 2.1235                 1.9995

                     19                     20                     21
                      A                      A                      A
 Frequencies --    443.0826               473.9512               476.2847
 Red. masses --      2.4349                 6.1614                 3.0264
 Frc consts  --      0.2816                 0.8154                 0.4045
 IR Inten    --      1.8863                 0.6518                 8.5749

                     22                     23                     24
                      A                      A                      A
 Frequencies --    535.3983               553.8104               571.3711
 Red. masses --      3.9880                 3.1180                 2.5856
 Frc consts  --      0.6735                 0.5634                 0.4973
 IR Inten    --      3.8024                 0.4296                 5.7200

                     25                     26                     27
                      A                      A                      A
 Frequencies --    595.2663               608.0626               636.6541
 Red. masses --      3.8886                 4.7202                11.0475
 Frc consts  --      0.8118                 1.0283                 2.6383
 IR Inten    --      2.0512                13.7216                 7.6535

                     28                     29                     30
                      A                      A                      A
 Frequencies --    664.7330               681.1375               707.1220
 Red. masses --      7.8128                 6.8359                 1.1749
 Frc consts  --      2.0340                 1.8686                 0.3461
 IR Inten    --      6.2287                 2.3069                54.7519

                     31                     32                     33
                      A                      A                      A
 Frequencies --    731.1175               745.4186               754.6925
 Red. masses --      3.1544                 1.3459                 6.7340
 Frc consts  --      0.9934                 0.4406                 2.2598
 IR Inten    --      9.5617                30.9091                 0.6654

                     34                     35                     36
                      A                      A                      A
 Frequencies --    803.7557               826.7327               842.9094
 Red. masses --      5.5087                 1.5138                 2.9876
 Frc consts  --      2.0968                 0.6096                 1.2507
 IR Inten    --      1.0633                 0.2126                 0.7393

                     37                     38                     39
                      A                      A                      A
 Frequencies --    851.7179               859.9062               867.5954
 Red. masses --      1.2893                 4.5557                 3.6864
 Frc consts  --      0.5510                 1.9848                 1.6349
 IR Inten    --      8.8060                30.2266                 7.5627

                     40                     41                     42
                      A                      A                      A
 Frequencies --    871.3162               905.5017               917.4064
 Red. masses --      1.4571                 2.6052                 6.1720
 Frc consts  --      0.6518                 1.2585                 3.0605
 IR Inten    --      6.3644                 3.9236                11.6952

                     43                     44                     45
                      A                      A                      A
 Frequencies --    922.4561               960.0229               973.3436
 Red. masses --      1.3444                 2.6144                 2.0266
 Frc consts  --      0.6740                 1.4196                 1.1312
 IR Inten    --      0.9981                 0.1462                14.6807

                     46                     47                     48
                      A                      A                      A
 Frequencies --    980.4296              1021.6514              1042.2673
 Red. masses --      1.3770                 4.8385                 2.3575
 Frc consts  --      0.7799                 2.9756                 1.5089
 IR Inten    --      6.8492                21.1863                27.6867

                     49                     50                     51
                      A                      A                      A
 Frequencies --   1050.9432              1072.2477              1083.8617
 Red. masses --      2.1028                 1.6166                 1.6790
 Frc consts  --      1.3684                 1.0951                 1.1621
 IR Inten    --      4.4031                19.5483                 0.1355

                     52                     53                     54
                      A                      A                      A
 Frequencies --   1117.2547              1139.5706              1160.7323
 Red. masses --      1.1622                 1.5712                 1.7085
 Frc consts  --      0.8548                 1.2022                 1.3562
 IR Inten    --      0.2024                27.5524                20.2969

                     55                     56                     57
                      A                      A                      A
 Frequencies --   1163.2327              1194.4801              1200.3948
 Red. masses --      1.6035                 1.5916                 1.4869
 Frc consts  --      1.2783                 1.3379                 1.2623
 IR Inten    --      8.1457                 2.8211                 0.6067

                     58                     59                     60
                      A                      A                      A
 Frequencies --   1225.4653              1269.8625              1278.3317
 Red. masses --      3.0358                 2.0979                 1.7605
 Frc consts  --      2.6861                 1.9932                 1.6950
 IR Inten    --     33.1698                13.2857                37.0224

                     61                     62                     63
                      A                      A                      A
 Frequencies --   1292.7998              1302.2871              1312.7594
 Red. masses --      1.5617                 1.3431                 1.4585
 Frc consts  --      1.5378                 1.3420                 1.4809
 IR Inten    --     51.6597                34.0430                 7.6039

                     64                     65                     66
                      A                      A                      A
 Frequencies --   1328.6000              1370.4610              1380.9336
 Red. masses --      1.2705                 1.2966                 3.8583
 Frc consts  --      1.3213                 1.4347                 4.3350
 IR Inten    --     39.2647                 0.0789                33.7588

                     67                     68                     69
                      A                      A                      A
 Frequencies --   1395.7424              1400.3418              1401.5620
 Red. masses --      1.3554                 1.4887                 2.5829
 Frc consts  --      1.5557                 1.7200                 2.9893
 IR Inten    --      2.0336                 3.8208                14.0260

                     70                     71                     72
                      A                      A                      A
 Frequencies --   1402.5504              1419.6620              1470.8517
 Red. masses --      1.4774                 1.3323                 6.7050
 Frc consts  --      1.7123                 1.5820                 8.5465
 IR Inten    --      3.1263                 6.6824                 3.0661

                     73                     74                     75
                      A                      A                      A
 Frequencies --   1479.2679              1505.5632              1509.9269
 Red. masses --      2.4482                 1.0903                 1.1044
 Frc consts  --      3.1564                 1.4562                 1.4835
 IR Inten    --    130.2774                 0.6508                13.1877

                     76                     77                     78
                      A                      A                      A
 Frequencies --   1513.1355              1514.3188              1519.1117
 Red. masses --      1.2291                 1.0957                 4.6594
 Frc consts  --      1.6580                 1.4804                 6.3352
 IR Inten    --     30.6960                 4.1539                37.5497

                     79                     80                     81
                      A                      A                      A
 Frequencies --   1527.1223              1537.7615              1555.0018
 Red. masses --      1.1341                 1.2106                 4.2875
 Frc consts  --      1.5582                 1.6867                 6.1082
 IR Inten    --     11.5296                36.1646                34.7352

                     82                     83                     84
                      A                      A                      A
 Frequencies --   1589.0853              1752.2027              3023.0401
 Red. masses --      5.9644                 9.9514                 1.0684
 Frc consts  --      8.8739                18.0013                 5.7529
 IR Inten    --     16.2932               303.8292                16.4342

                     85                     86                     87
                      A                      A                      A
 Frequencies --   3027.0148              3034.7757              3046.1854
 Red. masses --      1.0734                 1.0731                 1.0611
 Frc consts  --      5.7948                 5.8228                 5.8010
 IR Inten    --     24.3252                68.2972                25.9784

                     88                     89                     90
                      A                      A                      A
 Frequencies --   3054.4890              3080.4439              3089.9163
 Red. masses --      1.0613                 1.0932                 1.1045
 Frc consts  --      5.8340                 6.1120                 6.2130
 IR Inten    --     22.0662                41.5246                46.1022

                     91                     92                     93
                      A                      A                      A
 Frequencies --   3097.8628              3099.7976              3146.4373
 Red. masses --      1.0604                 1.1028                 1.1060
 Frc consts  --      5.9957                 6.2432                 6.4511
 IR Inten    --      8.0979                59.9512                 4.3064

                     94                     95                     96
                      A                      A                      A
 Frequencies --   3170.6863              3175.5180              3228.0555
 Red. masses --      1.0923                 1.0903                 1.0896
 Frc consts  --      6.4699                 6.4776                 6.6895
 IR Inten    --      3.7550                 7.3447                 9.6267

                     97                     98                     99
                      A                      A                      A
 Frequencies --   3251.9900              3274.8596              3282.0349
 Red. masses --      1.0947                 1.0971                 1.0947
 Frc consts  --      6.8211                 6.9325                 6.9474
 IR Inten    --      0.4770                 0.3917                 4.9214

 - Thermochemistry -
 -------------------
 Temperature   298.150 Kelvin.  Pressure   1.00000 Atm.
 Atom     1 has atomic number  6 and mass  12.00000

 Molecular mass:   292.07041 amu.
 Principal axes and moments of inertia in atomic units:
                           1         2         3
     Eigenvalues --  2978.962619907.85787**********
           X            0.99992  -0.00770   0.01038
           Y            0.00796   0.99965  -0.02522
           Z           -0.01018   0.02530   0.99963
 This molecule is an asymmetric top.
 Rotational symmetry number  1.
 Warning -- assumption of classical behavior for rotation
           may cause significant error
 Rotational temperatures (Kelvin)      0.02908     0.00874     0.00801
 Rotational constants (GHZ):           0.60583     0.18215     0.16698
 Zero-point vibrational energy     741757.0 (Joules/Mol)
                                  177.28417 (Kcal/Mol)
 Warning -- explicit consideration of  26 degrees of freedom as
           vibrations may cause significant error
 Vibrational temperatures:     26.24    32.49    56.75    67.08    98.71
          (Kelvin)            143.47   156.98   180.00   244.06   344.08
                              355.02   390.30   400.51   481.97   515.87
                              564.07   593.92   623.65   637.50   681.91
                              685.27   770.32   796.81   822.08   856.46
                              874.87   916.00   956.40   980.01  1017.39
                             1051.91  1072.49  1085.83  1156.43  1189.48
                             1212.76  1225.43  1237.21  1248.28  1253.63
                             1302.81  1319.94  1327.21  1381.26  1400.42
                             1410.62  1469.93  1499.59  1512.07  1542.73
                             1559.44  1607.48  1639.59  1670.03  1673.63
                             1718.59  1727.10  1763.17  1827.05  1839.23
                             1860.05  1873.70  1888.77  1911.56  1971.79
                             1986.86  2008.16  2014.78  2016.54  2017.96
                             2042.58  2116.23  2128.34  2166.17  2172.45
                             2177.06  2178.77  2185.66  2197.19  2212.50
                             2237.30  2286.34  2521.03  4349.48  4355.20
                             4366.37  4382.78  4394.73  4432.07  4445.70
                             4457.13  4459.92  4527.02  4561.91  4568.86
                             4644.45  4678.89  4711.79  4722.12

 Zero-point correction=                           0.282520 (Hartree/Particle)
 Thermal correction to Energy=                    0.299537
 Thermal correction to Enthalpy=                  0.300481
 Thermal correction to Gibbs Free Energy=         0.234598
 Sum of electronic and zero-point Energies=          -1524.037847
 Sum of electronic and thermal Energies=             -1524.020830
 Sum of electronic and thermal Enthalpies=           -1524.019886
 Sum of electronic and thermal Free Energies=        -1524.085769

                     E (Thermal)             CV                S
                      KCal/Mol        Cal/Mol-Kelvin    Cal/Mol-Kelvin
 Total                  187.962             65.616            138.663
 Electronic               0.000              0.000              0.000
 Translational            0.889              2.981             42.913
 Rotational               0.889              2.981             34.122
 Vibrational            186.185             59.655             61.628
 Vibration     1          0.593              1.986              6.817
 Vibration     2          0.593              1.985              6.393
 Vibration     3          0.594              1.981              5.287
 Vibration     4          0.595              1.979              4.956
 Vibration     5          0.598              1.969              4.193
 Vibration     6          0.604              1.949              3.460
 Vibration     7          0.606              1.942              3.285
 Vibration     8          0.610              1.928              3.020
 Vibration     9          0.625              1.880              2.440
 Vibration    10          0.657              1.781              1.809
 Vibration    11          0.661              1.768              1.754
 Vibration    12          0.675              1.726              1.588
 Vibration    13          0.679              1.714              1.544
 Vibration    14          0.716              1.606              1.236
 Vibration    15          0.733              1.558              1.128
 Vibration    16          0.759              1.487              0.992
 Vibration    17          0.777              1.442              0.917
 Vibration    18          0.794              1.397              0.847
 Vibration    19          0.803              1.376              0.817
 Vibration    20          0.831              1.308              0.727
 Vibration    21          0.833              1.303              0.720
 Vibration    22          0.890              1.172              0.575
 Vibration    23          0.909              1.131              0.536
 Vibration    24          0.928              1.093              0.502
 Vibration    25          0.953              1.042              0.458
 Vibration    26          0.967              1.015              0.436

                           ! Non-Optimized Parameters !
 Normal termination of Gaussian 16 at Sun Dec 13 16:36:05 2020.

 ----------------------------------------------------------------------
 # B3LYP/6-311++G(d,p) empiricaldispersion=gd3bj scf=xqc pop=npa geom=c
 heck
 ----------------------------------------------------------------------

 --------------------------------------
 CID_60692189_JID_9136_Energie_neutraal
 --------------------------------------
 Structure from the checkpoint file:  "JID_9136.chk"
 Charge =  0 Multiplicity = 1

 SCF Done:  E(RB3LYP) =  -1524.56592973     A.U. after   17 cycles
 Normal termination of Gaussian 16 at Sun Dec 13 16:46:07 2020.

 ----------------------------------------------------------------------
 # B3LYP/6-311++G(d,p) empiricaldispersion=gd3bj scf=xqc pop=npa geom=c
 heck
 ----------------------------------------------------------------------

 ------------------------------------
 CID_60692189_JID_9136_Energie_kation
 ------------------------------------
 Structure from the checkpoint file:  "JID_9136.chk"
 Charge =  1 Multiplicity = 2

 SCF Done:  E(UB3LYP) =  -1524.28297488     A.U. after   33 cycles
 SCF Done:  E(UB3LYP) =  -1524.28441871     a.u. after    9 cycles
 Normal termination of Gaussian 16 at Sun Dec 13 20:05:57 2020.
 Gaussian 16:  ES64L-G16RevA.03 25-Dec-2016

 ----------------------------------------------------------------------
 # B3LYP/6-311++G(d,p) empiricaldispersion=gd3bj scf=xqc pop=npa geom=c
 heck
 ----------------------------------------------------------------------

 -----------------------------------
 CID_60692189_JID_9136_Energie_anion
 -----------------------------------
 Structure from the checkpoint file:  "JID_9136.chk"
 Charge = -1 Multiplicity = 2

                         Standard orientation:
 ---------------------------------------------------------------------
 Center     Atomic      Atomic             Coordinates (Angstroms)
 Number     Number       Type             X           Y           Z
 ---------------------------------------------------------------------
      1          6           0       -2.399493    2.531299   -1.063322
      2          6           0       -3.539636    1.553521   -1.381431
      3          6           0       -4.131385    0.967558   -0.093858
      4          7           0       -3.080201    0.346384    0.715182
      5          6           0       -2.006581    1.267643    1.090266
      6          6           0       -1.349648    1.872385   -0.158429
      7          6           0       -2.980112   -1.019736    0.710017
      8          8           0       -3.803615   -1.743509    0.155179
      9          6           0       -1.765237   -1.648737    1.403710
     10          6           0       -0.538279   -1.521288    0.537400
     11          6           0       -0.427696   -2.010768   -0.737041
     12         16           0        1.099080   -1.564988   -1.424622
     13          6           0        1.490412   -0.727051    0.078114
     14          7           0        0.545184   -0.801167    0.984536
     15          6           0        2.734302   -0.015769    0.286767
     16          6           0        3.111846    0.640752    1.438178
     17          6           0        4.390231    1.253910    1.335558
     18          6           0        4.975516    1.061959    0.112018
     19         16           0        3.970308    0.123663   -0.943864
     20          1           0       -1.933802    2.892763   -1.987714
     21          1           0       -2.813749    3.413314   -0.552719
     22          1           0       -4.329212    2.051878   -1.957098
     23          1           0       -3.161378    0.726054   -1.995695
     24          1           0       -4.595329    1.763847    0.504724
     25          1           0       -4.879517    0.204390   -0.304025
     26          1           0       -1.262107    0.760095    1.701019
     27          1           0       -2.449393    2.067462    1.700925
     28          1           0       -0.836882    1.071610   -0.704928
     29          1           0       -0.584612    2.596165    0.147466
     30          1           0       -1.558910   -1.205269    2.380581
     31          1           0       -2.028246   -2.698249    1.552453
     32          1           0       -1.160254   -2.578565   -1.292991
     33          1           0        2.477019    0.666041    2.315003
     34          1           0        4.857538    1.814053    2.137498
     35          1           0        5.937219    1.413112   -0.235866
 ---------------------------------------------------------------------

 SCF Done:  E(UB3LYP) =  -1524.58580678     A.U. after   25 cycles

 The electronic state is 2-A.
 Alpha  occ. eigenvalues --  -88.72803 -88.72705 -18.98212 -14.24025 -14.15327
 Alpha  occ. eigenvalues --  -10.16687 -10.10900 -10.10430 -10.08211 -10.08052
 Alpha  occ. eigenvalues --  -10.07767 -10.07299 -10.06932 -10.06785 -10.05328
 Alpha  occ. eigenvalues --  -10.04832 -10.04593 -10.03894 -10.02107  -7.81474
 Alpha  occ. eigenvalues --   -7.81390  -5.77771  -5.77676  -5.77415  -5.77331
 Alpha  occ. eigenvalues --   -5.77076  -5.77003  -0.93470  -0.84163  -0.81658
 Alpha  occ. eigenvalues --   -0.73697  -0.70901  -0.67404  -0.65912  -0.65062
 Alpha  occ. eigenvalues --   -0.60999  -0.59231  -0.58129  -0.54915  -0.53560
 Alpha  occ. eigenvalues --   -0.49785  -0.46985  -0.44530  -0.43237  -0.41695
 Alpha  occ. eigenvalues --   -0.39337  -0.38367  -0.37972  -0.37226  -0.36117
 Alpha  occ. eigenvalues --   -0.35372  -0.33976  -0.33216  -0.32277  -0.30921
 Alpha  occ. eigenvalues --   -0.29973  -0.29185  -0.28575  -0.27584  -0.27266
 Alpha  occ. eigenvalues --   -0.26376  -0.26012  -0.25135  -0.24644  -0.23843
 Alpha  occ. eigenvalues --   -0.23745  -0.23275  -0.23114  -0.21985  -0.20324
 Alpha  occ. eigenvalues --   -0.15773  -0.15135  -0.14295  -0.13323  -0.13170
 Alpha  occ. eigenvalues --   -0.11819  -0.07551   0.03620
 Alpha virt. eigenvalues --    0.06427   0.08197   0.08626   0.08934   0.09425
 Alpha virt. eigenvalues --    0.10428   0.10648   0.11020   0.11319   0.11712
 Alpha virt. eigenvalues --    0.12065   0.12353   0.12929   0.13559   0.13648

  Beta  occ. eigenvalues --  -88.72752 -88.72645 -18.98209 -14.24027 -14.15097
  Beta  occ. eigenvalues --  -10.16691 -10.10900 -10.10424 -10.08211 -10.08052
  Beta  occ. eigenvalues --  -10.07453 -10.07387 -10.06928 -10.06785 -10.05239
  Beta  occ. eigenvalues --  -10.04488 -10.04328 -10.03996 -10.01867  -7.81429
  Beta  occ. eigenvalues --   -7.81337  -5.77749  -5.77652  -5.77395  -5.77308
  Beta  occ. eigenvalues --   -5.76906  -5.76800  -0.93467  -0.84162  -0.81253
  Beta  occ. eigenvalues --   -0.73389  -0.70899  -0.67369  -0.65823  -0.64639
  Beta  occ. eigenvalues --   -0.60626  -0.58906  -0.58001  -0.54705  -0.53468
  Beta  occ. eigenvalues --   -0.49777  -0.46342  -0.44480  -0.43071  -0.41426
  Beta  occ. eigenvalues --   -0.39263  -0.38169  -0.37887  -0.37129  -0.36097
  Beta  occ. eigenvalues --   -0.35286  -0.33915  -0.33198  -0.32236  -0.30832
  Beta  occ. eigenvalues --   -0.29865  -0.29075  -0.28461  -0.27413  -0.26699
  Beta  occ. eigenvalues --   -0.26281  -0.25653  -0.24882  -0.24507  -0.23702
  Beta  occ. eigenvalues --   -0.23600  -0.23243  -0.22420  -0.21764  -0.20065
  Beta  occ. eigenvalues --   -0.15657  -0.14311  -0.13581  -0.13010  -0.12140
  Beta  occ. eigenvalues --   -0.10835  -0.05990
  Beta virt. eigenvalues --    0.06384   0.08149   0.08576   0.08851   0.09198
  Beta virt. eigenvalues --    0.09417   0.10399   0.10648   0.10984   0.11288
  Beta virt. eigenvalues --    0.11678   0.12083   0.12420   0.12970   0.13576

 Mulliken charges and spin densities:
               1          2
     1  C   -0.494537   0.003314
     2  C   -0.166357   0.008456
     3  C   -0.318131  -0.013095
     4  N    0.134201   0.000163
     5  C   -0.299360  -0.023128
     6  C   -0.082502   0.003057
     7  C    0.002481   0.008551
     8  O   -0.330514   0.000313
     9  C   -0.864313   0.010195
    10  C   -0.043413  -0.063713
    11  C    0.002040   0.176792
    12  S   -0.400848   0.140309
    13  C   -0.002931   0.147635
    14  N    0.175742   0.116206
    15  C   -0.414885  -0.013892
    16  C    1.192300   0.235142
    17  C   -1.169145  -0.054025
    18  C    0.237870   0.226897
    19  S   -0.660326   0.102111
    20  H    0.145739   0.008865
    21  H    0.115567   0.003605
    22  H    0.147327   0.000677
    23  H    0.162993  -0.000526
    24  H    0.126736   0.003473
    25  H    0.197917   0.000133
    26  H    0.178239   0.014604
    27  H    0.141133   0.010245
    28  H    0.100774  -0.016189
    29  H    0.157074   0.002845
    30  H    0.185459   0.000868
    31  H    0.183199   0.000749
    32  H    0.224338  -0.015088
    33  H    0.156022  -0.012775
    34  H    0.089368   0.004484
    35  H    0.190744  -0.017257
 Sum of Mulliken charges =  -1.00000   1.00000

 Dipole moment (field-independent basis, Debye):
    X=             -5.5266    Y=              4.1941    Z=              0.2027  Tot=              6.9408
 Quadrupole moment (field-independent basis, Debye-Ang):
   XX=           -187.8936   YY=           -146.7163   ZZ=           -138.7940
   XY=            -11.0970   XZ=             -1.1548   YZ=             -0.4735

 Summary of Natural Population Analysis:

                                       Natural Population
                Natural  -----------------------------------------------
    Atom  No    Charge         Core      Valence    Rydberg      Total
 -----------------------------------------------------------------------
      C    1   -0.18912      0.99964     2.18306    0.00642     3.18912
      C    2   -0.19679      0.99963     2.19070    0.00646     3.19679
      C    3   -0.08702      0.99962     2.07816    0.00924     3.08702
      N    4   -0.26237      0.99963     2.74959    0.01314     3.76237
      C    5   -0.08700      0.99961     2.07884    0.00855     3.08700
      C    6   -0.19977      0.99963     2.19318    0.00696     3.19977
      C    7    0.35517      0.99964     1.62243    0.02275     2.64483
      O    8   -0.33716      0.99988     3.33072    0.00657     4.33716
      C    9   -0.23801      0.99955     2.23021    0.00825     3.23801
      C   10    0.03409      0.99948     1.95266    0.01377     2.96591
      C   11   -0.16986      0.99945     2.16113    0.00929     3.16986
      S   12    0.19124      4.99946     2.78954    0.01976     7.80876
      C   13    0.07267      0.99950     1.90683    0.02099     2.92733
      N   14   -0.23505      0.99963     2.72302    0.01241     3.73505
      C   15   -0.11500      0.99942     2.10116    0.01442     3.11500
      C   16   -0.06762      0.99949     2.05934    0.00878     3.06762
      C   17   -0.16116      0.99954     2.15196    0.00967     3.16116
      C   18   -0.13639      0.99956     2.12524    0.01159     3.13639
      S   19    0.20476      4.99945     2.77418    0.02160     7.79524
      H   20    0.09866      0.00000     0.40023    0.00111     0.40134
      H   21    0.08702      0.00000     0.41166    0.00131     0.41298
      H   22    0.09352      0.00000     0.40539    0.00109     0.40648
      H   23    0.10256      0.00000     0.39621    0.00124     0.39744
      H   24    0.08578      0.00000     0.41313    0.00108     0.41422
      H   25    0.11481      0.00000     0.38388    0.00131     0.38519
      H   26    0.11958      0.00000     0.37896    0.00146     0.38042
      H   27    0.08476      0.00000     0.41413    0.00111     0.41524
      H   28    0.11164      0.00000     0.38681    0.00155     0.38836
      H   29    0.10085      0.00000     0.39731    0.00184     0.39915
      H   30    0.11025      0.00000     0.38860    0.00116     0.38975
      H   31    0.11229      0.00000     0.38652    0.00119     0.38771
      H   32    0.10615      0.00000     0.39283    0.00102     0.39385
      H   33    0.10484      0.00000     0.39419    0.00097     0.39516
      H   34    0.09633      0.00000     0.40258    0.00109     0.40367
      H   35    0.09538      0.00000     0.40371    0.00092     0.40462
 =======================================================================
   * Total *   -0.00000     26.99182    49.75809    0.25009    77.00000

 Normal termination of Gaussian 16 at Sun Dec 13 20:26:52 2020.
