 Gaussian 16, Revision A.03,

 -----------------------------------------------------------
 # opt freq B3LYP/6-31G(d) empiricaldispersion=gd3bj scf=xqc
 -----------------------------------------------------------

 -------------------------------
 CID_117227946_JID_2140_neutraal
 -------------------------------
 Symbolic Z-matrix:
 Charge =  0 Multiplicity = 1

 SCF Done:  E(RB3LYP) =  -538.548105797     A.U. after   12 cycles
 SCF Done:  E(RB3LYP) =  -538.553819859     A.U. after   11 cycles
 SCF Done:  E(RB3LYP) =  -538.554930292     A.U. after   11 cycles
 SCF Done:  E(RB3LYP) =  -538.555065093     A.U. after   10 cycles
 SCF Done:  E(RB3LYP) =  -538.555089641     A.U. after    9 cycles
 SCF Done:  E(RB3LYP) =  -538.555105373     A.U. after    9 cycles
 SCF Done:  E(RB3LYP) =  -538.555130179     A.U. after   10 cycles
 SCF Done:  E(RB3LYP) =  -538.555157335     A.U. after   10 cycles
 SCF Done:  E(RB3LYP) =  -538.555185419     A.U. after   10 cycles
 SCF Done:  E(RB3LYP) =  -538.555195302     A.U. after   10 cycles
 SCF Done:  E(RB3LYP) =  -538.555203424     A.U. after   10 cycles
 SCF Done:  E(RB3LYP) =  -538.555205018     A.U. after    8 cycles
 SCF Done:  E(RB3LYP) =  -538.555205265     A.U. after    6 cycles
 SCF Done:  E(RB3LYP) =  -538.555205479     A.U. after    7 cycles
 SCF Done:  E(RB3LYP) =  -538.555205490     A.U. after    6 cycles
 Optimization completed.
    -- Stationary point found.
 Normal termination of Gaussian 16 at Wed Dec  9 16:52:54 2020.

 --------------------------------------------------------------------
 #N Geom=AllCheck Guess=TCheck SCRF=Check GenChk RB3LYP/6-31G(d) Freq
 --------------------------------------------------------------------

 Structure from the checkpoint file:  "JID_2140.chk"
 -------------------------------
 CID_117227946_JID_2140_neutraal
 -------------------------------
 Charge =  0 Multiplicity = 1

 SCF Done:  E(RB3LYP) =  -538.555205490     A.U. after    1 cycles

  Exact polarizability: 126.204  -1.124 100.212  -2.155   3.666  97.571
 Approx polarizability: 151.617  -2.028 144.528  -4.229   2.793 144.779

                      1                      2                      3
                      A                      A                      A
 Frequencies --     31.4067                68.6295               120.3354
 Red. masses --      3.2998                 2.9446                 2.8409
 Frc consts  --      0.0019                 0.0082                 0.0242
 IR Inten    --      0.6627                 0.1139                 1.3606

                      4                      5                      6
                      A                      A                      A
 Frequencies --    150.4979               213.3718               231.3737
 Red. masses --      2.7659                 3.8523                 1.3985
 Frc consts  --      0.0369                 0.1033                 0.0441
 IR Inten    --      0.3177                 7.9828                 0.6997

                      7                      8                      9
                      A                      A                      A
 Frequencies --    250.8695               263.6841               307.1184
 Red. masses --      1.7862                 2.2629                 2.7541
 Frc consts  --      0.0662                 0.0927                 0.1531
 IR Inten    --      0.8730                 0.5130                 1.6808

                     10                     11                     12
                      A                      A                      A
 Frequencies --    336.9637               390.5505               454.0832
 Red. masses --      2.2135                 2.6832                 2.4727
 Frc consts  --      0.1481                 0.2411                 0.3004
 IR Inten    --      2.3201                 2.0784                 2.6010

                     13                     14                     15
                      A                      A                      A
 Frequencies --    459.4210               475.9995               544.9771
 Red. masses --      2.6566                 3.0927                 1.7227
 Frc consts  --      0.3304                 0.4129                 0.3015
 IR Inten    --     13.0537                 3.2363                12.2703

                     16                     17                     18
                      A                      A                      A
 Frequencies --    571.3607               677.5834               692.9669
 Red. masses --      2.7952                 2.6832                 3.7505
 Frc consts  --      0.5376                 0.7258                 1.0611
 IR Inten    --     15.8998                10.0340                 7.2522

                     19                     20                     21
                      A                      A                      A
 Frequencies --    795.2452               834.9510               841.8431
 Red. masses --      2.7043                 1.6101                 1.8588
 Frc consts  --      1.0076                 0.6614                 0.7761
 IR Inten    --     37.0339                33.7052                17.0674

                     22                     23                     24
                      A                      A                      A
 Frequencies --    864.8816               891.6018               894.5275
 Red. masses --      2.6102                 1.9500                 2.0987
 Frc consts  --      1.1504                 0.9133                 0.9894
 IR Inten    --      5.2158                34.6912                22.9584

                     25                     26                     27
                      A                      A                      A
 Frequencies --    912.7516               942.2894               965.8308
 Red. masses --      1.8753                 2.0810                 1.6623
 Frc consts  --      0.9205                 1.0886                 0.9136
 IR Inten    --     21.7293                 0.6142                 2.6017

                     28                     29                     30
                      A                      A                      A
 Frequencies --    975.3730               982.6978               992.3105
 Red. masses --      1.4811                 1.7668                 2.7752
 Frc consts  --      0.8302                 1.0053                 1.6100
 IR Inten    --      0.8326                21.1653                26.9831

                     31                     32                     33
                      A                      A                      A
 Frequencies --   1042.6047              1073.2349              1091.3753
 Red. masses --      2.0351                 1.7379                 2.9728
 Frc consts  --      1.3034                 1.1794                 2.0863
 IR Inten    --      4.2405                 1.6362                63.3676

                     34                     35                     36
                      A                      A                      A
 Frequencies --   1105.6622              1132.0411              1146.0134
 Red. masses --      1.8239                 2.8336                 2.9095
 Frc consts  --      1.3137                 2.1395                 2.2514
 IR Inten    --      6.8052                27.0135                37.4835

                     37                     38                     39
                      A                      A                      A
 Frequencies --   1155.8408              1158.6374              1168.8736
 Red. masses --      2.0671                 1.7990                 2.0734
 Frc consts  --      1.6271                 1.4229                 1.6691
 IR Inten    --     17.4885                 4.1806                12.1223

                     40                     41                     42
                      A                      A                      A
 Frequencies --   1186.2823              1198.4763              1245.9411
 Red. masses --      1.5846                 1.6105                 1.5436
 Frc consts  --      1.3138                 1.3629                 1.4118
 IR Inten    --     12.1090                40.4937                 0.4612

                     43                     44                     45
                      A                      A                      A
 Frequencies --   1261.0577              1288.5332              1311.5143
 Red. masses --      1.3316                 1.2509                 1.1954
 Frc consts  --      1.2477                 1.2236                 1.2115
 IR Inten    --     20.2714                 4.6816                 1.7516

                     46                     47                     48
                      A                      A                      A
 Frequencies --   1320.8142              1341.7833              1372.4496
 Red. masses --      1.2131                 1.2883                 1.3040
 Frc consts  --      1.2469                 1.3666                 1.4472
 IR Inten    --     18.0067                15.2018                64.9835

                     49                     50                     51
                      A                      A                      A
 Frequencies --   1377.2985              1378.8052              1388.8682
 Red. masses --      1.3629                 1.3152                 1.4520
 Frc consts  --      1.5232                 1.4732                 1.6502
 IR Inten    --     10.4706                49.1686                24.1616

                     52                     53                     54
                      A                      A                      A
 Frequencies --   1399.1970              1401.7809              1407.3018
 Red. masses --      1.4342                 1.4352                 1.3229
 Frc consts  --      1.6543                 1.6616                 1.5436
 IR Inten    --      5.9258                 0.3451                 3.0506

                     55                     56                     57
                      A                      A                      A
 Frequencies --   1431.5517              1438.8145              1449.7172
 Red. masses --      1.4368                 1.3411                 1.4313
 Frc consts  --      1.7349                 1.6358                 1.7723
 IR Inten    --     24.5539                 6.8019                 9.9131

                     58                     59                     60
                      A                      A                      A
 Frequencies --   1458.0347              1497.8729              1509.2670
 Red. masses --      1.4451                 1.2852                 1.1534
 Frc consts  --      1.8100                 1.6989                 1.5480
 IR Inten    --      1.4206                14.0814                 4.1719

                     61                     62                     63
                      A                      A                      A
 Frequencies --   1516.6425              1522.6763              1525.5518
 Red. masses --      1.0921                 1.0741                 1.0992
 Frc consts  --      1.4801                 1.4673                 1.5072
 IR Inten    --      3.2596                 2.6427                 3.4550

                     64                     65                     66
                      A                      A                      A
 Frequencies --   1529.8486              1536.1812              1540.2559
 Red. masses --      1.0505                 1.1001                 1.0929
 Frc consts  --      1.4485                 1.5296                 1.5276
 IR Inten    --      2.2569                 0.7753                 1.1768

                     67                     68                     69
                      A                      A                      A
 Frequencies --   2890.1100              2909.5066              2953.3729
 Red. masses --      1.0802                 1.0735                 1.0829
 Frc consts  --      5.3159                 5.3541                 5.5654
 IR Inten    --     39.9499               117.7391                70.4611

                     70                     71                     72
                      A                      A                      A
 Frequencies --   2968.8643              3024.2467              3031.6728
 Red. masses --      1.0860                 1.0656                 1.0665
 Frc consts  --      5.6397                 5.7425                 5.7754
 IR Inten    --    115.8612                31.3343                40.5711

                     73                     74                     75
                      A                      A                      A
 Frequencies --   3037.8026              3045.3376              3050.2306
 Red. masses --      1.0645                 1.0617                 1.0362
 Frc consts  --      5.7878                 5.8015                 5.6800
 IR Inten    --     47.8226                18.5936                29.9580

                     76                     77                     78
                      A                      A                      A
 Frequencies --   3072.7557              3076.3077              3089.4913
 Red. masses --      1.0942                 1.0880                 1.1049
 Frc consts  --      6.0871                 6.0664                 6.2138
 IR Inten    --     66.1793                51.7370                32.6510

                     79                     80                     81
                      A                      A                      A
 Frequencies --   3098.8163              3113.0388              3118.6611
 Red. masses --      1.0997                 1.1018                 1.0995
 Frc consts  --      6.2219                 6.2913                 6.3005
 IR Inten    --     50.3557                23.7453                45.3337

                     82                     83                     84
                      A                      A                      A
 Frequencies --   3134.9833              3508.0495              3537.2915
 Red. masses --      1.1027                 1.0734                 1.0754
 Frc consts  --      6.3855                 7.7829                 7.9280
 IR Inten    --     33.0847                 1.3958                 1.1544

 - Thermochemistry -
 -------------------
 Temperature   298.150 Kelvin.  Pressure   1.00000 Atm.
 Atom     1 has atomic number  6 and mass  12.00000

 Molecular mass:   170.14191 amu.
 Principal axes and moments of inertia in atomic units:
                           1         2         3
     Eigenvalues --   993.985823305.217743416.47238
           X            0.99993   0.00536  -0.01076
           Y           -0.00430   0.99534   0.09637
           Z            0.01122  -0.09632   0.99529
 This molecule is an asymmetric top.
 Rotational symmetry number  1.
 Warning -- assumption of classical behavior for rotation
           may cause significant error
 Rotational temperatures (Kelvin)      0.08714     0.02621     0.02535
 Rotational constants (GHZ):           1.81566     0.54603     0.52825
 Zero-point vibrational energy     721987.2 (Joules/Mol)
                                  172.55909 (Kcal/Mol)
 Warning -- explicit consideration of  16 degrees of freedom as
           vibrations may cause significant error
 Vibrational temperatures:     45.19    98.74   173.14   216.53   306.99
          (Kelvin)            332.90   360.95   379.38   441.87   484.82
                              561.92   653.32   661.00   684.86   784.10
                              822.06   974.89   997.02  1144.18  1201.31
                             1211.22  1244.37  1282.82  1287.03  1313.25
                             1355.74  1389.62  1403.34  1413.88  1427.71
                             1500.08  1544.15  1570.25  1590.80  1628.75
                             1648.86  1663.00  1667.02  1681.75  1706.80
                             1724.34  1792.63  1814.38  1853.91  1886.98
                             1900.36  1930.53  1974.65  1981.63  1983.79
                             1998.27  2013.13  2016.85  2024.79  2059.68
                             2070.13  2085.82  2097.79  2155.10  2171.50
                             2182.11  2190.79  2194.93  2201.11  2210.22
                             2216.08  4158.22  4186.13  4249.24  4271.53
                             4351.22  4361.90  4370.72  4381.56  4388.60
                             4421.01  4426.12  4445.09  4458.51  4478.97
                             4487.06  4510.54  5047.30  5089.37

 Zero-point correction=                           0.274990 (Hartree/Particle)
 Thermal correction to Energy=                    0.286385
 Thermal correction to Enthalpy=                  0.287330
 Thermal correction to Gibbs Free Energy=         0.237277
 Sum of electronic and zero-point Energies=           -538.280215
 Sum of electronic and thermal Energies=              -538.268820
 Sum of electronic and thermal Enthalpies=            -538.267876
 Sum of electronic and thermal Free Energies=         -538.317928

                     E (Thermal)             CV                S
                      KCal/Mol        Cal/Mol-Kelvin    Cal/Mol-Kelvin
 Total                  179.710             44.916            105.345
 Electronic               0.000              0.000              0.000
 Translational            0.889              2.981             41.302
 Rotational               0.889              2.981             30.796
 Vibrational            177.932             38.955             33.246
 Vibration     1          0.594              1.983              5.739
 Vibration     2          0.598              1.969              4.192
 Vibration     3          0.609              1.932              3.095
 Vibration     4          0.618              1.902              2.666
 Vibration     5          0.644              1.821              2.015
 Vibration     6          0.653              1.793              1.868
 Vibration     7          0.663              1.761              1.724
 Vibration     8          0.670              1.739              1.637
 Vibration     9          0.697              1.660              1.378
 Vibration    10          0.718              1.602              1.226
 Vibration    11          0.758              1.490              0.998
 Vibration    12          0.813              1.352              0.784
 Vibration    13          0.817              1.340              0.768
 Vibration    14          0.833              1.303              0.721
 Vibration    15          0.900              1.151              0.555
 Vibration    16          0.928              1.093              0.502

 Optimization completed.
    -- Stationary point found.
 Normal termination of Gaussian 16 at Wed Dec  9 17:00:15 2020.

 ----------------------------------------------------------------------
 # B3LYP/6-311++G(d,p) empiricaldispersion=gd3bj scf=xqc pop=npa geom=c
 heck
 ----------------------------------------------------------------------

 ---------------------------------------
 CID_117227946_JID_2140_Energie_neutraal
 ---------------------------------------
 Structure from the checkpoint file:  "JID_2140.chk"
 Charge =  0 Multiplicity = 1

 SCF Done:  E(RB3LYP) =  -538.711297246     A.U. after   13 cycles
 Normal termination of Gaussian 16 at Wed Dec  9 17:03:20 2020.

 ----------------------------------------------------------------------
 # B3LYP/6-311++G(d,p) empiricaldispersion=gd3bj scf=xqc pop=npa geom=c
 heck
 ----------------------------------------------------------------------

 -------------------------------------
 CID_117227946_JID_2140_Energie_kation
 -------------------------------------
 Structure from the checkpoint file:  "JID_2140.chk"
 Charge =  1 Multiplicity = 2

 SCF Done:  E(UB3LYP) =  -538.419872727     A.U. after   21 cycles
 Normal termination of Gaussian 16 at Wed Dec  9 17:11:35 2020.
 Gaussian 16:  ES64L-G16RevA.03 25-Dec-2016

 ----------------------------------------------------------------------
 # B3LYP/6-311++G(d,p) empiricaldispersion=gd3bj scf=xqc pop=npa geom=c
 heck
 ----------------------------------------------------------------------

 ------------------------------------
 CID_117227946_JID_2140_Energie_anion
 ------------------------------------
 Structure from the checkpoint file:  "JID_2140.chk"
 Charge = -1 Multiplicity = 2

                         Standard orientation:
 ---------------------------------------------------------------------
 Center     Atomic      Atomic             Coordinates (Angstroms)
 Number     Number       Type             X           Y           Z
 ---------------------------------------------------------------------
      1          6           0       -3.207856   -0.743471    1.485295
      2          6           0       -2.674717   -0.364915    0.109397
      3          6           0       -2.304057    1.107414   -0.041675
      4          8           0       -1.365657    1.127556   -1.117920
      5          6           0       -0.673860   -0.125404   -1.129234
      6          7           0       -1.370348   -0.979873   -0.161647
      7          6           0        0.810931    0.090673   -0.794447
      8          6           0        1.529255   -1.237718   -0.539129
      9          6           0        2.996909   -1.002681   -0.160263
     10          6           0        3.094752   -0.017512    1.011444
     11          6           0        2.331953    1.268096    0.685655
     12          7           0        0.938309    0.953021    0.376689
     13          1           0       -2.467582   -0.494774    2.252083
     14          1           0       -3.411173   -1.818474    1.544584
     15          1           0       -4.143594   -0.214865    1.703054
     16          1           0       -3.424038   -0.618155   -0.662178
     17          1           0       -3.149679    1.745336   -0.312881
     18          1           0       -1.842223    1.480030    0.883475
     19          1           0       -0.736166   -0.522363   -2.156909
     20          1           0       -1.467311   -1.926285   -0.516481
     21          1           0        1.267482    0.562413   -1.690221
     22          1           0        1.458269   -1.876995   -1.429874
     23          1           0        1.008908   -1.743089    0.282306
     24          1           0        3.484064   -1.953003    0.090070
     25          1           0        3.535130   -0.588565   -1.025348
     26          1           0        2.654153   -0.468518    1.909519
     27          1           0        4.142814    0.215983    1.235562
     28          1           0        2.349882    1.952462    1.541731
     29          1           0        2.845716    1.779887   -0.154170
     30          1           0        0.425019    1.809605    0.181490
 ---------------------------------------------------------------------

 SCF Done:  E(UB3LYP) =  -538.694674333     A.U. after   29 cycles

 The electronic state is 2-A.
 Alpha  occ. eigenvalues --  -19.02263 -14.18905 -14.18860 -10.13717 -10.11016
 Alpha  occ. eigenvalues --  -10.09457 -10.09022 -10.08695 -10.06334 -10.06306
 Alpha  occ. eigenvalues --  -10.05553 -10.05529  -0.94948  -0.80991  -0.78602
 Alpha  occ. eigenvalues --   -0.68446  -0.68307  -0.64241  -0.58940  -0.54488
 Alpha  occ. eigenvalues --   -0.52537  -0.48898  -0.47836  -0.44809  -0.42548
 Alpha  occ. eigenvalues --   -0.40908  -0.37772  -0.36312  -0.35159  -0.32819
 Alpha  occ. eigenvalues --   -0.32396  -0.31809  -0.31135  -0.30270  -0.29215
 Alpha  occ. eigenvalues --   -0.28483  -0.27548  -0.26493  -0.25492  -0.24083
 Alpha  occ. eigenvalues --   -0.22810  -0.22575  -0.21790  -0.21016  -0.16130
 Alpha  occ. eigenvalues --   -0.12714  -0.11948   0.04721
 Alpha virt. eigenvalues --    0.06435   0.07304   0.08003   0.08658   0.09061
 Alpha virt. eigenvalues --    0.09132   0.10350   0.11023   0.11143   0.11663
 Alpha virt. eigenvalues --    0.11923   0.12412   0.13258   0.13651   0.14751

  Beta  occ. eigenvalues --  -19.02263 -14.18873 -14.18848 -10.13698 -10.11000
  Beta  occ. eigenvalues --  -10.09436 -10.09010 -10.08692 -10.06323 -10.06291
  Beta  occ. eigenvalues --  -10.05525 -10.05514  -0.94934  -0.80975  -0.78559
  Beta  occ. eigenvalues --   -0.68411  -0.68276  -0.64206  -0.58892  -0.54451
  Beta  occ. eigenvalues --   -0.52495  -0.48830  -0.47792  -0.44767  -0.42481
  Beta  occ. eigenvalues --   -0.40871  -0.37722  -0.36270  -0.35138  -0.32793
  Beta  occ. eigenvalues --   -0.32361  -0.31773  -0.31094  -0.30233  -0.29174
  Beta  occ. eigenvalues --   -0.28459  -0.27510  -0.26453  -0.25445  -0.24057
  Beta  occ. eigenvalues --   -0.22784  -0.22549  -0.21756  -0.20989  -0.16108
  Beta  occ. eigenvalues --   -0.12658  -0.11886
  Beta virt. eigenvalues --    0.06779   0.07556   0.08066   0.08291   0.09359
  Beta virt. eigenvalues --    0.09537   0.09613   0.10811   0.11163   0.11773
  Beta virt. eigenvalues --    0.11960   0.12158   0.12796   0.13482   0.14114

 Mulliken charges and spin densities:
               1          2
     1  C    0.932413  -1.552714
     2  C    0.197000  -0.011079
     3  C    0.230976  -0.536545
     4  O   -0.118371   0.045663
     5  C    0.202762  -1.721420
     6  N   -0.056699   0.128532
     7  C   -0.530960   1.229362
     8  C    0.079483  -0.520786
     9  C   -0.194739  -0.038701
    10  C   -0.006063  -0.427368
    11  C    0.262546  -0.445342
    12  N   -0.062309   0.070826
    13  H    0.090380   0.048869
    14  H   -0.322304   0.462369
    15  H   -0.204152   0.335417
    16  H   -0.526237   0.708109
    17  H   -0.216532   0.369079
    18  H    0.086748   0.045135
    19  H   -0.425583   0.592026
    20  H   -0.164788   0.440936
    21  H    0.168795  -0.001000
    22  H   -0.384308   0.537610
    23  H    0.335659  -0.180931
    24  H   -0.387407   0.553304
    25  H    0.050911   0.062715
    26  H    0.140529  -0.015615
    27  H   -0.188356   0.346269
    28  H   -0.087011   0.233068
    29  H   -0.088298   0.185440
    30  H    0.185917   0.056771
 Sum of Mulliken charges =  -1.00000   1.00000

 Dipole moment (field-independent basis, Debye):
    X=              2.8964    Y=              3.7499    Z=              1.7450  Tot=              5.0493
 Quadrupole moment (field-independent basis, Debye-Ang):
   XX=           -150.1919   YY=           -114.3747   ZZ=           -109.1961
   XY=             -3.9106   XZ=             -3.4951   YZ=             -3.5731

 Summary of Natural Population Analysis:

                                       Natural Population
                Natural  -----------------------------------------------
    Atom  No    Charge         Core      Valence    Rydberg      Total
 -----------------------------------------------------------------------
      C    1   -0.28663      0.99964     2.27975    0.00723     3.28663
      C    2   -0.02268      0.99961     2.00981    0.01326     3.02268
      C    3   -0.00868      0.99955     1.99666    0.01248     3.00868
      O    4   -0.30742      0.99989     3.29941    0.00812     4.30742
      C    5    0.16580      0.99956     1.81632    0.01832     2.83420
      N    6   -0.35392      0.99971     2.84133    0.01287     3.85392
      C    7   -0.01651      0.99956     2.00393    0.01302     3.01651
      C    8   -0.19852      0.99960     2.18898    0.00994     3.19852
      C    9   -0.18796      0.99963     2.17991    0.00842     3.18796
      C   10   -0.19446      0.99963     2.18642    0.00840     3.19446
      C   11   -0.08452      0.99963     2.07389    0.01100     3.08452
      N   12   -0.33955      0.99971     2.83026    0.00957     3.83955
      H   13    0.10115      0.00000     0.39765    0.00121     0.39885
      H   14    0.10269      0.00000     0.39614    0.00118     0.39731
      H   15    0.09784      0.00000     0.40097    0.00119     0.40216
      H   16    0.08474      0.00000     0.41146    0.00381     0.41526
      H   17    0.09069      0.00000     0.40802    0.00129     0.40931
      H   18    0.08054      0.00000     0.41783    0.00163     0.41946
      H   19    0.07888      0.00000     0.41917    0.00195     0.42112
      H   20    0.18806      0.00000     0.30792    0.00402     0.31194
      H   21    0.07711      0.00000     0.42081    0.00208     0.42289
      H   22    0.10058      0.00000     0.39796    0.00146     0.39942
      H   23    0.10596      0.00000     0.39205    0.00200     0.39404
      H   24    0.09837      0.00000     0.40057    0.00106     0.40163
      H   25    0.09125      0.00000     0.40718    0.00157     0.40875
      H   26    0.09668      0.00000     0.40195    0.00137     0.40332
      H   27    0.09661      0.00000     0.40232    0.00107     0.40339
      H   28    0.09274      0.00000     0.40639    0.00087     0.40726
      H   29    0.07373      0.00000     0.42478    0.00149     0.42627
      H   30    0.17742      0.00000     0.31965    0.00293     0.32258
 =======================================================================
   * Total *    0.00000     11.99573    34.83947    0.16480    47.00000

 Normal termination of Gaussian 16 at Wed Dec  9 17:21:29 2020.
