 Gaussian 16, Revision A.03,

 -----------------------------------------------------------
 # opt freq B3LYP/6-31G(d) empiricaldispersion=gd3bj scf=xqc
 -----------------------------------------------------------

 -------------------------------
 CID_117269703_JID_4814_neutraal
 -------------------------------
 Symbolic Z-matrix:
 Charge =  0 Multiplicity = 1

 SCF Done:  E(RB3LYP) =  -995.889346466     A.U. after   13 cycles
 SCF Done:  E(RB3LYP) =  -995.895027888     A.U. after   12 cycles
 SCF Done:  E(RB3LYP) =  -995.895606430     A.U. after   12 cycles
 SCF Done:  E(RB3LYP) =  -995.895695864     A.U. after   12 cycles
 SCF Done:  E(RB3LYP) =  -995.895881890     A.U. after   11 cycles
 SCF Done:  E(RB3LYP) =  -995.895954241     A.U. after   10 cycles
 SCF Done:  E(RB3LYP) =  -995.896024820     A.U. after   11 cycles
 SCF Done:  E(RB3LYP) =  -995.896080210     A.U. after   11 cycles
 SCF Done:  E(RB3LYP) =  -995.896146211     A.U. after   12 cycles
 SCF Done:  E(RB3LYP) =  -995.896158655     A.U. after   10 cycles
 SCF Done:  E(RB3LYP) =  -995.896157255     A.U. after   10 cycles
 SCF Done:  E(RB3LYP) =  -995.896161742     A.U. after   10 cycles
 SCF Done:  E(RB3LYP) =  -995.896161864     A.U. after    7 cycles
 SCF Done:  E(RB3LYP) =  -995.896161879     A.U. after    6 cycles
 Optimization completed.
    -- Stationary point found.
 Normal termination of Gaussian 16 at Thu Dec 10 10:30:57 2020.

 --------------------------------------------------------------------
 #N Geom=AllCheck Guess=TCheck SCRF=Check GenChk RB3LYP/6-31G(d) Freq
 --------------------------------------------------------------------

 Structure from the checkpoint file:  "JID_4814.chk"
 -------------------------------
 CID_117269703_JID_4814_neutraal
 -------------------------------
 Charge =  0 Multiplicity = 1

 SCF Done:  E(RB3LYP) =  -995.896161879     A.U. after    2 cycles

  Exact polarizability: 153.719  -4.805 123.416  -0.445  -0.816 109.005
 Approx polarizability: 188.406  -0.706 185.366  -7.146   2.135 180.361

                      1                      2                      3
                      A                      A                      A
 Frequencies --     24.5433                33.7103                60.8020
 Red. masses --      3.1489                 3.5423                 4.0821
 Frc consts  --      0.0011                 0.0024                 0.0089
 IR Inten    --      0.2083                 3.2679                 2.8565

                      4                      5                      6
                      A                      A                      A
 Frequencies --     74.6240               132.6866               168.1805
 Red. masses --      3.2095                 4.1592                 2.6153
 Frc consts  --      0.0105                 0.0431                 0.0436
 IR Inten    --      0.5121                 0.1105                 0.9141

                      7                      8                      9
                      A                      A                      A
 Frequencies --    218.2495               223.8944               241.4711
 Red. masses --      3.2082                 6.3502                 1.2020
 Frc consts  --      0.0900                 0.1876                 0.0413
 IR Inten    --      4.2245                 2.8008                 0.0398

                     10                     11                     12
                      A                      A                      A
 Frequencies --    249.0379               271.7670               333.0853
 Red. masses --      2.1375                 2.2763                 2.9133
 Frc consts  --      0.0781                 0.0991                 0.1904
 IR Inten    --      0.2474                 0.9765                 2.6468

                     13                     14                     15
                      A                      A                      A
 Frequencies --    340.9548               369.6621               410.4147
 Red. masses --      2.5530                 4.8386                 2.5867
 Frc consts  --      0.1749                 0.3896                 0.2567
 IR Inten    --      0.6877                 7.5850                11.8199

                     16                     17                     18
                      A                      A                      A
 Frequencies --    437.4331               476.7348               506.4812
 Red. masses --      2.6498                 2.2540                 2.6053
 Frc consts  --      0.2987                 0.3018                 0.3938
 IR Inten    --      9.3798                 4.7130                18.7963

                     19                     20                     21
                      A                      A                      A
 Frequencies --    539.1895               545.4090               592.6518
 Red. masses --      5.0782                 2.8547                 3.6177
 Frc consts  --      0.8699                 0.5003                 0.7487
 IR Inten    --      8.3403                 8.1304                 7.5645

                     22                     23                     24
                      A                      A                      A
 Frequencies --    622.7696               665.5307               714.7292
 Red. masses --      4.3697                 2.6655                 3.0987
 Frc consts  --      0.9985                 0.6956                 0.9327
 IR Inten    --     26.0853                 9.2914                70.4177

                     25                     26                     27
                      A                      A                      A
 Frequencies --    790.0818               826.6408               854.9837
 Red. masses --      2.1182                 2.8839                 1.9087
 Frc consts  --      0.7790                 1.1611                 0.8220
 IR Inten    --     27.3279                23.7955                 8.9108

                     28                     29                     30
                      A                      A                      A
 Frequencies --    883.6341               899.3944               906.6446
 Red. masses --      1.8219                 2.1563                 1.7877
 Frc consts  --      0.8382                 1.0277                 0.8658
 IR Inten    --      9.9112                 3.7029                 2.2290

                     31                     32                     33
                      A                      A                      A
 Frequencies --    922.6686               934.8588               964.9998
 Red. masses --      1.9716                 1.5163                 1.6479
 Frc consts  --      0.9889                 0.7808                 0.9041
 IR Inten    --      1.7745                 5.2834                 9.4898

                     34                     35                     36
                      A                      A                      A
 Frequencies --    981.5887              1011.1220              1018.0348
 Red. masses --      1.9336                 1.6072                 1.5880
 Frc consts  --      1.0977                 0.9681                 0.9697
 IR Inten    --      1.2562                 2.7943                13.9618

                     37                     38                     39
                      A                      A                      A
 Frequencies --   1026.2614              1058.5382              1076.5003
 Red. masses --      2.0002                 2.0329                 1.7979
 Frc consts  --      1.2412                 1.3421                 1.2276
 IR Inten    --      0.8958                 3.3922                 3.7572

                     40                     41                     42
                      A                      A                      A
 Frequencies --   1083.1091              1102.2976              1111.0222
 Red. masses --      2.2807                 4.3505                 1.8157
 Frc consts  --      1.5764                 3.1145                 1.3205
 IR Inten    --      9.4967                91.8859                 8.3476

                     43                     44                     45
                      A                      A                      A
 Frequencies --   1123.7786              1155.3707              1163.9540
 Red. masses --      1.7335                 1.8711                 2.0285
 Frc consts  --      1.2898                 1.4716                 1.6192
 IR Inten    --     34.3624                 2.7699                 5.4456

                     46                     47                     48
                      A                      A                      A
 Frequencies --   1178.1124              1188.9590              1219.2497
 Red. masses --      1.9093                 1.5562                 1.6102
 Frc consts  --      1.5614                 1.2961                 1.4103
 IR Inten    --      3.1664                 9.9864                14.8123

                     49                     50                     51
                      A                      A                      A
 Frequencies --   1241.8841              1250.8295              1269.9631
 Red. masses --      1.4767                 1.3273                 1.4604
 Frc consts  --      1.3418                 1.2235                 1.3878
 IR Inten    --     11.0382                 8.5649                23.9957

                     52                     53                     54
                      A                      A                      A
 Frequencies --   1284.4066              1297.9937              1309.7572
 Red. masses --      1.3893                 1.3830                 1.2939
 Frc consts  --      1.3503                 1.3728                 1.3078
 IR Inten    --     30.8151                 4.1513                 2.0914

                     55                     56                     57
                      A                      A                      A
 Frequencies --   1317.8438              1324.2234              1333.2412
 Red. masses --      1.8958                 1.6745                 1.3898
 Frc consts  --      1.9399                 1.7301                 1.4555
 IR Inten    --    116.4499                29.8704                 1.9871

                     58                     59                     60
                      A                      A                      A
 Frequencies --   1362.2535              1363.9346              1380.7725
 Red. masses --      1.2302                 1.3748                 1.3032
 Frc consts  --      1.3451                 1.5069                 1.4639
 IR Inten    --      4.6054                 1.2346                 1.1041

                     61                     62                     63
                      A                      A                      A
 Frequencies --   1399.4548              1404.3746              1410.8517
 Red. masses --      1.3415                 1.2981                 1.4358
 Frc consts  --      1.5479                 1.5084                 1.6839
 IR Inten    --      3.5664                 4.4065                 2.6137

                     64                     65                     66
                      A                      A                      A
 Frequencies --   1425.4439              1439.2426              1463.1522
 Red. masses --      1.4579                 1.3445                 1.4591
 Frc consts  --      1.7453                 1.6409                 1.8404
 IR Inten    --      8.6092                11.6423                12.9089

                     67                     68                     69
                      A                      A                      A
 Frequencies --   1486.9153              1514.1548              1517.3546
 Red. masses --      1.0916                 1.0776                 1.0863
 Frc consts  --      1.4219                 1.4557                 1.4735
 IR Inten    --      6.2528                 4.1176                 3.8581

                     70                     71                     72
                      A                      A                      A
 Frequencies --   1518.3799              1522.8559              1527.4729
 Red. masses --      1.0990                 1.0631                 1.0982
 Frc consts  --      1.4928                 1.4526                 1.5096
 IR Inten    --      4.3216                 4.0246                 1.9084

                     73                     74                     75
                      A                      A                      A
 Frequencies --   1530.2428              1552.1824              2909.4526
 Red. masses --      1.0510                 1.0919                 1.0814
 Frc consts  --      1.4500                 1.5500                 5.3935
 IR Inten    --      4.2686                 3.5992                73.6998

                     76                     77                     78
                      A                      A                      A
 Frequencies --   2944.9791              3041.6179              3045.9091
 Red. masses --      1.0748                 1.0632                 1.0369
 Frc consts  --      5.4921                 5.7953                 5.6681
 IR Inten    --     94.4314                 9.5904                27.9713

                     79                     80                     81
                      A                      A                      A
 Frequencies --   3052.6564              3060.7604              3070.0073
 Red. masses --      1.0663                 1.0854                 1.0632
 Frc consts  --      5.8543                 5.9910                 5.9037
 IR Inten    --     34.5288                47.4563                20.8902

                     82                     83                     84
                      A                      A                      A
 Frequencies --   3076.5707              3082.1106              3087.6142
 Red. masses --      1.0626                 1.0979                 1.0854
 Frc consts  --      5.9258                 6.1448                 6.0968
 IR Inten    --     11.5602                17.5484                 5.4791

                     85                     86                     87
                      A                      A                      A
 Frequencies --   3101.9455              3106.4540              3109.2461
 Red. masses --      1.0627                 1.0892                 1.1011
 Frc consts  --      6.0246                 6.1928                 6.2718
 IR Inten    --      3.4515                 5.7582                32.3417

                     88                     89                     90
                      A                      A                      A
 Frequencies --   3117.3440              3122.6391              3127.2765
 Red. masses --      1.0997                 1.0981                 1.1034
 Frc consts  --      6.2963                 6.3087                 6.3578
 IR Inten    --     10.7681                 7.8849                 3.5591

                     91                     92                     93
                      A                      A                      A
 Frequencies --   3127.8465              3173.6020              3504.9122
 Red. masses --      1.1022                 1.1085                 1.0748
 Frc consts  --      6.3532                 6.5778                 7.7793
 IR Inten    --     69.3257                 2.2828                 2.0756

 - Thermochemistry -
 -------------------
 Temperature   298.150 Kelvin.  Pressure   1.00000 Atm.
 Atom     1 has atomic number  6 and mass  12.00000

 Molecular mass:   217.11365 amu.
 Principal axes and moments of inertia in atomic units:
                           1         2         3
     Eigenvalues --  1319.212125752.590936397.50355
           X            0.99974  -0.02295   0.00151
           Y            0.02297   0.99962  -0.01535
           Z           -0.00115   0.01538   0.99988
 This molecule is an asymmetric top.
 Rotational symmetry number  1.
 Warning -- assumption of classical behavior for rotation
           may cause significant error
 Rotational temperatures (Kelvin)      0.06566     0.01506     0.01354
 Rotational constants (GHZ):           1.36804     0.31373     0.28210
 Zero-point vibrational energy     765896.8 (Joules/Mol)
                                  183.05372 (Kcal/Mol)
 Warning -- explicit consideration of  21 degrees of freedom as
           vibrations may cause significant error
 Vibrational temperatures:     35.31    48.50    87.48   107.37   190.91
          (Kelvin)            241.97   314.01   322.13   347.42   358.31
                              391.01   479.24   490.56   531.86   590.50
                              629.37   685.92   728.71   775.77   784.72
                              852.69   896.03   957.55  1028.34  1136.75
                             1189.35  1230.13  1271.35  1294.03  1304.46
                             1327.51  1345.05  1388.42  1412.29  1454.78
                             1464.73  1476.56  1523.00  1548.84  1558.35
                             1585.96  1598.51  1616.87  1662.32  1674.67
                             1695.04  1710.65  1754.23  1786.79  1799.66
                             1827.19  1847.97  1867.52  1884.45  1896.08
                             1905.26  1918.24  1959.98  1962.40  1986.62
                             2013.50  2020.58  2029.90  2050.90  2070.75
                             2105.15  2139.34  2178.53  2183.13  2184.61
                             2191.05  2197.69  2201.68  2233.24  4186.05
                             4237.17  4376.21  4382.38  4392.09  4403.75
                             4417.06  4426.50  4434.47  4442.39  4463.01
                             4469.49  4473.51  4485.16  4492.78  4499.45
                             4500.27  4566.11  5042.79

 Zero-point correction=                           0.291715 (Hartree/Particle)
 Thermal correction to Energy=                    0.305866
 Thermal correction to Enthalpy=                  0.306810
 Thermal correction to Gibbs Free Energy=         0.249292
 Sum of electronic and zero-point Energies=           -995.604447
 Sum of electronic and thermal Energies=              -995.590296
 Sum of electronic and thermal Enthalpies=            -995.589352
 Sum of electronic and thermal Free Energies=         -995.646870

                     E (Thermal)             CV                S
                      KCal/Mol        Cal/Mol-Kelvin    Cal/Mol-Kelvin
 Total                  191.934             54.559            121.057
 Electronic               0.000              0.000              0.000
 Translational            0.889              2.981             42.029
 Rotational               0.889              2.981             32.251
 Vibrational            190.156             48.597             46.777
 Vibration     1          0.593              1.985              6.228
 Vibration     2          0.594              1.983              5.598
 Vibration     3          0.597              1.973              4.431
 Vibration     4          0.599              1.966              4.028
 Vibration     5          0.613              1.921              2.907
 Vibration     6          0.625              1.882              2.456
 Vibration     7          0.646              1.813              1.974
 Vibration     8          0.649              1.805              1.927
 Vibration     9          0.658              1.777              1.792
 Vibration    10          0.662              1.764              1.737
 Vibration    11          0.675              1.725              1.585
 Vibration    12          0.715              1.609              1.245
 Vibration    13          0.720              1.594              1.208
 Vibration    14          0.742              1.535              1.081
 Vibration    15          0.775              1.448              0.925
 Vibration    16          0.798              1.389              0.835
 Vibration    17          0.833              1.302              0.719
 Vibration    18          0.862              1.236              0.642
 Vibration    19          0.894              1.163              0.567
 Vibration    20          0.901              1.150              0.554
 Vibration    21          0.950              1.047              0.462

                           ! Non-Optimized Parameters !
 Normal termination of Gaussian 16 at Thu Dec 10 10:42:09 2020.

 ----------------------------------------------------------------------
 # B3LYP/6-311++G(d,p) empiricaldispersion=gd3bj scf=xqc pop=npa geom=c
 heck
 ----------------------------------------------------------------------

 ---------------------------------------
 CID_117269703_JID_4814_Energie_neutraal
 ---------------------------------------
 Structure from the checkpoint file:  "JID_4814.chk"
 Charge =  0 Multiplicity = 1

 SCF Done:  E(RB3LYP) =  -996.096001595     A.U. after   14 cycles
 Normal termination of Gaussian 16 at Thu Dec 10 10:47:38 2020.

 ----------------------------------------------------------------------
 # B3LYP/6-311++G(d,p) empiricaldispersion=gd3bj scf=xqc pop=npa geom=c
 heck
 ----------------------------------------------------------------------

 -------------------------------------
 CID_117269703_JID_4814_Energie_kation
 -------------------------------------
 Structure from the checkpoint file:  "JID_4814.chk"
 Charge =  1 Multiplicity = 2

 SCF Done:  E(UB3LYP) =  -995.784230571     A.U. after   26 cycles
 Normal termination of Gaussian 16 at Thu Dec 10 11:01:28 2020.
 Gaussian 16:  ES64L-G16RevA.03 25-Dec-2016

 ----------------------------------------------------------------------
 # B3LYP/6-311++G(d,p) empiricaldispersion=gd3bj scf=xqc pop=npa geom=c
 heck
 ----------------------------------------------------------------------

 ------------------------------------
 CID_117269703_JID_4814_Energie_anion
 ------------------------------------
 Structure from the checkpoint file:  "JID_4814.chk"
 Charge = -1 Multiplicity = 2

                         Standard orientation:
 ---------------------------------------------------------------------
 Center     Atomic      Atomic             Coordinates (Angstroms)
 Number     Number       Type             X           Y           Z
 ---------------------------------------------------------------------
      1          6           0        4.949706   -0.692335   -0.015831
      2          6           0        3.589619   -0.183571   -0.474119
      3          6           0        2.395581   -1.016159    0.001767
      4          6           0        1.189182   -0.049027   -0.083478
      5          6           0        1.849174    1.360924   -0.156758
      6          7           0        3.266627    1.117935    0.121862
      7          6           0        0.233039   -0.237822    1.102038
      8          6           0       -1.184761    0.322185    0.939547
      9          6           0       -1.369301    1.699912    0.291063
     10          6           0       -2.828593    1.792988   -0.196038
     11          6           0       -3.092383    0.529951   -1.018840
     12         16           0       -2.249541   -0.804771   -0.085111
     13          8           0       -1.425074   -1.611820   -1.003869
     14          8           0       -3.222440   -1.464297    0.804600
     15          1           0        5.147018   -1.692506   -0.417603
     16          1           0        4.984092   -0.737754    1.077920
     17          1           0        5.756837   -0.031727   -0.355100
     18          1           0        3.573665   -0.145997   -1.582254
     19          1           0        2.240346   -1.924342   -0.587445
     20          1           0        2.568936   -1.313038    1.043850
     21          1           0        0.642324   -0.247998   -1.007902
     22          1           0        1.437392    2.059248    0.581697
     23          1           0        1.674150    1.801038   -1.155595
     24          1           0        3.859916    1.861953   -0.238990
     25          1           0        0.146229   -1.307428    1.327769
     26          1           0        0.680234    0.224605    1.991925
     27          1           0       -1.697407    0.303883    1.906875
     28          1           0       -1.124915    2.496156    1.001140
     29          1           0       -0.697448    1.806852   -0.566838
     30          1           0       -2.998719    2.693428   -0.793698
     31          1           0       -3.510762    1.828000    0.661094
     32          1           0       -2.620081    0.571297   -2.003774
     33          1           0       -4.143009    0.251775   -1.116289
 ---------------------------------------------------------------------

 SCF Done:  E(UB3LYP) =  -996.087756176     A.U. after   28 cycles

 The electronic state is 2-A.
 Alpha  occ. eigenvalues --  -88.94134 -19.01966 -19.01863 -14.19930 -10.12028
 Alpha  occ. eigenvalues --  -10.11485 -10.10452 -10.09377 -10.09147 -10.09133
 Alpha  occ. eigenvalues --  -10.08878 -10.07943 -10.07249 -10.07188  -8.00741
 Alpha  occ. eigenvalues --   -5.97009  -5.96869  -5.96815  -1.00766  -0.90591
 Alpha  occ. eigenvalues --   -0.82645  -0.76426  -0.70850  -0.67055  -0.65729
 Alpha  occ. eigenvalues --   -0.62383  -0.58599  -0.56788  -0.51227  -0.49124
 Alpha  occ. eigenvalues --   -0.47893  -0.46122  -0.42701  -0.41508  -0.40300
 Alpha  occ. eigenvalues --   -0.37975  -0.36914  -0.36235  -0.35586  -0.35122
 Alpha  occ. eigenvalues --   -0.34002  -0.32888  -0.31558  -0.30772  -0.30374
 Alpha  occ. eigenvalues --   -0.28693  -0.27829  -0.27194  -0.26670  -0.26281
 Alpha  occ. eigenvalues --   -0.25885  -0.24200  -0.23136  -0.22959  -0.22614
 Alpha  occ. eigenvalues --   -0.21941  -0.20573  -0.18420  -0.13379   0.03978
 Alpha virt. eigenvalues --    0.05882   0.06955   0.07555   0.08310   0.08608
 Alpha virt. eigenvalues --    0.08817   0.09960   0.10316   0.10928   0.11071
 Alpha virt. eigenvalues --    0.11622   0.11829   0.12691   0.13256   0.13467

  Beta  occ. eigenvalues --  -88.94134 -19.01964 -19.01858 -14.19906 -10.12022
  Beta  occ. eigenvalues --  -10.11466 -10.10442 -10.09332 -10.09117 -10.09110
  Beta  occ. eigenvalues --  -10.08872 -10.07940 -10.07236 -10.07187  -8.00741
  Beta  occ. eigenvalues --   -5.97009  -5.96869  -5.96814  -1.00761  -0.90587
  Beta  occ. eigenvalues --   -0.82617  -0.76394  -0.70823  -0.67027  -0.65696
  Beta  occ. eigenvalues --   -0.62332  -0.58569  -0.56739  -0.51135  -0.49085
  Beta  occ. eigenvalues --   -0.47862  -0.46094  -0.42660  -0.41470  -0.40253
  Beta  occ. eigenvalues --   -0.37942  -0.36889  -0.36200  -0.35551  -0.35100
  Beta  occ. eigenvalues --   -0.33957  -0.32855  -0.31532  -0.30750  -0.30343
  Beta  occ. eigenvalues --   -0.28658  -0.27780  -0.27160  -0.26635  -0.26249
  Beta  occ. eigenvalues --   -0.25852  -0.24175  -0.23123  -0.22941  -0.22598
  Beta  occ. eigenvalues --   -0.21927  -0.20564  -0.18398  -0.13329
  Beta virt. eigenvalues --    0.06210   0.06942   0.07554   0.08167   0.08593
  Beta virt. eigenvalues --    0.09097   0.09180   0.10299   0.10776   0.11189
  Beta virt. eigenvalues --    0.11424   0.11852   0.12222   0.12949   0.13417

 Mulliken charges and spin densities:
               1          2
     1  C    0.203877  -0.850062
     2  C   -0.673466   0.709081
     3  C    0.547211  -1.208924
     4  C   -0.282962   0.673637
     5  C    0.721870  -1.412623
     6  N   -0.259753   0.217444
     7  C    0.125821  -0.518724
     8  C   -0.996852   0.730346
     9  C   -0.593581   0.274401
    10  C    1.197089  -1.633757
    11  C   -0.295596  -0.345034
    12  S    0.520852  -0.254359
    13  O   -0.170957   0.013645
    14  O   -0.136819   0.001804
    15  H    0.098519   0.024403
    16  H    0.100178   0.050196
    17  H   -0.134121   0.266022
    18  H   -0.186789   0.340154
    19  H    0.134256   0.025793
    20  H    0.118975   0.021654
    21  H    0.277216  -0.041152
    22  H    0.034204   0.159970
    23  H   -0.690007   0.865553
    24  H   -0.050844   0.299247
    25  H    0.206152   0.003513
    26  H    0.091688   0.102590
    27  H    0.001218   0.329753
    28  H   -0.709321   0.909667
    29  H    0.890054  -0.690355
    30  H   -1.135304   1.370596
    31  H    0.033281   0.143739
    32  H   -0.060303   0.263117
    33  H    0.074219   0.158662
 Sum of Mulliken charges =  -1.00000   1.00000

 Dipole moment (field-independent basis, Debye):
    X=              1.7931    Y=             -5.7262    Z=              1.7151  Tot=              6.2406
 Quadrupole moment (field-independent basis, Debye-Ang):
   XX=           -169.4821   YY=           -154.0105   ZZ=           -128.0460
   XY=             -1.1583   XZ=              3.8904   YZ=              3.2399

 Summary of Natural Population Analysis:

                                       Natural Population
                Natural  -----------------------------------------------
    Atom  No    Charge         Core      Valence    Rydberg      Total
 -----------------------------------------------------------------------
      C    1   -0.28421      0.99965     2.27957    0.00499     3.28421
      C    2   -0.01390      0.99961     2.00105    0.01324     3.01390
      C    3   -0.18402      0.99960     2.17687    0.00754     3.18402
      C    4   -0.12213      0.99959     2.11168    0.01086     3.12213
      C    5   -0.08694      0.99962     2.07566    0.01166     3.08694
      N    6   -0.34524      0.99973     2.83329    0.01222     3.84524
      C    7   -0.19416      0.99958     2.18391    0.01067     3.19416
      C    8   -0.18728      0.99956     2.17347    0.01425     3.18728
      C    9   -0.20199      0.99960     2.19148    0.01091     3.20199
      C   10   -0.19788      0.99963     2.18794    0.01031     3.19788
      C   11   -0.28333      0.99960     2.27304    0.01069     3.28333
      S   12    1.00713      4.99925     1.90058    0.09304     6.99287
      O   13   -0.46929      0.99991     3.46367    0.00571     4.46929
      O   14   -0.47122      0.99991     3.46567    0.00563     4.47122
      H   15    0.09707      0.00000     0.40216    0.00077     0.40293
      H   16    0.09954      0.00000     0.39935    0.00110     0.40046
      H   17    0.09880      0.00000     0.40016    0.00104     0.40120
      H   18    0.07866      0.00000     0.41979    0.00155     0.42134
      H   19    0.10323      0.00000     0.39602    0.00076     0.39677
      H   20    0.09419      0.00000     0.40464    0.00117     0.40581
      H   21    0.10954      0.00000     0.38867    0.00179     0.39046
      H   22    0.09373      0.00000     0.40443    0.00185     0.40627
      H   23    0.08516      0.00000     0.41259    0.00225     0.41484
      H   24    0.17827      0.00000     0.31847    0.00326     0.32173
      H   25    0.10566      0.00000     0.39323    0.00112     0.39434
      H   26    0.10561      0.00000     0.39329    0.00110     0.39439
      H   27    0.11612      0.00000     0.38277    0.00111     0.38388
      H   28    0.11446      0.00000     0.38297    0.00257     0.38554
      H   29    0.10461      0.00000     0.39255    0.00283     0.39539
      H   30    0.11571      0.00000     0.37951    0.00478     0.38429
      H   31    0.10189      0.00000     0.39628    0.00183     0.39811
      H   32    0.11511      0.00000     0.38345    0.00144     0.38489
      H   33    0.11711      0.00000     0.38176    0.00114     0.38289
 =======================================================================
   * Total *    0.00000     17.99483    40.74999    0.25518    59.00000

 Normal termination of Gaussian 16 at Thu Dec 10 11:16:21 2020.
