 Gaussian 16, Revision A.03,

 -----------------------------------------------------------
 # opt freq B3LYP/6-31G(d) empiricaldispersion=gd3bj scf=xqc
 -----------------------------------------------------------

 -------------------------------
 CID_153554263_JID_3264_neutraal
 -------------------------------
 Symbolic Z-matrix:
 Charge =  0 Multiplicity = 1

 SCF Done:  E(RB3LYP) =  -558.215646341     A.U. after   14 cycles
 SCF Done:  E(RB3LYP) =  -558.219870988     A.U. after   12 cycles
 SCF Done:  E(RB3LYP) =  -558.220773086     A.U. after   12 cycles
 SCF Done:  E(RB3LYP) =  -558.221098418     A.U. after   12 cycles
 SCF Done:  E(RB3LYP) =  -558.221215284     A.U. after   11 cycles
 SCF Done:  E(RB3LYP) =  -558.221249683     A.U. after   10 cycles
 SCF Done:  E(RB3LYP) =  -558.221261953     A.U. after    9 cycles
 SCF Done:  E(RB3LYP) =  -558.221266948     A.U. after    9 cycles
 SCF Done:  E(RB3LYP) =  -558.221276177     A.U. after    9 cycles
 SCF Done:  E(RB3LYP) =  -558.221280640     A.U. after    9 cycles
 SCF Done:  E(RB3LYP) =  -558.221281928     A.U. after    8 cycles
 SCF Done:  E(RB3LYP) =  -558.221282065     A.U. after    7 cycles
 SCF Done:  E(RB3LYP) =  -558.221282124     A.U. after    7 cycles
 SCF Done:  E(RB3LYP) =  -558.221282200     A.U. after    6 cycles
 Optimization completed.
    -- Stationary point found.
 Normal termination of Gaussian 16 at Wed Dec  9 22:31:02 2020.

 --------------------------------------------------------------------
 #N Geom=AllCheck Guess=TCheck SCRF=Check GenChk RB3LYP/6-31G(d) Freq
 --------------------------------------------------------------------

 Structure from the checkpoint file:  "JID_3264.chk"
 -------------------------------
 CID_153554263_JID_3264_neutraal
 -------------------------------
 Charge =  0 Multiplicity = 1

 SCF Done:  E(RB3LYP) =  -558.221282200     A.U. after    1 cycles

  Exact polarizability: 195.943   7.985 129.535  -3.035  -1.704  70.839
 Approx polarizability: 266.011  17.519 211.142  -5.289  -2.557 105.948

                      1                      2                      3
                      A                      A                      A
 Frequencies --     43.2514                73.2949               112.3630
 Red. masses --      3.0211                 3.4118                 1.0948
 Frc consts  --      0.0033                 0.0108                 0.0081
 IR Inten    --      0.0194                 1.8313                 0.8307

                      4                      5                      6
                      A                      A                      A
 Frequencies --    119.8899               121.8321               145.5885
 Red. masses --      2.4619                 1.9719                 1.2900
 Frc consts  --      0.0208                 0.0172                 0.0161
 IR Inten    --      0.1748                 1.9519                 1.7038

                      7                      8                      9
                      A                      A                      A
 Frequencies --    161.6476               176.0682               195.8421
 Red. masses --      1.9382                 1.1470                 1.4217
 Frc consts  --      0.0298                 0.0209                 0.0321
 IR Inten    --      0.2526                 0.1612                 1.2227

                     10                     11                     12
                      A                      A                      A
 Frequencies --    211.4160               253.4167               284.9250
 Red. masses --      2.8403                 2.9613                 3.3167
 Frc consts  --      0.0748                 0.1120                 0.1586
 IR Inten    --      3.5954                 0.9506                 0.0690

                     13                     14                     15
                      A                      A                      A
 Frequencies --    326.0524               353.9181               363.8967
 Red. masses --      3.6265                 3.1295                 3.7433
 Frc consts  --      0.2272                 0.2310                 0.2921
 IR Inten    --      1.0375                 0.0507                 2.7111

                     16                     17                     18
                      A                      A                      A
 Frequencies --    439.0795               460.0853               509.7641
 Red. masses --      3.9760                 3.9947                 3.2090
 Frc consts  --      0.4516                 0.4982                 0.4913
 IR Inten    --      1.0867                 0.5497                 2.8986

                     19                     20                     21
                      A                      A                      A
 Frequencies --    538.9070               561.0362               617.5282
 Red. masses --      5.0260                 3.4184                 2.9270
 Frc consts  --      0.8600                 0.6340                 0.6576
 IR Inten    --      6.7222                 4.6712                 1.2819

                     22                     23                     24
                      A                      A                      A
 Frequencies --    627.0525               708.0115               768.8446
 Red. masses --      3.8064                 4.5504                 6.2347
 Frc consts  --      0.8818                 1.3440                 2.1714
 IR Inten    --      8.1188                 2.2944                 6.6865

                     25                     26                     27
                      A                      A                      A
 Frequencies --    788.7771               867.2802               886.1641
 Red. masses --      4.9209                 1.2188                 3.4819
 Frc consts  --      1.8038                 0.5401                 1.6110
 IR Inten    --     12.9485                21.3851                 3.6048

                     28                     29                     30
                      A                      A                      A
 Frequencies --    930.9934               942.4488               984.2823
 Red. masses --      1.5179                 1.3362                 2.1977
 Frc consts  --      0.7751                 0.6993                 1.2545
 IR Inten    --      9.0124                 1.1170                 0.0797

                     31                     32                     33
                      A                      A                      A
 Frequencies --   1023.6020              1040.5474              1063.5448
 Red. masses --      1.6773                 1.6379                 6.9508
 Frc consts  --      1.0355                 1.0449                 4.6323
 IR Inten    --      9.9767                17.9848                66.3214

                     34                     35                     36
                      A                      A                      A
 Frequencies --   1072.2763              1076.9288              1078.2027
 Red. masses --      1.5317                 1.4760                 1.4842
 Frc consts  --      1.0376                 1.0086                 1.0166
 IR Inten    --      2.2314                 2.8338                 2.4216

                     37                     38                     39
                      A                      A                      A
 Frequencies --   1102.5943              1154.7123              1186.2460
 Red. masses --      1.9858                 2.0533                 1.2683
 Frc consts  --      1.4224                 1.6131                 1.0515
 IR Inten    --      3.3933                 4.0716                 0.6719

                     40                     41                     42
                      A                      A                      A
 Frequencies --   1204.0640              1211.4836              1298.0259
 Red. masses --      3.2468                 1.4793                 2.2857
 Frc consts  --      2.7734                 1.2792                 2.2690
 IR Inten    --     55.0378                16.1838                10.6635

                     43                     44                     45
                      A                      A                      A
 Frequencies --   1316.3685              1345.9101              1354.8148
 Red. masses --      5.1431                 1.8448                 3.2255
 Frc consts  --      5.2509                 1.9690                 3.4883
 IR Inten    --    124.9838                 9.5771               110.7937

                     46                     47                     48
                      A                      A                      A
 Frequencies --   1392.9818              1433.3768              1445.2824
 Red. masses --      1.4608                 1.5730                 1.2532
 Frc consts  --      1.6700                 1.9042                 1.5424
 IR Inten    --     10.0277                11.4646                 2.1187

                     49                     50                     51
                      A                      A                      A
 Frequencies --   1449.3431              1455.2253              1478.6834
 Red. masses --      1.3702                 2.0902                 1.6650
 Frc consts  --      1.6958                 2.6079                 2.1449
 IR Inten    --     26.0675               156.0360                25.0466

                     52                     53                     54
                      A                      A                      A
 Frequencies --   1506.5656              1508.6314              1511.2132
 Red. masses --      1.0443                 1.0491                 1.0478
 Frc consts  --      1.3966                 1.4068                 1.4099
 IR Inten    --      4.5967                 5.2509                 0.6931

                     55                     56                     57
                      A                      A                      A
 Frequencies --   1514.7777              1515.4400              1521.2404
 Red. masses --      1.1976                 1.0870                 1.0482
 Frc consts  --      1.6191                 1.4708                 1.4292
 IR Inten    --     30.5128                21.3576                 7.9228

                     58                     59                     60
                      A                      A                      A
 Frequencies --   1527.5850              1530.3385              1544.2513
 Red. masses --      1.0598                 1.0865                 1.6460
 Frc consts  --      1.4571                 1.4992                 2.3127
 IR Inten    --     26.6025                11.3161               122.7248

                     61                     62                     63
                      A                      A                      A
 Frequencies --   1621.8645              1665.1203              1729.0770
 Red. masses --      6.5862                 5.7582                 5.9553
 Frc consts  --     10.2074                 9.4065                10.4901
 IR Inten    --     19.4976                59.4652                 3.9998

                     64                     65                     66
                      A                      A                      A
 Frequencies --   3031.5062              3044.5430              3050.4473
 Red. masses --      1.0416                 1.0443                 1.0357
 Frc consts  --      5.6397                 5.7032                 5.6783
 IR Inten    --     53.0768                16.5074                28.0448

                     67                     68                     69
                      A                      A                      A
 Frequencies --   3063.4961              3071.3315              3094.8515
 Red. masses --      1.0295                 1.0994                 1.0965
 Frc consts  --      5.6929                 6.1105                 6.1880
 IR Inten    --     60.6618                24.7071                20.0425

                     70                     71                     72
                      A                      A                      A
 Frequencies --   3104.5299              3130.6781              3132.9504
 Red. masses --      1.1005                 1.1032                 1.1068
 Frc consts  --      6.2491                 6.3705                 6.4008
 IR Inten    --     14.9374                16.4192                27.6120

                     73                     74                     75
                      A                      A                      A
 Frequencies --   3135.6551              3155.2017              3161.2491
 Red. masses --      1.0954                 1.0922                 1.0909
 Frc consts  --      6.3455                 6.4065                 6.4235
 IR Inten    --      8.1975                10.7566                54.3020

                     76                     77                     78
                      A                      A                      A
 Frequencies --   3166.4848              3192.1387              3194.6369
 Red. masses --      1.1065                 1.0895                 1.0896
 Frc consts  --      6.5367                 6.5411                 6.5516
 IR Inten    --     28.7143                25.7884                 8.2958

 - Thermochemistry -
 -------------------
 Temperature   298.150 Kelvin.  Pressure   1.00000 Atm.
 Atom     1 has atomic number  6 and mass  12.00000

 Molecular mass:   177.11536 amu.
 Principal axes and moments of inertia in atomic units:
                           1         2         3
     Eigenvalues --  1018.296334393.238985274.53613
           X            1.00000  -0.00141   0.00001
           Y            0.00141   0.99999  -0.00427
           Z            0.00000   0.00427   0.99999
 This molecule is an asymmetric top.
 Rotational symmetry number  1.
 Warning -- assumption of classical behavior for rotation
           may cause significant error
 Rotational temperatures (Kelvin)      0.08506     0.01972     0.01642
 Rotational constants (GHZ):           1.77231     0.41080     0.34216
 Zero-point vibrational energy     629138.1 (Joules/Mol)
                                  150.36761 (Kcal/Mol)
 Warning -- explicit consideration of  21 degrees of freedom as
           vibrations may cause significant error
 Vibrational temperatures:     62.23   105.45   161.67   172.49   175.29
          (Kelvin)            209.47   232.57   253.32   281.77   304.18
                              364.61   409.94   469.12   509.21   523.57
                              631.74   661.96   733.44   775.37   807.21
                              888.49   902.19  1018.67  1106.20  1134.87
                             1247.82  1274.99  1339.49  1355.97  1416.16
                             1472.73  1497.12  1530.20  1542.77  1549.46
                             1551.29  1586.39  1661.37  1706.74  1732.38
                             1743.05  1867.57  1893.96  1936.46  1949.28
                             2004.19  2062.31  2079.44  2085.28  2093.74
                             2127.50  2167.61  2170.58  2174.30  2179.43
                             2180.38  2188.73  2197.85  2201.82  2221.83
                             2333.50  2395.74  2487.76  4361.66  4380.42
                             4388.91  4407.69  4418.96  4452.80  4466.73
                             4504.35  4507.62  4511.51  4539.63  4548.33
                             4555.87  4592.78  4596.37

 Zero-point correction=                           0.239626 (Hartree/Particle)
 Thermal correction to Energy=                    0.253542
 Thermal correction to Enthalpy=                  0.254486
 Thermal correction to Gibbs Free Energy=         0.199075
 Sum of electronic and zero-point Energies=           -557.981656
 Sum of electronic and thermal Energies=              -557.967740
 Sum of electronic and thermal Enthalpies=            -557.966796
 Sum of electronic and thermal Free Energies=         -558.022207

                     E (Thermal)             CV                S
                      KCal/Mol        Cal/Mol-Kelvin    Cal/Mol-Kelvin
 Total                  159.100             50.873            116.622
 Electronic               0.000              0.000              0.000
 Translational            0.889              2.981             41.422
 Rotational               0.889              2.981             31.534
 Vibrational            157.322             44.911             43.666
 Vibration     1          0.595              1.980              5.104
 Vibration     2          0.599              1.967              4.063
 Vibration     3          0.607              1.939              3.228
 Vibration     4          0.609              1.933              3.102
 Vibration     5          0.609              1.931              3.071
 Vibration     6          0.617              1.907              2.729
 Vibration     7          0.622              1.889              2.530
 Vibration     8          0.628              1.872              2.370
 Vibration     9          0.636              1.846              2.172
 Vibration    10          0.643              1.823              2.031
 Vibration    11          0.665              1.757              1.707
 Vibration    12          0.683              1.702              1.504
 Vibration    13          0.710              1.623              1.280
 Vibration    14          0.730              1.567              1.149
 Vibration    15          0.737              1.547              1.105
 Vibration    16          0.799              1.385              0.830
 Vibration    17          0.818              1.339              0.766
 Vibration    18          0.865              1.228              0.634
 Vibration    19          0.894              1.164              0.568
 Vibration    20          0.917              1.116              0.522
 Vibration    21          0.977              0.995              0.420

                           ! Non-Optimized Parameters !
 Normal termination of Gaussian 16 at Wed Dec  9 22:38:09 2020.

 ----------------------------------------------------------------------
 # B3LYP/6-311++G(d,p) empiricaldispersion=gd3bj scf=xqc pop=npa geom=c
 heck
 ----------------------------------------------------------------------

 ---------------------------------------
 CID_153554263_JID_3264_Energie_neutraal
 ---------------------------------------
 Structure from the checkpoint file:  "JID_3264.chk"
 Charge =  0 Multiplicity = 1

 SCF Done:  E(RB3LYP) =  -558.370348095     A.U. after   15 cycles
 Normal termination of Gaussian 16 at Wed Dec  9 22:41:35 2020.

 ----------------------------------------------------------------------
 # B3LYP/6-311++G(d,p) empiricaldispersion=gd3bj scf=xqc pop=npa geom=c
 heck
 ----------------------------------------------------------------------

 -------------------------------------
 CID_153554263_JID_3264_Energie_kation
 -------------------------------------
 Structure from the checkpoint file:  "JID_3264.chk"
 Charge =  1 Multiplicity = 2

 SCF Done:  E(UB3LYP) =  -558.094390678     A.U. after   21 cycles
 Normal termination of Gaussian 16 at Wed Dec  9 22:48:23 2020.
 Gaussian 16:  ES64L-G16RevA.03 25-Dec-2016

 ----------------------------------------------------------------------
 # B3LYP/6-311++G(d,p) empiricaldispersion=gd3bj scf=xqc pop=npa geom=c
 heck
 ----------------------------------------------------------------------

 ------------------------------------
 CID_153554263_JID_3264_Energie_anion
 ------------------------------------
 Structure from the checkpoint file:  "JID_3264.chk"
 Charge = -1 Multiplicity = 2

                         Standard orientation:
 ---------------------------------------------------------------------
 Center     Atomic      Atomic             Coordinates (Angstroms)
 Number     Number       Type             X           Y           Z
 ---------------------------------------------------------------------
      1          6           0        4.570562    0.716288   -0.373374
      2          6           0        3.072212    0.653806   -0.342693
      3          6           0        2.285775   -0.355690    0.076067
      4          6           0        2.823068   -1.678678    0.572023
      5          6           0        0.808151   -0.217580    0.046809
      6          6           0       -0.031084   -1.323564   -0.101336
      7          7           0       -1.371545   -1.254726   -0.148280
      8          6           0       -1.934880   -0.062249   -0.038466
      9          6           0       -1.216871    1.143538    0.136362
     10          6           0        0.161662    1.030303    0.180937
     11          6           0       -1.941939    2.452129    0.283816
     12          8           0       -3.285137    0.045572   -0.079189
     13          6           0       -4.021791   -1.167613   -0.239339
     14          1           0        5.051351   -0.152556    0.082076
     15          1           0        4.930872    1.611977    0.150499
     16          1           0        4.936141    0.793721   -1.406800
     17          1           0        2.581866    1.543895   -0.734616
     18          1           0        2.643986   -2.479572   -0.157226
     19          1           0        3.897992   -1.646628    0.756949
     20          1           0        2.325832   -1.978185    1.501727
     21          1           0        0.382059   -2.323649   -0.200919
     22          1           0        0.754707    1.924880    0.349243
     23          1           0       -2.551156    2.667350   -0.601745
     24          1           0       -2.629749    2.429377    1.136952
     25          1           0       -1.236171    3.275761    0.427752
     26          1           0       -5.071338   -0.868664   -0.245990
     27          1           0       -3.758865   -1.665292   -1.177578
     28          1           0       -3.824815   -1.858049    0.586305
 ---------------------------------------------------------------------

 SCF Done:  E(UB3LYP) =  -558.354498747     A.U. after   33 cycles
 SCF Done:  E(UB3LYP) =  -558.354498746     a.u. after    1 cycles

 The electronic state is 2-A.
 Alpha  occ. eigenvalues --  -19.06039 -14.20825 -10.15935 -10.12396 -10.10210
 Alpha  occ. eigenvalues --  -10.08918 -10.08418 -10.08088 -10.07950 -10.07319
 Alpha  occ. eigenvalues --  -10.06605 -10.06521 -10.06367  -0.98298  -0.83985
 Alpha  occ. eigenvalues --   -0.73228  -0.71095  -0.66584  -0.62885  -0.61633
 Alpha  occ. eigenvalues --   -0.59247  -0.56483  -0.51664  -0.50697  -0.43973
 Alpha  occ. eigenvalues --   -0.42662  -0.41250  -0.38840  -0.37948  -0.34391
 Alpha  occ. eigenvalues --   -0.33724  -0.32977  -0.32428  -0.32228  -0.31263
 Alpha  occ. eigenvalues --   -0.30386  -0.29364  -0.29082  -0.28690  -0.28099
 Alpha  occ. eigenvalues --   -0.26888  -0.25350  -0.23748  -0.23396  -0.19005
 Alpha  occ. eigenvalues --   -0.17139  -0.15724  -0.11400   0.04448
 Alpha virt. eigenvalues --    0.05999   0.06820   0.06908   0.07386   0.07917
 Alpha virt. eigenvalues --    0.08641   0.09212   0.09857   0.10118   0.10500
 Alpha virt. eigenvalues --    0.10765   0.11645   0.11939   0.12731   0.13065

  Beta  occ. eigenvalues --  -19.06028 -14.20829 -10.15910 -10.12371 -10.10187
  Beta  occ. eigenvalues --  -10.08920 -10.08405 -10.08074 -10.07948 -10.07296
  Beta  occ. eigenvalues --  -10.06567 -10.06485 -10.06326  -0.98273  -0.83968
  Beta  occ. eigenvalues --   -0.73188  -0.71064  -0.66531  -0.62825  -0.61586
  Beta  occ. eigenvalues --   -0.59197  -0.56414  -0.51623  -0.50640  -0.43942
  Beta  occ. eigenvalues --   -0.42603  -0.41209  -0.38804  -0.37903  -0.34352
  Beta  occ. eigenvalues --   -0.33684  -0.32932  -0.32391  -0.32180  -0.31214
  Beta  occ. eigenvalues --   -0.30326  -0.29333  -0.29038  -0.28642  -0.28058
  Beta  occ. eigenvalues --   -0.26849  -0.25315  -0.23690  -0.23346  -0.18951
  Beta  occ. eigenvalues --   -0.17122  -0.15649  -0.11275
  Beta virt. eigenvalues --    0.06419   0.06949   0.06991   0.07456   0.07607
  Beta virt. eigenvalues --    0.08467   0.09181   0.09590   0.10222   0.10590
  Beta virt. eigenvalues --    0.10851   0.11265   0.11773   0.12195   0.13027

 Mulliken charges and spin densities:
               1          2
     1  C    2.102316  -2.897666
     2  C   -0.870736   0.068253
     3  C    0.237970   0.446528
     4  C    0.355653  -1.010889
     5  C    0.466132   0.300762
     6  C   -0.712186   0.201204
     7  N   -0.081216   0.054149
     8  C   -2.162496   1.306596
     9  C   -0.511622   1.047668
    10  C    0.925066  -0.755217
    11  C    1.421284  -1.825870
    12  O   -0.181041   0.045369
    13  C    0.484250  -0.771035
    14  H   -0.149183   0.267910
    15  H   -0.450574   0.601857
    16  H   -0.218045   0.366077
    17  H   -0.185367   0.319555
    18  H   -0.122814   0.274497
    19  H   -0.248268   0.371690
    20  H   -0.035068   0.184316
    21  H   -0.097908   0.297038
    22  H   -0.151775   0.299762
    23  H   -0.073296   0.248615
    24  H   -0.053543   0.221166
    25  H   -0.273535   0.424529
    26  H   -0.313075   0.461451
    27  H   -0.028442   0.203461
    28  H   -0.072481   0.248221
 Sum of Mulliken charges =  -1.00000   1.00000

 Dipole moment (field-independent basis, Debye):
    X=             -3.3625    Y=             -1.3309    Z=              0.3605  Tot=              3.6342
 Quadrupole moment (field-independent basis, Debye-Ang):
   XX=           -174.7549   YY=           -123.4377   ZZ=           -105.0791
   XY=             -3.6511   XZ=              0.7615   YZ=             -0.2716

 Summary of Natural Population Analysis:

                                       Natural Population
                Natural  -----------------------------------------------
    Atom  No    Charge         Core      Valence    Rydberg      Total
 -----------------------------------------------------------------------
      C    1   -0.29810      0.99965     2.29362    0.00483     3.29810
      C    2   -0.07603      0.99948     2.06700    0.00954     3.07603
      C    3   -0.02317      0.99946     2.01292    0.01078     3.02317
      C    4   -0.29629      0.99963     2.29159    0.00507     3.29629
      C    5   -0.05260      0.99948     2.04288    0.01024     3.05260
      C    6    0.03641      0.99954     1.95160    0.01246     2.96359
      N    7   -0.26536      0.99966     2.75515    0.01055     3.76536
      C    8    0.27309      0.99940     1.71193    0.01558     2.72691
      C    9   -0.04640      0.99948     2.03813    0.00878     3.04640
      C   10   -0.07005      0.99949     2.06099    0.00956     3.07005
      C   11   -0.29009      0.99964     2.28519    0.00526     3.29009
      O   12   -0.27455      0.99986     3.26517    0.00952     4.27455
      C   13   -0.09975      0.99959     2.09180    0.00835     3.09975
      H   14    0.09968      0.00000     0.39880    0.00152     0.40032
      H   15    0.10479      0.00000     0.39260    0.00260     0.39521
      H   16    0.10260      0.00000     0.39586    0.00153     0.39740
      H   17    0.09233      0.00000     0.40600    0.00167     0.40767
      H   18    0.10325      0.00000     0.39476    0.00198     0.39675
      H   19    0.10411      0.00000     0.39476    0.00113     0.39589
      H   20    0.10177      0.00000     0.39669    0.00154     0.39823
      H   21    0.09129      0.00000     0.40713    0.00158     0.40871
      H   22    0.10306      0.00000     0.39552    0.00143     0.39694
      H   23    0.10641      0.00000     0.39184    0.00175     0.39359
      H   24    0.10641      0.00000     0.39179    0.00180     0.39359
      H   25    0.10136      0.00000     0.39738    0.00127     0.39864
      H   26    0.08845      0.00000     0.40999    0.00155     0.41155
      H   27    0.08834      0.00000     0.40967    0.00199     0.41166
      H   28    0.08904      0.00000     0.40887    0.00209     0.41096
 =======================================================================
   * Total *    0.00000     12.99437    34.85966    0.14598    48.00000

 Normal termination of Gaussian 16 at Wed Dec  9 22:59:21 2020.
