 Gaussian 16, Revision A.03,

 -----------------------------------------------------------
 # opt freq B3LYP/6-31G(d) empiricaldispersion=gd3bj scf=xqc
 -----------------------------------------------------------

 ------------------------------
 CID_82083926_JID_6629_neutraal
 ------------------------------
 Symbolic Z-matrix:
 Charge =  0 Multiplicity = 1

 SCF Done:  E(RB3LYP) =  -1035.07227390     A.U. after   15 cycles
 SCF Done:  E(RB3LYP) =  -1035.07457626     A.U. after   13 cycles
 SCF Done:  E(RB3LYP) =  -1035.07476592     A.U. after   13 cycles
 SCF Done:  E(RB3LYP) =  -1035.07545778     A.U. after   12 cycles
 SCF Done:  E(RB3LYP) =  -1035.07516834     A.U. after   12 cycles
 SCF Done:  E(RB3LYP) =  -1035.07552726     A.U. after   12 cycles
 SCF Done:  E(RB3LYP) =  -1035.07562239     A.U. after   11 cycles
 SCF Done:  E(RB3LYP) =  -1035.07562770     A.U. after   10 cycles
 SCF Done:  E(RB3LYP) =  -1035.07563144     A.U. after    9 cycles
 SCF Done:  E(RB3LYP) =  -1035.07563358     A.U. after   10 cycles
 SCF Done:  E(RB3LYP) =  -1035.07566085     A.U. after   11 cycles
 SCF Done:  E(RB3LYP) =  -1035.07567026     A.U. after   11 cycles
 SCF Done:  E(RB3LYP) =  -1035.07567053     A.U. after    8 cycles
 SCF Done:  E(RB3LYP) =  -1035.07566958     A.U. after    9 cycles
 SCF Done:  E(RB3LYP) =  -1035.07567061     A.U. after    9 cycles
 Optimization completed.
    -- Stationary point found.
 Normal termination of Gaussian 16 at Fri Dec 11 00:10:10 2020.

 --------------------------------------------------------------------
 #N Geom=AllCheck Guess=TCheck SCRF=Check GenChk RB3LYP/6-31G(d) Freq
 --------------------------------------------------------------------

 Structure from the checkpoint file:  "JID_6629.chk"
 ------------------------------
 CID_82083926_JID_6629_neutraal
 ------------------------------
 Charge =  0 Multiplicity = 1

 SCF Done:  E(RB3LYP) =  -1035.07567061     A.U. after    1 cycles

  Exact polarizability: 174.442  16.902 141.000   1.166  -6.779 139.543
 Approx polarizability: 241.714  29.937 204.388   4.331 -19.705 248.794

                      1                      2                      3
                      A                      A                      A
 Frequencies --     36.3019                40.9580                66.7878
 Red. masses --      6.0968                 4.6708                 3.6754
 Frc consts  --      0.0047                 0.0046                 0.0097
 IR Inten    --      1.6914                 4.0604                 1.6452

                      4                      5                      6
                      A                      A                      A
 Frequencies --     71.6872                82.1937                94.4675
 Red. masses --      5.0092                 4.7746                 5.1324
 Frc consts  --      0.0152                 0.0190                 0.0270
 IR Inten    --      1.4072                 0.9815                 1.5582

                      7                      8                      9
                      A                      A                      A
 Frequencies --    165.7699               187.1534               209.5080
 Red. masses --      3.6309                 5.6347                 3.7040
 Frc consts  --      0.0588                 0.1163                 0.0958
 IR Inten    --      1.8302                 1.6872                10.5312

                     10                     11                     12
                      A                      A                      A
 Frequencies --    233.0480               257.7505               271.3020
 Red. masses --      1.8012                 1.2867                 4.1943
 Frc consts  --      0.0576                 0.0504                 0.1819
 IR Inten    --     19.7294               172.1366                 5.9394

                     13                     14                     15
                      A                      A                      A
 Frequencies --    303.3353               326.8038               379.1773
 Red. masses --      3.3379                 1.9615                 3.4167
 Frc consts  --      0.1810                 0.1234                 0.2894
 IR Inten    --      2.2847                 1.4596                 0.3629

                     16                     17                     18
                      A                      A                      A
 Frequencies --    428.8261               440.6012               449.5713
 Red. masses --      2.0160                 2.8567                 2.5856
 Frc consts  --      0.2184                 0.3267                 0.3079
 IR Inten    --      0.8561                 0.9647                 1.8576

                     19                     20                     21
                      A                      A                      A
 Frequencies --    489.5220               520.1760               544.5965
 Red. masses --      1.9626                 2.9888                 2.4720
 Frc consts  --      0.2771                 0.4765                 0.4320
 IR Inten    --      0.6280                 3.7188                 9.4482

                     22                     23                     24
                      A                      A                      A
 Frequencies --    556.6000               591.0502               610.1332
 Red. masses --      2.3361                 1.9672                 3.4832
 Frc consts  --      0.4264                 0.4049                 0.7640
 IR Inten    --      5.6364                11.0507                 3.7440

                     25                     26                     27
                      A                      A                      A
 Frequencies --    646.3955               672.1200               703.1349
 Red. masses --      3.1292                 4.1443                 1.2042
 Frc consts  --      0.7703                 1.1030                 0.3508
 IR Inten    --      6.4712                 1.1465                54.4951

                     28                     29                     30
                      A                      A                      A
 Frequencies --    743.9582               755.0463               803.4056
 Red. masses --      3.2577                 6.7817                 2.1640
 Frc consts  --      1.0623                 2.2779                 0.8229
 IR Inten    --      4.2807                 0.6844                 0.9470

                     31                     32                     33
                      A                      A                      A
 Frequencies --    804.8002               835.3945               849.4057
 Red. masses --      1.5491                 1.3296                 3.5271
 Frc consts  --      0.5912                 0.5467                 1.4993
 IR Inten    --      0.3005                 7.2709                 3.4573

                     34                     35                     36
                      A                      A                      A
 Frequencies --    863.4212               868.7652               903.7951
 Red. masses --      2.5842                 2.5639                 1.3229
 Frc consts  --      1.1351                 1.1401                 0.6367
 IR Inten    --      5.0488                 4.2563                 0.3369

                     37                     38                     39
                      A                      A                      A
 Frequencies --    910.4271               913.8420               938.8637
 Red. masses --      1.9308                 2.0388                 1.9096
 Frc consts  --      0.9429                 1.0031                 0.9917
 IR Inten    --      3.0529                 0.1582                 0.0988

                     40                     41                     42
                      A                      A                      A
 Frequencies --    943.0280               975.2103              1020.1773
 Red. masses --      1.9345                 2.1698                 2.5338
 Frc consts  --      1.0136                 1.2158                 1.5537
 IR Inten    --      1.4768                 3.2127                 2.3854

                     43                     44                     45
                      A                      A                      A
 Frequencies --   1055.0354              1065.9038              1076.2651
 Red. masses --      1.8376                 1.6949                 1.5799
 Frc consts  --      1.2051                 1.1346                 1.0782
 IR Inten    --      1.7018                 2.6234                 2.5452

                     46                     47                     48
                      A                      A                      A
 Frequencies --   1082.0321              1107.1044              1111.3326
 Red. masses --      1.6141                 1.2093                 2.4403
 Frc consts  --      1.1134                 0.8733                 1.7758
 IR Inten    --      7.9269                 1.3531                 0.4062

                     49                     50                     51
                      A                      A                      A
 Frequencies --   1116.8394              1128.1670              1159.7326
 Red. masses --      1.2817                 2.1853                 1.8635
 Frc consts  --      0.9419                 1.6387                 1.4767
 IR Inten    --      0.8006                 1.8546                 0.5743

                     52                     53                     54
                      A                      A                      A
 Frequencies --   1182.6677              1217.7933              1234.8279
 Red. masses --      2.6806                 1.3901                 1.4190
 Frc consts  --      2.2090                 1.2146                 1.2748
 IR Inten    --      2.1475                 5.5655                 3.3834

                     55                     56                     57
                      A                      A                      A
 Frequencies --   1253.8752              1257.3797              1299.5297
 Red. masses --      1.4596                 1.5442                 1.3818
 Frc consts  --      1.3521                 1.4384                 1.3749
 IR Inten    --      9.9644                23.6606                17.1384

                     58                     59                     60
                      A                      A                      A
 Frequencies --   1304.5068              1309.8821              1327.4992
 Red. masses --      1.2319                 1.2552                 1.3160
 Frc consts  --      1.2351                 1.2689                 1.3664
 IR Inten    --      3.3849                13.7451                 7.9602

                     61                     62                     63
                      A                      A                      A
 Frequencies --   1351.7012              1357.3275              1377.8110
 Red. masses --      1.5464                 1.3175                 1.5614
 Frc consts  --      1.6646                 1.4301                 1.7464
 IR Inten    --     26.5674                 4.9561                17.9425

                     64                     65                     66
                      A                      A                      A
 Frequencies --   1386.9164              1397.0989              1403.0847
 Red. masses --      1.4092                 1.4474                 1.5313
 Frc consts  --      1.5970                 1.6645                 1.7761
 IR Inten    --      0.1899                 3.1900                 1.9017

                     67                     68                     69
                      A                      A                      A
 Frequencies --   1404.6942              1407.7570              1415.6890
 Red. masses --      1.5081                 1.6032                 1.7178
 Frc consts  --      1.7533                 1.8719                 2.0284
 IR Inten    --      3.7778                 7.0425                 4.2581

                     70                     71                     72
                      A                      A                      A
 Frequencies --   1425.7778              1503.3951              1511.1693
 Red. masses --      1.6404                 4.7587                 1.1610
 Frc consts  --      1.9648                 6.3370                 1.5621
 IR Inten    --      1.4425                10.7921                 9.9991

                     73                     74                     75
                      A                      A                      A
 Frequencies --   1511.8551              1515.8558              1518.0099
 Red. masses --      1.0891                 1.0951                 1.0946
 Frc consts  --      1.4667                 1.4826                 1.4862
 IR Inten    --      3.6699                 1.7000                 2.2283

                     76                     77                     78
                      A                      A                      A
 Frequencies --   1523.5899              1537.6092              1602.2490
 Red. masses --      1.0895                 1.1005                 5.3946
 Frc consts  --      1.4901                 1.5329                 8.1596
 IR Inten    --      8.7877                 1.0444                 0.2764

                     79                     80                     81
                      A                      A                      A
 Frequencies --   1645.2951              1808.8919              3013.1323
 Red. masses --      1.2349                 8.7104                 1.0710
 Frc consts  --      1.9696                16.7924                 5.7292
 IR Inten    --     91.2895               276.0456                15.1777

                     82                     83                     84
                      A                      A                      A
 Frequencies --   3016.5552              3017.4716              3019.1325
 Red. masses --      1.0744                 1.0728                 1.0701
 Frc consts  --      5.7605                 5.7549                 5.7472
 IR Inten    --     14.9209                 7.5853                16.3071

                     85                     86                     87
                      A                      A                      A
 Frequencies --   3024.6839              3029.5222              3036.7680
 Red. masses --      1.0674                 1.0635                 1.0785
 Frc consts  --      5.7534                 5.7507                 5.8601
 IR Inten    --      9.9542                16.8478                41.3676

                     88                     89                     90
                      A                      A                      A
 Frequencies --   3058.0939              3071.5735              3073.3168
 Red. masses --      1.0914                 1.0722                 1.0967
 Frc consts  --      6.0135                 5.9601                 6.1031
 IR Inten    --     66.1722                50.9212                59.5158

                     91                     92                     93
                      A                      A                      A
 Frequencies --   3075.4650              3080.2734              3107.0708
 Red. masses --      1.0930                 1.1036                 1.0920
 Frc consts  --      6.0912                 6.1696                 6.2109
 IR Inten    --     57.7293                75.7986                26.8305

                     94                     95                     96
                      A                      A                      A
 Frequencies --   3141.2066              3207.1572              3226.4617
 Red. masses --      1.0971                 1.0898                 1.0938
 Frc consts  --      6.3783                 6.6043                 6.7090
 IR Inten    --     10.0816                 8.6020                10.5355

                     97                     98                     99
                      A                      A                      A
 Frequencies --   3270.3502              3588.1660              3716.2851
 Red. masses --      1.0971                 1.0454                 1.1041
 Frc consts  --      6.9134                 7.9301                 8.9838
 IR Inten    --      1.8775                24.4106                37.6842

 - Thermochemistry -
 -------------------
 Temperature   298.150 Kelvin.  Pressure   1.00000 Atm.
 Atom     1 has atomic number  6 and mass  12.00000

 Molecular mass:   237.11874 amu.
 Principal axes and moments of inertia in atomic units:
                           1         2         3
     Eigenvalues --  2786.490594867.388216462.92276
           X            0.99993   0.00958  -0.00670
           Y           -0.00959   0.99995  -0.00219
           Z            0.00668   0.00226   0.99998
 This molecule is an asymmetric top.
 Rotational symmetry number  1.
 Warning -- assumption of classical behavior for rotation
           may cause significant error
 Rotational temperatures (Kelvin)      0.03108     0.01779     0.01340
 Rotational constants (GHZ):           0.64768     0.37078     0.27925
 Zero-point vibrational energy     796577.4 (Joules/Mol)
                                  190.38658 (Kcal/Mol)
 Warning -- explicit consideration of  24 degrees of freedom as
           vibrations may cause significant error
 Vibrational temperatures:     52.23    58.93    96.09   103.14   118.26
          (Kelvin)            135.92   238.51   269.27   301.44   335.30
                              370.85   390.34   436.43   470.20   545.55
                              616.99   633.93   646.83   704.31   748.42
                              783.55   800.82   850.39   877.85   930.02
                              967.03  1011.65  1070.39  1086.34  1155.92
                             1157.93  1201.95  1222.11  1242.27  1249.96
                             1300.36  1309.90  1314.81  1350.82  1356.81
                             1403.11  1467.81  1517.96  1533.60  1548.51
                             1556.80  1592.88  1598.96  1606.88  1623.18
                             1668.60  1701.60  1752.13  1776.64  1804.05
                             1809.09  1869.73  1876.89  1884.63  1909.98
                             1944.80  1952.89  1982.36  1995.46  2010.11
                             2018.73  2021.04  2025.45  2036.86  2051.38
                             2163.05  2174.24  2175.22  2180.98  2184.08
                             2192.11  2212.28  2305.28  2367.21  2602.59
                             4335.23  4340.15  4341.47  4343.86  4351.85
                             4358.81  4369.23  4399.92  4419.31  4421.82
                             4424.91  4431.83  4470.38  4519.50  4614.38
                             4642.16  4705.30  5162.57  5346.91

 Zero-point correction=                           0.303400 (Hartree/Particle)
 Thermal correction to Energy=                    0.319090
 Thermal correction to Enthalpy=                  0.320034
 Thermal correction to Gibbs Free Energy=         0.259453
 Sum of electronic and zero-point Energies=          -1034.772270
 Sum of electronic and thermal Energies=             -1034.756581
 Sum of electronic and thermal Enthalpies=           -1034.755636
 Sum of electronic and thermal Free Energies=        -1034.816217

                     E (Thermal)             CV                S
                      KCal/Mol        Cal/Mol-Kelvin    Cal/Mol-Kelvin
 Total                  200.232             60.907            127.503
 Electronic               0.000              0.000              0.000
 Translational            0.889              2.981             42.292
 Rotational               0.889              2.981             32.838
 Vibrational            198.455             54.946             52.373
 Vibration     1          0.594              1.982              5.451
 Vibration     2          0.594              1.981              5.212
 Vibration     3          0.598              1.970              4.246
 Vibration     4          0.598              1.968              4.106
 Vibration     5          0.600              1.961              3.838
 Vibration     6          0.603              1.953              3.565
 Vibration     7          0.624              1.885              2.483
 Vibration     8          0.632              1.857              2.256
 Vibration     9          0.642              1.826              2.048
 Vibration    10          0.654              1.790              1.855
 Vibration    11          0.667              1.750              1.677
 Vibration    12          0.675              1.726              1.588
 Vibration    13          0.695              1.667              1.398
 Vibration    14          0.710              1.622              1.276
 Vibration    15          0.749              1.515              1.042
 Vibration    16          0.790              1.407              0.862
 Vibration    17          0.800              1.382              0.825
 Vibration    18          0.808              1.362              0.797
 Vibration    19          0.845              1.273              0.685
 Vibration    20          0.875              1.205              0.610
 Vibration    21          0.900              1.152              0.555
 Vibration    22          0.912              1.125              0.531
 Vibration    23          0.948              1.051              0.465
 Vibration    24          0.969              1.010              0.433

 Optimization completed.
    -- Stationary point found.
 Normal termination of Gaussian 16 at Fri Dec 11 00:23:04 2020.

 ----------------------------------------------------------------------
 # B3LYP/6-311++G(d,p) empiricaldispersion=gd3bj scf=xqc pop=npa geom=c
 heck
 ----------------------------------------------------------------------

 --------------------------------------
 CID_82083926_JID_6629_Energie_neutraal
 --------------------------------------
 Structure from the checkpoint file:  "JID_6629.chk"
 Charge =  0 Multiplicity = 1

 SCF Done:  E(RB3LYP) =  -1035.28511555     A.U. after   16 cycles
 Normal termination of Gaussian 16 at Fri Dec 11 00:30:12 2020.

 ----------------------------------------------------------------------
 # B3LYP/6-311++G(d,p) empiricaldispersion=gd3bj scf=xqc pop=npa geom=c
 heck
 ----------------------------------------------------------------------

 ------------------------------------
 CID_82083926_JID_6629_Energie_kation
 ------------------------------------
 Structure from the checkpoint file:  "JID_6629.chk"
 Charge =  1 Multiplicity = 2

 SCF Done:  E(UB3LYP) =  -1034.98811383     A.U. after   26 cycles
 Normal termination of Gaussian 16 at Fri Dec 11 00:46:39 2020.
 Gaussian 16:  ES64L-G16RevA.03 25-Dec-2016

 ----------------------------------------------------------------------
 # B3LYP/6-311++G(d,p) empiricaldispersion=gd3bj scf=xqc pop=npa geom=c
 heck
 ----------------------------------------------------------------------

 -----------------------------------
 CID_82083926_JID_6629_Energie_anion
 -----------------------------------
 Structure from the checkpoint file:  "JID_6629.chk"
 Charge = -1 Multiplicity = 2

                         Standard orientation:
 ---------------------------------------------------------------------
 Center     Atomic      Atomic             Coordinates (Angstroms)
 Number     Number       Type             X           Y           Z
 ---------------------------------------------------------------------
      1          6           0        4.005490   -0.945488   -0.206132
      2          6           0        2.817699   -1.793459   -0.674157
      3          6           0        1.566344   -1.517950    0.167351
      4          6           0        1.180434   -0.026717    0.165300
      5          6           0        2.381202    0.810441    0.642503
      6          6           0        3.640328    0.542811   -0.194531
      7          6           0       -0.096099    0.204122    1.015634
      8          6           0       -0.517735    1.689014    1.219046
      9          6           0       -1.073129    2.412308   -0.004480
     10          8           0       -2.243259    2.748616   -0.092312
     11          7           0       -0.178082    2.642575   -1.021020
     12          6           0       -1.257083   -0.629465    0.538286
     13          6           0       -2.027178   -1.485196    1.281267
     14          6           0       -3.060399   -2.126800    0.531997
     15          6           0       -3.061182   -1.755231   -0.782711
     16         16           0       -1.804263   -0.608648   -1.124068
     17          1           0        4.879524   -1.117855   -0.846073
     18          1           0        4.292177   -1.253811    0.809864
     19          1           0        2.600407   -1.563869   -1.727453
     20          1           0        3.069109   -2.860271   -0.632596
     21          1           0        1.750155   -1.830528    1.206800
     22          1           0        0.727379   -2.119697   -0.194475
     23          1           0        0.957446    0.255437   -0.873539
     24          1           0        2.584366    0.568922    1.696784
     25          1           0        2.158121    1.884908    0.620532
     26          1           0        4.476436    1.141582    0.187165
     27          1           0        3.461279    0.876772   -1.227500
     28          1           0        0.136255   -0.163789    2.025300
     29          1           0       -1.319864    1.714411    1.958913
     30          1           0        0.327772    2.254910    1.627630
     31          1           0        0.816708    2.549185   -0.884821
     32          1           0       -0.500118    3.206219   -1.795799
     33          1           0       -1.855148   -1.652070    2.339835
     34          1           0       -3.766526   -2.832230    0.955874
     35          1           0       -3.726761   -2.077141   -1.571946
 ---------------------------------------------------------------------

 SCF Done:  E(UB3LYP) =  -1035.27472337     A.U. after   33 cycles
 SCF Done:  E(UB3LYP) =  -1035.27472337     a.u. after    1 cycles

 The electronic state is 2-A.
 Alpha  occ. eigenvalues --  -88.78087 -18.98997 -14.23109 -10.17508 -10.11120
 Alpha  occ. eigenvalues --  -10.10778 -10.10148 -10.08827 -10.08216 -10.08207
 Alpha  occ. eigenvalues --  -10.08036 -10.06866 -10.06763 -10.06629 -10.06618
 Alpha  occ. eigenvalues --  -10.06437  -7.86708  -5.82992  -5.82618  -5.82311
 Alpha  occ. eigenvalues --   -0.93989  -0.80500  -0.79226  -0.74647  -0.70546
 Alpha  occ. eigenvalues --   -0.64713  -0.64379  -0.64071  -0.63008  -0.56148
 Alpha  occ. eigenvalues --   -0.51495  -0.50502  -0.48370  -0.47274  -0.45817
 Alpha  occ. eigenvalues --   -0.44742  -0.43241  -0.41562  -0.38480  -0.36911
 Alpha  occ. eigenvalues --   -0.36322  -0.34556  -0.34214  -0.33400  -0.32208
 Alpha  occ. eigenvalues --   -0.31752  -0.31011  -0.30152  -0.29380  -0.28590
 Alpha  occ. eigenvalues --   -0.27438  -0.27317  -0.26094  -0.25568  -0.25410
 Alpha  occ. eigenvalues --   -0.24682  -0.23589  -0.22331  -0.20798  -0.20294
 Alpha  occ. eigenvalues --   -0.17638  -0.16183  -0.15887  -0.14130   0.04157
 Alpha virt. eigenvalues --    0.06079   0.06649   0.06777   0.06931   0.07937
 Alpha virt. eigenvalues --    0.08175   0.08977   0.09261   0.09822   0.10523
 Alpha virt. eigenvalues --    0.10611   0.11249   0.11683   0.12151   0.12238

  Beta  occ. eigenvalues --  -88.78083 -18.98987 -14.23060 -10.17493 -10.11117
  Beta  occ. eigenvalues --  -10.10770 -10.10139 -10.08825 -10.08197 -10.08197
  Beta  occ. eigenvalues --  -10.08032 -10.06856 -10.06727 -10.06620 -10.06603
  Beta  occ. eigenvalues --  -10.06408  -7.86703  -5.82987  -5.82615  -5.82306
  Beta  occ. eigenvalues --   -0.93963  -0.80433  -0.79208  -0.74619  -0.70514
  Beta  occ. eigenvalues --   -0.64669  -0.64357  -0.64038  -0.62979  -0.56108
  Beta  occ. eigenvalues --   -0.51430  -0.50450  -0.48287  -0.47241  -0.45769
  Beta  occ. eigenvalues --   -0.44701  -0.43196  -0.41532  -0.38419  -0.36876
  Beta  occ. eigenvalues --   -0.36286  -0.34521  -0.34180  -0.33366  -0.32171
  Beta  occ. eigenvalues --   -0.31729  -0.30991  -0.30128  -0.29344  -0.28548
  Beta  occ. eigenvalues --   -0.27413  -0.27284  -0.26058  -0.25539  -0.25388
  Beta  occ. eigenvalues --   -0.24638  -0.23552  -0.22290  -0.20759  -0.20256
  Beta  occ. eigenvalues --   -0.17583  -0.16166  -0.15862  -0.14105
  Beta virt. eigenvalues --    0.06101   0.06782   0.06843   0.07300   0.07610
  Beta virt. eigenvalues --    0.08253   0.08615   0.09385   0.09639   0.10170
  Beta virt. eigenvalues --    0.10776   0.11074   0.11622   0.11875   0.12349

 Mulliken charges and spin densities:
               1          2
     1  C   -0.130476  -0.304475
     2  C   -0.149177  -0.282819
     3  C   -0.017143  -0.448986
     4  C   -0.187474   0.015933
     5  C    0.131791  -0.499824
     6  C    0.650041  -1.051042
     7  C    0.206814  -0.270710
     8  C    0.997875  -1.564762
     9  C   -0.349268   0.255779
    10  O   -0.310627   0.023101
    11  N   -0.380032   0.011878
    12  C   -0.023699  -0.144119
    13  C    0.281103   1.060025
    14  C    0.109151  -0.912426
    15  C   -0.279922   0.394437
    16  S   -0.300325   0.034526
    17  H   -0.154669   0.324593
    18  H    0.030113   0.086123
    19  H   -0.064359   0.194400
    20  H   -0.010852   0.178465
    21  H   -0.145277   0.293648
    22  H    0.257499  -0.085477
    23  H    0.441531  -0.271046
    24  H   -0.113379   0.288026
    25  H   -0.321902   0.441671
    26  H   -0.509914   0.701392
    27  H   -0.214290   0.343807
    28  H   -0.043315   0.255385
    29  H    0.257100  -0.035780
    30  H   -0.292607   0.463336
    31  H    0.043857   0.239210
    32  H   -0.159027   0.465684
    33  H   -0.337507   0.517750
    34  H    0.019427   0.116030
    35  H    0.068940   0.166267
 Sum of Mulliken charges =  -1.00000   1.00000

 Dipole moment (field-independent basis, Debye):
    X=             -3.9288    Y=             -5.1877    Z=             -0.7053  Tot=              6.5456
 Quadrupole moment (field-independent basis, Debye-Ang):
   XX=           -177.5919   YY=           -160.2619   ZZ=           -138.3640
   XY=              0.5489   XZ=              2.0760   YZ=              3.3081

 Summary of Natural Population Analysis:

                                       Natural Population
                Natural  -----------------------------------------------
    Atom  No    Charge         Core      Valence    Rydberg      Total
 -----------------------------------------------------------------------
      C    1   -0.18879      0.99963     2.18115    0.00801     3.18879
      C    2   -0.18626      0.99963     2.17970    0.00694     3.18626
      C    3   -0.18948      0.99961     2.18125    0.00862     3.18948
      C    4   -0.11200      0.99957     2.10156    0.01087     3.11200
      C    5   -0.19165      0.99961     2.18199    0.01006     3.19165
      C    6   -0.18714      0.99963     2.17833    0.00918     3.18714
      C    7   -0.11935      0.99951     2.10574    0.01410     3.11935
      C    8   -0.22810      0.99956     2.21901    0.00953     3.22810
      C    9    0.33823      0.99969     1.63782    0.02426     2.66177
      O   10   -0.31667      0.99987     3.31116    0.00563     4.31667
      N   11   -0.40630      0.99970     2.89828    0.00831     3.90630
      C   12   -0.08695      0.99947     2.07284    0.01465     3.08695
      C   13   -0.13075      0.99944     2.12046    0.01085     3.13075
      C   14   -0.12740      0.99953     2.11824    0.00962     3.12740
      C   15   -0.20000      0.99954     2.18942    0.01104     3.20000
      S   16    0.21756      4.99938     2.76400    0.01907     7.78244
      H   17    0.09798      0.00000     0.40104    0.00099     0.40202
      H   18    0.09208      0.00000     0.40665    0.00127     0.40792
      H   19    0.09301      0.00000     0.40561    0.00139     0.40699
      H   20    0.09679      0.00000     0.40228    0.00093     0.40321
      H   21    0.09319      0.00000     0.40543    0.00138     0.40681
      H   22    0.10484      0.00000     0.39403    0.00113     0.39516
      H   23    0.09829      0.00000     0.39859    0.00312     0.40171
      H   24    0.09660      0.00000     0.40159    0.00180     0.40340
      H   25    0.09887      0.00000     0.39859    0.00254     0.40113
      H   26    0.10180      0.00000     0.39660    0.00160     0.39820
      H   27    0.09331      0.00000     0.40479    0.00190     0.40669
      H   28    0.10845      0.00000     0.38941    0.00214     0.39155
      H   29    0.11344      0.00000     0.38552    0.00104     0.38656
      H   30    0.11220      0.00000     0.38622    0.00158     0.38780
      H   31    0.19833      0.00000     0.29772    0.00395     0.30167
      H   32    0.19612      0.00000     0.30175    0.00213     0.30388
      H   33    0.10738      0.00000     0.39146    0.00116     0.39262
      H   34    0.10452      0.00000     0.39466    0.00082     0.39548
      H   35    0.10786      0.00000     0.39135    0.00079     0.39214
 =======================================================================
   * Total *   -0.00000     19.99338    43.79423    0.21239    64.00000

 Normal termination of Gaussian 16 at Fri Dec 11 01:07:40 2020.
