 Gaussian 16, Revision A.03,

 -----------------------------------------------------------
 # opt freq B3LYP/6-31G(d) empiricaldispersion=gd3bj scf=xqc
 -----------------------------------------------------------

 ------------------------------
 CID_42924096_JID_9152_neutraal
 ------------------------------
 Symbolic Z-matrix:
 Charge =  0 Multiplicity = 1

 SCF Done:  E(RB3LYP) =  -857.274609172     A.U. after   15 cycles
 SCF Done:  E(RB3LYP) =  -857.277034078     A.U. after   13 cycles
 SCF Done:  E(RB3LYP) =  -857.276915981     A.U. after   13 cycles
 SCF Done:  E(RB3LYP) =  -857.278521217     A.U. after   12 cycles
 SCF Done:  E(RB3LYP) =  -857.279315458     A.U. after   13 cycles
 SCF Done:  E(RB3LYP) =  -857.279876443     A.U. after   12 cycles
 SCF Done:  E(RB3LYP) =  -857.280049224     A.U. after   12 cycles
 SCF Done:  E(RB3LYP) =  -857.280147537     A.U. after   11 cycles
 SCF Done:  E(RB3LYP) =  -857.280189733     A.U. after   11 cycles
 SCF Done:  E(RB3LYP) =  -857.280223294     A.U. after   10 cycles
 SCF Done:  E(RB3LYP) =  -857.280274297     A.U. after   10 cycles
 SCF Done:  E(RB3LYP) =  -857.280279553     A.U. after   10 cycles
 SCF Done:  E(RB3LYP) =  -857.280281550     A.U. after    8 cycles
 SCF Done:  E(RB3LYP) =  -857.280282286     A.U. after    8 cycles
 SCF Done:  E(RB3LYP) =  -857.280282352     A.U. after    7 cycles
 Optimization completed.
    -- Stationary point found.
 Normal termination of Gaussian 16 at Mon Dec 14 13:29:15 2020.

 --------------------------------------------------------------------
 #N Geom=AllCheck Guess=TCheck SCRF=Check GenChk RB3LYP/6-31G(d) Freq
 --------------------------------------------------------------------

 Structure from the checkpoint file:  "JID_9152.chk"
 ------------------------------
 CID_42924096_JID_9152_neutraal
 ------------------------------
 Charge =  0 Multiplicity = 1

 SCF Done:  E(RB3LYP) =  -857.280282352     A.U. after    1 cycles

  Exact polarizability: 193.658  -8.230 160.908 -16.311   8.993 122.573
 Approx polarizability: 262.795  -5.075 269.169 -31.131  17.146 210.925

                      1                      2                      3
                      A                      A                      A
 Frequencies --     34.2038                41.5671                51.5330
 Red. masses --      5.2507                 8.0675                 4.2919
 Frc consts  --      0.0036                 0.0082                 0.0067
 IR Inten    --      0.7684                 2.0337                 0.7292

                      4                      5                      6
                      A                      A                      A
 Frequencies --     54.3227                88.4846                96.5397
 Red. masses --      5.0522                 4.5855                 4.9625
 Frc consts  --      0.0088                 0.0212                 0.0272
 IR Inten    --      0.2722                 5.8523                 0.9272

                      7                      8                      9
                      A                      A                      A
 Frequencies --    123.9191               162.1946               193.4736
 Red. masses --      3.9551                 5.2630                 4.3171
 Frc consts  --      0.0358                 0.0816                 0.0952
 IR Inten    --      1.3450                 0.3642                 1.2561

                     10                     11                     12
                      A                      A                      A
 Frequencies --    262.4504               289.0839               310.2568
 Red. masses --      3.6161                 5.5242                 4.3990
 Frc consts  --      0.1468                 0.2720                 0.2495
 IR Inten    --      4.9606                 5.6964                 2.2897

                     13                     14                     15
                      A                      A                      A
 Frequencies --    343.2498               356.1416               413.9930
 Red. masses --      3.0857                 3.3509                 2.8841
 Frc consts  --      0.2142                 0.2504                 0.2912
 IR Inten    --      3.5826                 2.9653                 1.6496

                     16                     17                     18
                      A                      A                      A
 Frequencies --    454.3478               461.9216               504.5541
 Red. masses --      3.0484                 3.9212                 2.7686
 Frc consts  --      0.3708                 0.4930                 0.4153
 IR Inten    --      6.1173                 4.0199                 8.7755

                     19                     20                     21
                      A                      A                      A
 Frequencies --    512.2854               545.5373               552.8751
 Red. masses --      4.1053                 2.9128                 4.1414
 Frc consts  --      0.6348                 0.5107                 0.7458
 IR Inten    --      2.5013                14.8623                 4.1852

                     22                     23                     24
                      A                      A                      A
 Frequencies --    606.7225               619.3627               629.8555
 Red. masses --      2.4894                 4.1604                 3.2232
 Frc consts  --      0.5399                 0.9403                 0.7534
 IR Inten    --     15.1970                11.1436                22.1657

                     25                     26                     27
                      A                      A                      A
 Frequencies --    645.8775               665.9158               676.9330
 Red. masses --      2.6776                 5.7742                 2.9638
 Frc consts  --      0.6581                 1.5086                 0.8002
 IR Inten    --     49.8763                 7.3101                17.7280

                     28                     29                     30
                      A                      A                      A
 Frequencies --    740.2673               764.9620               768.1418
 Red. masses --      4.2689                 1.2008                 1.6066
 Frc consts  --      1.3783                 0.4140                 0.5585
 IR Inten    --      4.3504                55.7584                35.9375

                     31                     32                     33
                      A                      A                      A
 Frequencies --    778.3889               805.4480               834.6093
 Red. masses --      2.7099                 4.1923                 1.3310
 Frc consts  --      0.9674                 1.6024                 0.5462
 IR Inten    --     15.6725                 5.2622                 0.2400

                     34                     35                     36
                      A                      A                      A
 Frequencies --    846.6506               868.1799               881.4746
 Red. masses --      3.4325                 1.5720                 1.3109
 Frc consts  --      1.4497                 0.6981                 0.6001
 IR Inten    --      9.6420                 3.0734                 3.1637

                     37                     38                     39
                      A                      A                      A
 Frequencies --    886.4335               915.2822               943.1620
 Red. masses --      2.9384                 2.7992                 3.3723
 Frc consts  --      1.3604                 1.3816                 1.7674
 IR Inten    --      3.1856                 3.1442                 2.9455

                     40                     41                     42
                      A                      A                      A
 Frequencies --    944.6877               945.4709               976.8344
 Red. masses --      2.1851                 2.1045                 1.2440
 Frc consts  --      1.1490                 1.1084                 0.6994
 IR Inten    --      4.6791                 2.2949                 0.1612

                     43                     44                     45
                      A                      A                      A
 Frequencies --    983.3523               998.8968              1023.7596
 Red. masses --      2.4706                 2.1173                 1.7493
 Frc consts  --      1.4076                 1.2447                 1.0802
 IR Inten    --     20.1875                 8.4570                 2.7000

                     46                     47                     48
                      A                      A                      A
 Frequencies --   1059.9043              1068.1034              1077.6756
 Red. masses --      2.9222                 2.4564                 1.4396
 Frc consts  --      1.9341                 1.6511                 0.9851
 IR Inten    --     34.5750                35.3758                21.8218

                     49                     50                     51
                      A                      A                      A
 Frequencies --   1107.4423              1116.1547              1145.7132
 Red. masses --      2.5987                 1.8948                 2.7964
 Frc consts  --      1.8778                 1.3908                 2.1627
 IR Inten    --     10.8285                11.8205                23.1529

                     52                     53                     54
                      A                      A                      A
 Frequencies --   1150.5692              1175.3474              1188.3266
 Red. masses --      1.6659                 1.4398                 1.1233
 Frc consts  --      1.2993                 1.1719                 0.9346
 IR Inten    --     28.2941                 9.2510                 2.7958

                     55                     56                     57
                      A                      A                      A
 Frequencies --   1216.9139              1239.9875              1248.8333
 Red. masses --      1.8064                 1.4106                 1.5395
 Frc consts  --      1.5761                 1.2778                 1.4146
 IR Inten    --     11.4617                24.7285                10.3117

                     58                     59                     60
                      A                      A                      A
 Frequencies --   1270.3801              1282.9545              1309.8084
 Red. masses --      2.1272                 1.6776                 1.6132
 Frc consts  --      2.0226                 1.6269                 1.6307
 IR Inten    --     54.1995                44.1149                64.8773

                     61                     62                     63
                      A                      A                      A
 Frequencies --   1328.3142              1353.7909              1360.9549
 Red. masses --      3.0586                 1.5276                 1.3613
 Frc consts  --      3.1796                 1.6496                 1.4856
 IR Inten    --     18.8986                11.2401                10.0176

                     64                     65                     66
                      A                      A                      A
 Frequencies --   1370.8817              1375.5687              1380.4803
 Red. masses --      3.4494                 2.0317                 2.1762
 Frc consts  --      3.8194                 2.2650                 2.4434
 IR Inten    --     39.3644                12.2795                35.5285

                     67                     68                     69
                      A                      A                      A
 Frequencies --   1398.0289              1413.5583              1430.9641
 Red. masses --      1.5289                 2.8191                 1.4106
 Frc consts  --      1.7605                 3.3189                 1.7018
 IR Inten    --      2.0349               128.2475                 5.3868

                     70                     71                     72
                      A                      A                      A
 Frequencies --   1441.1866              1483.9889              1494.7408
 Red. masses --      3.9459                 2.4173                 1.4502
 Frc consts  --      4.8287                 3.1365                 1.9091
 IR Inten    --     31.4571                 2.1322                85.0748

                     73                     74                     75
                      A                      A                      A
 Frequencies --   1496.3513              1506.6426              1512.5427
 Red. masses --      1.3119                 2.2334                 1.2700
 Frc consts  --      1.7307                 2.9870                 1.7119
 IR Inten    --     26.7565                39.7109                13.6644

                     76                     77                     78
                      A                      A                      A
 Frequencies --   1532.0132              1547.6241              1570.1772
 Red. masses --      1.5271                 1.6261                 3.9904
 Frc consts  --      2.1118                 2.2948                 5.7964
 IR Inten    --     19.0728                44.9052                13.7072

                     79                     80                     81
                      A                      A                      A
 Frequencies --   1641.0265              1672.7599              1787.2017
 Red. masses --      6.5978                 6.1651                 8.2553
 Frc consts  --     10.4684                10.1638                15.5357
 IR Inten    --     19.6090                28.7096               449.7266

                     82                     83                     84
                      A                      A                      A
 Frequencies --   3012.1225              3078.0170              3105.4517
 Red. masses --      1.0722                 1.0643                 1.0587
 Frc consts  --      5.7316                 5.9411                 6.0153
 IR Inten    --     52.7922                 9.7113                11.1177

                     85                     86                     87
                      A                      A                      A
 Frequencies --   3124.6882              3132.3664              3138.6612
 Red. masses --      1.0848                 1.0939                 1.1010
 Frc consts  --      6.2406                 6.3240                 6.3903
 IR Inten    --      3.8162                31.9423                10.7171

                     88                     89                     90
                      A                      A                      A
 Frequencies --   3160.5985              3178.2138              3193.2496
 Red. masses --      1.1078                 1.0877                 1.0880
 Frc consts  --      6.5198                 6.4732                 6.5365
 IR Inten    --      5.2301                 7.4823                 9.9082

                     91                     92                     93
                      A                      A                      A
 Frequencies --   3210.9873              3219.8609              3259.9153
 Red. masses --      1.0932                 1.0958                 1.0929
 Frc consts  --      6.6411                 6.6938                 6.8430
 IR Inten    --     21.8483                13.0735                 4.6307

                     94                     95                     96
                      A                      A                      A
 Frequencies --   3273.0574              3290.4939              3587.6207
 Red. masses --      1.0936                 1.1064                 1.0758
 Frc consts  --      6.9025                 7.0579                 8.1583
 IR Inten    --      1.1244                 1.6402                20.6523

 - Thermochemistry -
 -------------------
 Temperature   298.150 Kelvin.  Pressure   1.00000 Atm.
 Atom     1 has atomic number  6 and mass  12.00000

 Molecular mass:   257.11643 amu.
 Principal axes and moments of inertia in atomic units:
                           1         2         3
     Eigenvalues --  2561.821737325.382248238.52748
           X            0.99994  -0.00992  -0.00354
           Y            0.01007   0.99890   0.04573
           Z            0.00309  -0.04576   0.99895
 This molecule is an asymmetric top.
 Rotational symmetry number  1.
 Warning -- assumption of classical behavior for rotation
           may cause significant error
 Rotational temperatures (Kelvin)      0.03381     0.01182     0.01051
 Rotational constants (GHZ):           0.70448     0.24637     0.21906
 Zero-point vibrational energy     731670.9 (Joules/Mol)
                                  174.87354 (Kcal/Mol)
 Warning -- explicit consideration of  23 degrees of freedom as
           vibrations may cause significant error
 Vibrational temperatures:     49.21    59.81    74.14    78.16   127.31
          (Kelvin)            138.90   178.29   233.36   278.37   377.61
                              415.93   446.39   493.86   512.41   595.64
                              653.71   664.60   725.94   737.06   784.91
                              795.46   872.94   891.12   906.22   929.27
                              958.10   973.96  1065.08  1100.61  1105.18
                             1119.93  1158.86  1200.82  1218.14  1249.12
                             1268.25  1275.38  1316.89  1357.00  1359.19
                             1360.32  1405.45  1414.82  1437.19  1472.96
                             1524.97  1536.76  1550.53  1593.36  1605.90
                             1648.43  1655.41  1691.06  1709.74  1750.87
                             1784.07  1796.79  1827.79  1845.89  1884.52
                             1911.15  1947.80  1958.11  1972.39  1979.14
                             1986.20  2011.45  2033.80  2058.84  2073.55
                             2135.13  2150.60  2152.92  2167.72  2176.21
                             2204.23  2226.69  2259.13  2361.07  2406.73
                             2571.38  4333.77  4428.58  4468.05  4495.73
                             4506.78  4515.83  4547.40  4572.74  4594.37
                             4619.89  4632.66  4690.29  4709.20  4734.29
                             5161.79

 Zero-point correction=                           0.278679 (Hartree/Particle)
 Thermal correction to Energy=                    0.294264
 Thermal correction to Enthalpy=                  0.295208
 Thermal correction to Gibbs Free Energy=         0.233972
 Sum of electronic and zero-point Energies=           -857.001604
 Sum of electronic and thermal Energies=              -856.986018
 Sum of electronic and thermal Enthalpies=            -856.985074
 Sum of electronic and thermal Free Energies=         -857.046311

                     E (Thermal)             CV                S
                      KCal/Mol        Cal/Mol-Kelvin    Cal/Mol-Kelvin
 Total                  184.654             61.036            128.883
 Electronic               0.000              0.000              0.000
 Translational            0.889              2.981             42.533
 Rotational               0.889              2.981             33.402
 Vibrational            182.876             55.074             52.948
 Vibration     1          0.594              1.983              5.569
 Vibration     2          0.594              1.981              5.183
 Vibration     3          0.596              1.977              4.758
 Vibration     4          0.596              1.976              4.653
 Vibration     5          0.601              1.957              3.693
 Vibration     6          0.603              1.952              3.523
 Vibration     7          0.610              1.929              3.038
 Vibration     8          0.622              1.889              2.524
 Vibration     9          0.635              1.849              2.194
 Vibration    10          0.670              1.742              1.645
 Vibration    11          0.686              1.694              1.479
 Vibration    12          0.699              1.654              1.361
 Vibration    13          0.722              1.589              1.197
 Vibration    14          0.732              1.563              1.139
 Vibration    15          0.778              1.440              0.913
 Vibration    16          0.813              1.351              0.783
 Vibration    17          0.820              1.335              0.761
 Vibration    18          0.860              1.240              0.647
 Vibration    19          0.867              1.223              0.628
 Vibration    20          0.901              1.149              0.553
 Vibration    21          0.908              1.133              0.538
 Vibration    22          0.965              1.018              0.438
 Vibration    23          0.979              0.991              0.418

 Optimization completed.
    -- Stationary point found.
 Normal termination of Gaussian 16 at Mon Dec 14 13:47:28 2020.

 ----------------------------------------------------------------------
 # B3LYP/6-311++G(d,p) empiricaldispersion=gd3bj scf=xqc pop=npa geom=c
 heck
 ----------------------------------------------------------------------

 --------------------------------------
 CID_42924096_JID_9152_Energie_neutraal
 --------------------------------------
 Structure from the checkpoint file:  "JID_9152.chk"
 Charge =  0 Multiplicity = 1

 SCF Done:  E(RB3LYP) =  -857.514780724     A.U. after   16 cycles
 Normal termination of Gaussian 16 at Mon Dec 14 13:55:34 2020.

 ----------------------------------------------------------------------
 # B3LYP/6-311++G(d,p) empiricaldispersion=gd3bj scf=xqc pop=npa geom=c
 heck
 ----------------------------------------------------------------------

 ------------------------------------
 CID_42924096_JID_9152_Energie_kation
 ------------------------------------
 Structure from the checkpoint file:  "JID_9152.chk"
 Charge =  1 Multiplicity = 2

 SCF Done:  E(UB3LYP) =  -857.216694029     A.U. after   28 cycles
 Normal termination of Gaussian 16 at Mon Dec 14 14:15:48 2020.
 Gaussian 16:  ES64L-G16RevA.03 25-Dec-2016

 ----------------------------------------------------------------------
 # B3LYP/6-311++G(d,p) empiricaldispersion=gd3bj scf=xqc pop=npa geom=c
 heck
 ----------------------------------------------------------------------

 -----------------------------------
 CID_42924096_JID_9152_Energie_anion
 -----------------------------------
 Structure from the checkpoint file:  "JID_9152.chk"
 Charge = -1 Multiplicity = 2

                         Standard orientation:
 ---------------------------------------------------------------------
 Center     Atomic      Atomic             Coordinates (Angstroms)
 Number     Number       Type             X           Y           Z
 ---------------------------------------------------------------------
      1          6           0       -0.090696    1.405593    0.290974
      2          6           0        0.854063    1.885588    1.379718
      3          8           0        2.208472    1.924986    0.919395
      4          6           0        2.643275    0.825831    0.233956
      5          6           0        4.027931    0.720067    0.046154
      6          6           0        4.554250   -0.364682   -0.643012
      7          6           0        3.709035   -1.358189   -1.151463
      8          6           0        2.336363   -1.240218   -0.968866
      9          6           0        1.779870   -0.151447   -0.285842
     10          6           0        0.278180   -0.027956   -0.122337
     11          7           0       -0.188805   -1.024556    0.851301
     12          6           0       -1.308222   -1.801241    0.831073
     13          8           0       -1.579074   -2.581252    1.736074
     14          6           0       -2.240610   -1.680641   -0.384103
     15          7           0       -2.838937   -0.364034   -0.512311
     16          6           0       -3.638700    0.266682    0.389325
     17          6           0       -3.938472    1.505771   -0.146568
     18          6           0       -3.263206    1.527523   -1.387360
     19          7           0       -2.594758    0.394295   -1.607725
     20          1           0       -1.126289    1.446372    0.637564
     21          1           0       -0.003037    2.063061   -0.581131
     22          1           0        0.628544    2.904544    1.700908
     23          1           0        0.794524    1.227382    2.260409
     24          1           0        4.663809    1.497856    0.456276
     25          1           0        5.629131   -0.440418   -0.780744
     26          1           0        4.119443   -2.208758   -1.686652
     27          1           0        1.666135   -2.001413   -1.361757
     28          1           0       -0.207244   -0.244941   -1.075394
     29          1           0        0.388799   -1.175353    1.670164
     30          1           0       -1.717706   -1.874557   -1.322780
     31          1           0       -3.016900   -2.436160   -0.247018
     32          1           0       -3.921201   -0.212996    1.315636
     33          1           0       -4.558035    2.274722    0.290882
     34          1           0       -3.236035    2.314784   -2.128860
 ---------------------------------------------------------------------

 SCF Done:  E(UB3LYP) =  -857.502833234     A.U. after   33 cycles
 SCF Done:  E(UB3LYP) =  -857.502833234     a.u. after    1 cycles

 The electronic state is 2-A.
 Alpha  occ. eigenvalues --  -19.06431 -19.01075 -14.31141 -14.25694 -14.24759
 Alpha  occ. eigenvalues --  -10.19732 -10.14641 -10.14218 -10.13989 -10.13663
 Alpha  occ. eigenvalues --  -10.12349 -10.10600 -10.09098 -10.08610 -10.08567
 Alpha  occ. eigenvalues --  -10.08425 -10.08307 -10.08031 -10.07961  -0.98289
 Alpha  occ. eigenvalues --   -0.97377  -0.95929  -0.84899  -0.76946  -0.76537
 Alpha  occ. eigenvalues --   -0.71554  -0.70561  -0.67327  -0.65424  -0.63821
 Alpha  occ. eigenvalues --   -0.59012  -0.55850  -0.52762  -0.52587  -0.52014
 Alpha  occ. eigenvalues --   -0.48898  -0.47686  -0.45666  -0.43830  -0.42402
 Alpha  occ. eigenvalues --   -0.41454  -0.39997  -0.38935  -0.38290  -0.37168
 Alpha  occ. eigenvalues --   -0.36375  -0.35417  -0.34689  -0.34149  -0.33327
 Alpha  occ. eigenvalues --   -0.32870  -0.32006  -0.31861  -0.31330  -0.30276
 Alpha  occ. eigenvalues --   -0.29977  -0.27704  -0.27496  -0.25952  -0.24084
 Alpha  occ. eigenvalues --   -0.22656  -0.21614  -0.19224  -0.18417  -0.17284
 Alpha  occ. eigenvalues --   -0.16567  -0.16143  -0.13859   0.04092
 Alpha virt. eigenvalues --    0.05646   0.06324   0.06542   0.07218   0.07405
 Alpha virt. eigenvalues --    0.07564   0.08109   0.08364   0.09019   0.09141
 Alpha virt. eigenvalues --    0.09629   0.09875   0.10333   0.10900   0.11583

  Beta  occ. eigenvalues --  -19.06432 -19.01067 -14.31136 -14.25673 -14.24751
  Beta  occ. eigenvalues --  -10.19725 -10.14652 -10.14198 -10.13971 -10.13660
  Beta  occ. eigenvalues --  -10.12331 -10.10591 -10.09066 -10.08565 -10.08561
  Beta  occ. eigenvalues --  -10.08353 -10.08288 -10.08036 -10.07903  -0.98287
  Beta  occ. eigenvalues --   -0.97361  -0.95913  -0.84866  -0.76901  -0.76477
  Beta  occ. eigenvalues --   -0.71512  -0.70532  -0.67267  -0.65310  -0.63778
  Beta  occ. eigenvalues --   -0.58969  -0.55816  -0.52722  -0.52482  -0.51963
  Beta  occ. eigenvalues --   -0.48850  -0.47643  -0.45617  -0.43783  -0.42353
  Beta  occ. eigenvalues --   -0.41397  -0.39959  -0.38911  -0.38256  -0.37131
  Beta  occ. eigenvalues --   -0.36344  -0.35357  -0.34646  -0.34090  -0.33294
  Beta  occ. eigenvalues --   -0.32834  -0.31976  -0.31821  -0.31296  -0.30214
  Beta  occ. eigenvalues --   -0.29938  -0.27661  -0.27418  -0.25898  -0.24004
  Beta  occ. eigenvalues --   -0.22610  -0.21594  -0.19191  -0.18309  -0.17246
  Beta  occ. eigenvalues --   -0.16539  -0.15862  -0.13724
  Beta virt. eigenvalues --    0.06085   0.06646   0.06792   0.07045   0.07608
  Beta virt. eigenvalues --    0.07725   0.08159   0.08223   0.08722   0.09269
  Beta virt. eigenvalues --    0.09362   0.09995   0.10235   0.10592   0.11036

 Mulliken charges and spin densities:
               1          2
     1  C   -0.994701   0.319986
     2  C    0.230125  -0.767584
     3  O   -0.115726   0.018565
     4  C   -2.240071   1.447612
     5  C   -0.446960   0.060664
     6  C    0.192286  -0.454720
     7  C    0.342434  -0.723943
     8  C    0.749034  -0.759678
     9  C    0.322767   0.578223
    10  C    1.708667  -1.213600
    11  N    0.002009  -0.048974
    12  C   -0.080946  -0.059051
    13  O   -0.294692   0.006046
    14  C   -0.043657  -0.120222
    15  N    0.210493   0.017325
    16  C    0.437857  -0.608210
    17  C    0.050261  -0.156075
    18  C    0.821013  -1.082973
    19  N   -0.279062   0.115271
    20  H    0.408195  -0.243739
    21  H    0.000608   0.202396
    22  H   -0.412591   0.625578
    23  H    0.092825   0.077563
    24  H    0.036376   0.132429
    25  H   -0.130292   0.276012
    26  H   -0.297462   0.465347
    27  H   -0.120646   0.246487
    28  H    0.304987  -0.048455
    29  H    0.290702  -0.014021
    30  H   -0.162631   0.369013
    31  H   -0.073296   0.315508
    32  H   -0.093071   0.270489
    33  H   -1.131953   1.322388
    34  H   -0.282880   0.434343
 Sum of Mulliken charges =  -1.00000   1.00000

 Dipole moment (field-independent basis, Debye):
    X=              2.8601    Y=             -1.9240    Z=              0.3219  Tot=              3.4620
 Quadrupole moment (field-independent basis, Debye-Ang):
   XX=           -198.3689   YY=           -170.1724   ZZ=           -147.5270
   XY=             14.0464   XZ=              6.9422   YZ=             -0.6397

 Summary of Natural Population Analysis:

                                       Natural Population
                Natural  -----------------------------------------------
    Atom  No    Charge         Core      Valence    Rydberg      Total
 -----------------------------------------------------------------------
      C    1   -0.20961      0.99961     2.20073    0.00927     3.20961
      C    2   -0.00819      0.99956     1.99645    0.01217     3.00819
      O    3   -0.27679      0.99986     3.26785    0.00908     4.27679
      C    4    0.16066      0.99933     1.82738    0.01263     2.83934
      C    5   -0.11250      0.99952     2.10308    0.00990     3.11250
      C    6   -0.08788      0.99957     2.07892    0.00939     3.08788
      C    7   -0.11864      0.99956     2.10899    0.01008     3.11864
      C    8   -0.07321      0.99953     2.06388    0.00979     3.07321
      C    9   -0.05781      0.99945     2.04869    0.00967     3.05781
      C   10   -0.02162      0.99954     2.00921    0.01287     3.02162
      N   11   -0.31256      0.99965     2.80338    0.00953     3.81256
      C   12    0.33689      0.99967     1.64207    0.02136     2.66311
      O   13   -0.31933      0.99988     3.31343    0.00602     4.31933
      C   14   -0.12534      0.99957     2.11454    0.01123     3.12534
      N   15   -0.11400      0.99966     2.59986    0.01449     3.61400
      C   16   -0.00756      0.99955     1.99638    0.01163     3.00756
      C   17   -0.15871      0.99957     2.14933    0.00981     3.15871
      C   18   -0.01177      0.99962     1.99759    0.01455     3.01177
      N   19   -0.15556      0.99973     2.64360    0.01222     3.65556
      H   20    0.11313      0.00000     0.38444    0.00242     0.38687
      H   21    0.10684      0.00000     0.39183    0.00134     0.39316
      H   22    0.09824      0.00000     0.40014    0.00162     0.40176
      H   23    0.07864      0.00000     0.41993    0.00143     0.42136
      H   24    0.10448      0.00000     0.39438    0.00114     0.39552
      H   25    0.09910      0.00000     0.40004    0.00086     0.40090
      H   26    0.10128      0.00000     0.39771    0.00101     0.39872
      H   27    0.10060      0.00000     0.39792    0.00148     0.39940
      H   28    0.11717      0.00000     0.38031    0.00251     0.38283
      H   29    0.19658      0.00000     0.30126    0.00216     0.30342
      H   30    0.11892      0.00000     0.37937    0.00170     0.38108
      H   31    0.11294      0.00000     0.38591    0.00115     0.38706
      H   32    0.11027      0.00000     0.38862    0.00111     0.38973
      H   33    0.11417      0.00000     0.38298    0.00285     0.38583
      H   34    0.10116      0.00000     0.39775    0.00109     0.39884
 =======================================================================
   * Total *    0.00000     18.99245    48.76798    0.23958    68.00000

 Normal termination of Gaussian 16 at Mon Dec 14 14:40:36 2020.
