 Gaussian 16, Revision A.03,

 -----------------------------------------------------------
 # opt freq B3LYP/6-31G(d) empiricaldispersion=gd3bj scf=xqc
 -----------------------------------------------------------

 -------------------------------
 CID_134459170_JID_4258_neutraal
 -------------------------------
 Symbolic Z-matrix:
 Charge =  0 Multiplicity = 1

 SCF Done:  E(RB3LYP) =  -669.391704122     A.U. after   15 cycles
 SCF Done:  E(RB3LYP) =  -669.396028799     A.U. after   13 cycles
 SCF Done:  E(RB3LYP) =  -669.396183884     A.U. after   13 cycles
 SCF Done:  E(RB3LYP) =  -669.396557338     A.U. after   12 cycles
 SCF Done:  E(RB3LYP) =  -669.396818850     A.U. after   12 cycles
 SCF Done:  E(RB3LYP) =  -669.396911205     A.U. after   11 cycles
 SCF Done:  E(RB3LYP) =  -669.396936766     A.U. after   10 cycles
 SCF Done:  E(RB3LYP) =  -669.396976479     A.U. after   12 cycles
 SCF Done:  E(RB3LYP) =  -669.397001855     A.U. after   12 cycles
 SCF Done:  E(RB3LYP) =  -669.397031755     A.U. after   11 cycles
 SCF Done:  E(RB3LYP) =  -669.397046473     A.U. after    9 cycles
 SCF Done:  E(RB3LYP) =  -669.397046934     A.U. after    8 cycles
 SCF Done:  E(RB3LYP) =  -669.397047296     A.U. after    7 cycles
 SCF Done:  E(RB3LYP) =  -669.397047404     A.U. after    7 cycles
 SCF Done:  E(RB3LYP) =  -669.397047422     A.U. after    7 cycles
 Optimization completed.
    -- Stationary point found.
 Normal termination of Gaussian 16 at Thu Dec 10 09:22:55 2020.

 --------------------------------------------------------------------
 #N Geom=AllCheck Guess=TCheck SCRF=Check GenChk RB3LYP/6-31G(d) Freq
 --------------------------------------------------------------------

 Structure from the checkpoint file:  "JID_4258.chk"
 -------------------------------
 CID_134459170_JID_4258_neutraal
 -------------------------------
 Charge =  0 Multiplicity = 1

 SCF Done:  E(RB3LYP) =  -669.397047422     A.U. after    1 cycles

  Exact polarizability: 141.271  10.889 131.139 -15.698   2.396  75.290
 Approx polarizability: 210.152  29.896 209.360 -36.529  -1.074 119.903

                      1                      2                      3
                      A                      A                      A
 Frequencies --     22.5787                38.6652                59.6096
 Red. masses --      7.9594                 7.2995                 4.5637
 Frc consts  --      0.0024                 0.0064                 0.0096
 IR Inten    --      0.9206                 2.1358                 1.0824

                      4                      5                      6
                      A                      A                      A
 Frequencies --     71.8321               124.9754               152.6923
 Red. masses --      5.0461                 4.8189                 1.2851
 Frc consts  --      0.0153                 0.0443                 0.0177
 IR Inten    --      2.8423                 1.4852                 0.3454

                      7                      8                      9
                      A                      A                      A
 Frequencies --    159.1910               210.1949               264.7118
 Red. masses --      4.9809                 2.1402                 2.7403
 Frc consts  --      0.0744                 0.0557                 0.1131
 IR Inten    --      2.2386                 0.3490                 2.6662

                     10                     11                     12
                      A                      A                      A
 Frequencies --    303.5755               335.2852               366.4810
 Red. masses --      3.0423                 3.6041                 2.7045
 Frc consts  --      0.1652                 0.2387                 0.2140
 IR Inten    --      0.4147                 3.1452                 2.1170

                     13                     14                     15
                      A                      A                      A
 Frequencies --    405.9324               429.0199               455.2967
 Red. masses --      2.9914                 3.0783                 3.6560
 Frc consts  --      0.2904                 0.3338                 0.4465
 IR Inten    --      0.5234                15.2990                10.6068

                     16                     17                     18
                      A                      A                      A
 Frequencies --    491.5621               534.5329               548.0735
 Red. masses --      3.3187                 4.0248                 2.6737
 Frc consts  --      0.4725                 0.6776                 0.4732
 IR Inten    --      0.6578                 4.7281                26.6561

                     19                     20                     21
                      A                      A                      A
 Frequencies --    551.3485               608.1794               642.9820
 Red. masses --      3.7530                 1.8003                 2.3440
 Frc consts  --      0.6722                 0.3923                 0.5710
 IR Inten    --     11.0461                40.5227                14.7620

                     22                     23                     24
                      A                      A                      A
 Frequencies --    709.3985               713.8551               735.0189
 Red. masses --      1.8624                 1.5355                 2.6730
 Frc consts  --      0.5522                 0.4610                 0.8508
 IR Inten    --      2.1352                98.1173                42.6010

                     25                     26                     27
                      A                      A                      A
 Frequencies --    746.9464               765.0681               806.9421
 Red. masses --      3.3837                 5.3229                 2.4690
 Frc consts  --      1.1123                 1.8357                 0.9472
 IR Inten    --     39.9411                 0.4736                 7.7037

                     28                     29                     30
                      A                      A                      A
 Frequencies --    871.8875               879.9765               882.4016
 Red. masses --      2.4712                 1.6255                 1.5765
 Frc consts  --      1.1068                 0.7416                 0.7232
 IR Inten    --      8.5251                25.3221                 3.3148

                     31                     32                     33
                      A                      A                      A
 Frequencies --    904.1665               927.5742              1017.9836
 Red. masses --      1.7963                 3.3494                 1.7373
 Frc consts  --      0.8652                 1.6979                 1.0607
 IR Inten    --      5.6456                14.8802                 3.7259

                     34                     35                     36
                      A                      A                      A
 Frequencies --   1034.7995              1045.0013              1074.5032
 Red. masses --      2.1062                 1.5004                 1.6004
 Frc consts  --      1.3288                 0.9654                 1.0887
 IR Inten    --      5.7221                 2.7734                 3.8753

                     37                     38                     39
                      A                      A                      A
 Frequencies --   1087.6858              1147.8310              1166.0135
 Red. masses --      2.7150                 1.9054                 2.1827
 Frc consts  --      1.8925                 1.4791                 1.7484
 IR Inten    --     16.0544               101.3942                53.7179

                     40                     41                     42
                      A                      A                      A
 Frequencies --   1189.0970              1222.0201              1234.0551
 Red. masses --      2.3523                 1.5471                 1.4429
 Frc consts  --      1.9597                 1.3612                 1.2947
 IR Inten    --     13.9771                13.3447               100.1205

                     43                     44                     45
                      A                      A                      A
 Frequencies --   1239.3515              1270.1548              1305.6487
 Red. masses --      2.0882                 1.6616                 1.2558
 Frc consts  --      1.8898                 1.5794                 1.2613
 IR Inten    --      3.6730                 0.9996                 1.5847

                     46                     47                     48
                      A                      A                      A
 Frequencies --   1330.1072              1358.7586              1388.8498
 Red. masses --      1.4997                 1.6874                 1.5690
 Frc consts  --      1.5633                 1.8355                 1.7832
 IR Inten    --      2.2559                 6.5209                10.0688

                     49                     50                     51
                      A                      A                      A
 Frequencies --   1399.9042              1428.5748              1439.4527
 Red. masses --      1.4432                 1.7322                 1.3584
 Frc consts  --      1.6664                 2.0828                 1.6583
 IR Inten    --     10.9327                30.9005                 2.5719

                     52                     53                     54
                      A                      A                      A
 Frequencies --   1452.0787              1499.7394              1503.8293
 Red. masses --      1.9225                 1.1111                 2.9504
 Frc consts  --      2.3883                 1.4725                 3.9313
 IR Inten    --     24.6141                 8.6500                 5.5439

                     55                     56                     57
                      A                      A                      A
 Frequencies --   1507.9364              1513.8079              1516.1566
 Red. masses --      1.1107                 1.1153                 1.0605
 Frc consts  --      1.4881                 1.5059                 1.4364
 IR Inten    --      9.3872                11.2670                11.8849

                     58                     59                     60
                      A                      A                      A
 Frequencies --   1532.8056              1592.3044              1695.1524
 Red. masses --      1.0972                 4.1632                 5.7570
 Frc consts  --      1.5189                 6.2191                 9.7468
 IR Inten    --      9.3149                35.2698                43.0417

                     61                     62                     63
                      A                      A                      A
 Frequencies --   1792.6255              1845.4625              3050.7604
 Red. masses --      8.1934                 9.3972                 1.0400
 Frc consts  --     15.5130                18.8564                 5.7029
 IR Inten    --    661.7550               225.7422                 9.0798

                     64                     65                     66
                      A                      A                      A
 Frequencies --   3058.9238              3060.1883              3069.2772
 Red. masses --      1.0647                 1.0618                 1.0645
 Frc consts  --      5.8699                 5.8585                 5.9084
 IR Inten    --     22.1865                13.8549                18.8927

                     67                     68                     69
                      A                      A                      A
 Frequencies --   3096.6924              3103.6049              3112.2524
 Red. masses --      1.0995                 1.0991                 1.1033
 Frc consts  --      6.2122                 6.2375                 6.2965
 IR Inten    --     27.4793                15.8297                21.9217

                     70                     71                     72
                      A                      A                      A
 Frequencies --   3134.8987              3143.1137              3219.5186
 Red. masses --      1.0951                 1.1009                 1.0918
 Frc consts  --      6.3408                 6.4080                 6.6676
 IR Inten    --     18.6734                16.0640                 9.4420

                     73                     74                     75
                      A                      A                      A
 Frequencies --   3221.4191              3601.7810              3671.9241
 Red. masses --      1.0920                 1.0778                 1.0638
 Frc consts  --      6.6769                 8.2377                 8.4508
 IR Inten    --      0.1817                50.4472                47.6032

 - Thermochemistry -
 -------------------
 Temperature   298.150 Kelvin.  Pressure   1.00000 Atm.
 Atom     1 has atomic number  6 and mass  12.00000

 Molecular mass:   195.08954 amu.
 Principal axes and moments of inertia in atomic units:
                           1         2         3
     Eigenvalues --  1568.658814383.457345523.32927
           X            0.99988  -0.01556   0.00220
           Y            0.01553   0.99980   0.01237
           Z           -0.00240  -0.01233   0.99992
 This molecule is an asymmetric top.
 Rotational symmetry number  1.
 Warning -- assumption of classical behavior for rotation
           may cause significant error
 Rotational temperatures (Kelvin)      0.05522     0.01976     0.01568
 Rotational constants (GHZ):           1.15050     0.41172     0.32675
 Zero-point vibrational energy     586744.4 (Joules/Mol)
                                  140.23527 (Kcal/Mol)
 Warning -- explicit consideration of  20 degrees of freedom as
           vibrations may cause significant error
 Vibrational temperatures:     32.49    55.63    85.76   103.35   179.81
          (Kelvin)            219.69   229.04   302.42   380.86   436.78
                              482.40   527.28   584.05   617.26   655.07
                              707.25   769.07   788.56   793.27   875.03
                              925.11  1020.67  1027.08  1057.53  1074.69
                             1100.76  1161.01  1254.45  1266.09  1269.58
                             1300.89  1334.57  1464.65  1488.85  1503.52
                             1545.97  1564.94  1651.47  1677.63  1710.85
                             1758.21  1775.53  1783.15  1827.47  1878.54
                             1913.73  1954.95  1998.25  2014.15  2055.40
                             2071.05  2089.22  2157.79  2163.67  2169.58
                             2178.03  2181.41  2205.37  2290.97  2438.95
                             2579.19  2655.21  4389.36  4401.11  4402.93
                             4416.01  4455.45  4465.40  4477.84  4510.42
                             4522.24  4632.17  4634.90  5182.16  5283.08

 Zero-point correction=                           0.223479 (Hartree/Particle)
 Thermal correction to Energy=                    0.236939
 Thermal correction to Enthalpy=                  0.237883
 Thermal correction to Gibbs Free Energy=         0.181559
 Sum of electronic and zero-point Energies=           -669.173568
 Sum of electronic and thermal Energies=              -669.160109
 Sum of electronic and thermal Enthalpies=            -669.159164
 Sum of electronic and thermal Free Energies=         -669.215489

                     E (Thermal)             CV                S
                      KCal/Mol        Cal/Mol-Kelvin    Cal/Mol-Kelvin
 Total                  148.681             50.365            118.544
 Electronic               0.000              0.000              0.000
 Translational            0.889              2.981             41.710
 Rotational               0.889              2.981             32.007
 Vibrational            146.904             44.403             44.827
 Vibration     1          0.593              1.985              6.393
 Vibration     2          0.594              1.981              5.326
 Vibration     3          0.597              1.974              4.470
 Vibration     4          0.598              1.967              4.103
 Vibration     5          0.610              1.928              3.022
 Vibration     6          0.619              1.900              2.638
 Vibration     7          0.621              1.892              2.559
 Vibration     8          0.642              1.825              2.042
 Vibration     9          0.671              1.738              1.630
 Vibration    10          0.695              1.667              1.397
 Vibration    11          0.716              1.605              1.234
 Vibration    12          0.739              1.541              1.094
 Vibration    13          0.771              1.457              0.941
 Vibration    14          0.790              1.407              0.862
 Vibration    15          0.814              1.349              0.780
 Vibration    16          0.847              1.269              0.680
 Vibration    17          0.890              1.174              0.577
 Vibration    18          0.903              1.144              0.548
 Vibration    19          0.907              1.137              0.541
 Vibration    20          0.967              1.014              0.436

 Optimization completed.
    -- Stationary point found.
 Normal termination of Gaussian 16 at Thu Dec 10 09:30:22 2020.

 ----------------------------------------------------------------------
 # B3LYP/6-311++G(d,p) empiricaldispersion=gd3bj scf=xqc pop=npa geom=c
 heck
 ----------------------------------------------------------------------

 ---------------------------------------
 CID_134459170_JID_4258_Energie_neutraal
 ---------------------------------------
 Structure from the checkpoint file:  "JID_4258.chk"
 Charge =  0 Multiplicity = 1

 SCF Done:  E(RB3LYP) =  -669.599780363     A.U. after   16 cycles
 Normal termination of Gaussian 16 at Thu Dec 10 09:33:42 2020.

 ----------------------------------------------------------------------
 # B3LYP/6-311++G(d,p) empiricaldispersion=gd3bj scf=xqc pop=npa geom=c
 heck
 ----------------------------------------------------------------------

 -------------------------------------
 CID_134459170_JID_4258_Energie_kation
 -------------------------------------
 Structure from the checkpoint file:  "JID_4258.chk"
 Charge =  1 Multiplicity = 2

 SCF Done:  E(UB3LYP) =  -669.306567380     A.U. after   20 cycles
 Normal termination of Gaussian 16 at Thu Dec 10 09:40:00 2020.
 Gaussian 16:  ES64L-G16RevA.03 25-Dec-2016

 ----------------------------------------------------------------------
 # B3LYP/6-311++G(d,p) empiricaldispersion=gd3bj scf=xqc pop=npa geom=c
 heck
 ----------------------------------------------------------------------

 ------------------------------------
 CID_134459170_JID_4258_Energie_anion
 ------------------------------------
 Structure from the checkpoint file:  "JID_4258.chk"
 Charge = -1 Multiplicity = 2

                         Standard orientation:
 ---------------------------------------------------------------------
 Center     Atomic      Atomic             Coordinates (Angstroms)
 Number     Number       Type             X           Y           Z
 ---------------------------------------------------------------------
      1          6           0       -1.721514    2.639044    0.087677
      2          6           0       -1.683905    1.138151   -0.052929
      3          6           0       -2.794355    0.396091    0.247365
      4          6           0       -2.847852   -1.046061    0.117121
      5          8           0       -3.801310   -1.778177    0.367844
      6          7           0       -1.639639   -1.591227   -0.357664
      7          6           0       -0.522454   -0.870586   -0.661296
      8          6           0       -0.483650    0.488021   -0.525279
      9          6           0        0.788350    1.245994   -0.824206
     10          6           0        1.667730    1.518571    0.415064
     11          6           0        2.149600    0.235816    1.102730
     12          6           0        3.039829   -0.581826    0.193123
     13          8           0        3.877189   -0.135763   -0.559966
     14          8           0        2.802430   -1.915787    0.301498
     15          1           0       -1.545606    3.129973   -0.877366
     16          1           0       -2.691953    2.971840    0.464129
     17          1           0       -0.947546    3.001227    0.773835
     18          1           0       -3.705182    0.868862    0.598604
     19          1           0       -1.644756   -2.598354   -0.465472
     20          1           0        0.332975   -1.445450   -0.999990
     21          1           0        1.386449    0.683900   -1.551021
     22          1           0        0.556059    2.202914   -1.304427
     23          1           0        2.540556    2.102800    0.105757
     24          1           0        1.114391    2.117259    1.147165
     25          1           0        2.746330    0.490125    1.988346
     26          1           0        1.312216   -0.377690    1.443253
     27          1           0        3.446389   -2.350287   -0.290396
 ---------------------------------------------------------------------

 SCF Done:  E(UB3LYP) =  -669.596309719     A.U. after   33 cycles
 SCF Done:  E(UB3LYP) =  -669.596309719     a.u. after    1 cycles

 The electronic state is 2-A.
 Alpha  occ. eigenvalues --  -19.06566 -19.01182 -18.95415 -14.23583 -10.20058
 Alpha  occ. eigenvalues --  -10.14171 -10.09302 -10.07712 -10.07201 -10.07081
 Alpha  occ. eigenvalues --  -10.06659 -10.06626 -10.05957 -10.03810  -1.00558
 Alpha  occ. eigenvalues --   -0.91698  -0.90962  -0.82884  -0.72434  -0.69376
 Alpha  occ. eigenvalues --   -0.64776  -0.60694  -0.60054  -0.53950  -0.50532
 Alpha  occ. eigenvalues --   -0.48867  -0.47141  -0.42192  -0.40397  -0.39060
 Alpha  occ. eigenvalues --   -0.37851  -0.37251  -0.35168  -0.34046  -0.32376
 Alpha  occ. eigenvalues --   -0.32008  -0.31502  -0.30594  -0.30011  -0.29675
 Alpha  occ. eigenvalues --   -0.28816  -0.27079  -0.25582  -0.25392  -0.23654
 Alpha  occ. eigenvalues --   -0.23034  -0.22345  -0.21594  -0.18176  -0.16945
 Alpha  occ. eigenvalues --   -0.13514  -0.09689   0.04430
 Alpha virt. eigenvalues --    0.06241   0.06905   0.08009   0.09355   0.09481
 Alpha virt. eigenvalues --    0.10157   0.10535   0.11140   0.11889   0.12070
 Alpha virt. eigenvalues --    0.12915   0.13196   0.14274   0.14422   0.15397

  Beta  occ. eigenvalues --  -19.06505 -19.01161 -18.95381 -14.23423 -10.20019
  Beta  occ. eigenvalues --  -10.14159 -10.09100 -10.07681 -10.07198 -10.07077
  Beta  occ. eigenvalues --  -10.06668 -10.06380 -10.06029 -10.03695  -1.00464
  Beta  occ. eigenvalues --   -0.91625  -0.90846  -0.82619  -0.72268  -0.69167
  Beta  occ. eigenvalues --   -0.64612  -0.60548  -0.59859  -0.53820  -0.50277
  Beta  occ. eigenvalues --   -0.48647  -0.47030  -0.42069  -0.40306  -0.38971
  Beta  occ. eigenvalues --   -0.37778  -0.37120  -0.34976  -0.33904  -0.32126
  Beta  occ. eigenvalues --   -0.31918  -0.31345  -0.30210  -0.29908  -0.29599
  Beta  occ. eigenvalues --   -0.28769  -0.27008  -0.25505  -0.25329  -0.23598
  Beta  occ. eigenvalues --   -0.22961  -0.22244  -0.21043  -0.18097  -0.15892
  Beta  occ. eigenvalues --   -0.13434  -0.09024
  Beta virt. eigenvalues --    0.07049   0.07563   0.08101   0.08880   0.09550
  Beta virt. eigenvalues --    0.09823   0.10519   0.10925   0.11101   0.11874
  Beta virt. eigenvalues --    0.12200   0.13102   0.13402   0.14366   0.14448

 Mulliken charges and spin densities:
               1          2
     1  C   -0.533798  -0.251995
     2  C    0.733127   0.227097
     3  C   -0.047626   0.023991
     4  C   -0.272643   0.081001
     5  O   -0.431502   0.010308
     6  N   -0.204172   0.081103
     7  C   -0.381332   0.003804
     8  C    0.198018  -0.006678
     9  C   -0.613557   0.310120
    10  C   -0.023026  -0.491152
    11  C    0.502818  -0.669960
    12  C    0.025558  -0.259785
    13  O   -0.282170   0.023244
    14  O   -0.155829   0.041026
    15  H    0.147564  -0.004754
    16  H    0.125776   0.017207
    17  H   -0.052177   0.201073
    18  H    0.127142   0.000402
    19  H    0.229373   0.052534
    20  H    0.159938   0.018702
    21  H    0.143924   0.033517
    22  H    0.126369   0.018475
    23  H    0.176585  -0.015464
    24  H    0.092823   0.037823
    25  H   -0.773737   0.975441
    26  H    0.387518  -0.147821
    27  H   -0.404963   0.690740
 Sum of Mulliken charges =  -1.00000   1.00000

 Dipole moment (field-independent basis, Debye):
    X=             -1.1515    Y=              3.6849    Z=             -2.7041  Tot=              4.7135
 Quadrupole moment (field-independent basis, Debye-Ang):
   XX=           -166.4238   YY=           -112.5882   ZZ=           -103.6387
   XY=             -4.0003   XZ=              0.3610   YZ=             -1.0327

 Summary of Natural Population Analysis:

                                       Natural Population
                Natural  -----------------------------------------------
    Atom  No    Charge         Core      Valence    Rydberg      Total
 -----------------------------------------------------------------------
      C    1   -0.29748      0.99964     2.29265    0.00520     3.29748
      C    2    0.04963      0.99949     1.94215    0.00872     2.95037
      C    3   -0.13873      0.99946     2.12915    0.01012     3.13873
      C    4    0.31160      0.99963     1.66697    0.02180     2.68840
      O    5   -0.34405      0.99988     3.33800    0.00617     4.34405
      N    6   -0.26655      0.99967     2.75836    0.00852     3.76655
      C    7    0.06734      0.99951     1.92172    0.01143     2.93266
      C    8   -0.08162      0.99947     2.07242    0.00973     3.08162
      C    9   -0.19485      0.99961     2.18671    0.00854     3.19485
      C   10   -0.18584      0.99962     2.17697    0.00925     3.18584
      C   11   -0.24297      0.99957     2.23411    0.00928     3.24297
      C   12    0.41238      0.99972     1.56257    0.02533     2.58762
      O   13   -0.31380      0.99987     3.30803    0.00591     4.31380
      O   14   -0.34452      0.99988     3.33759    0.00705     4.34452
      H   15    0.10068      0.00000     0.39849    0.00083     0.39932
      H   16    0.10030      0.00000     0.39902    0.00068     0.39970
      H   17    0.10473      0.00000     0.39414    0.00113     0.39527
      H   18    0.09740      0.00000     0.40133    0.00128     0.40260
      H   19    0.19351      0.00000     0.30378    0.00272     0.30649
      H   20    0.09707      0.00000     0.40178    0.00116     0.40293
      H   21    0.10227      0.00000     0.39659    0.00114     0.39773
      H   22    0.09910      0.00000     0.39991    0.00099     0.40090
      H   23    0.10168      0.00000     0.39727    0.00105     0.39832
      H   24    0.09822      0.00000     0.40059    0.00119     0.40178
      H   25    0.11858      0.00000     0.37857    0.00286     0.38142
      H   26    0.11430      0.00000     0.38424    0.00146     0.38570
      H   27    0.24164      0.00000     0.24290    0.01546     0.25836
 =======================================================================
   * Total *    0.00000     13.99501    37.82600    0.17899    52.00000

 Normal termination of Gaussian 16 at Thu Dec 10 09:50:41 2020.
