 Gaussian 16, Revision A.03,

 -----------------------------------------------------------
 # opt freq B3LYP/6-31G(d) empiricaldispersion=gd3bj scf=xqc
 -----------------------------------------------------------

 ------------------------------
 CID_78950977_JID_9888_neutraal
 ------------------------------
 Symbolic Z-matrix:
 Charge =  0 Multiplicity = 1

 SCF Done:  E(RB3LYP) =  -818.963157404     A.U. after   16 cycles
 SCF Done:  E(RB3LYP) =  -818.969511100     A.U. after   14 cycles
 SCF Done:  E(RB3LYP) =  -818.966890497     A.U. after   15 cycles
 SCF Done:  E(RB3LYP) =  -818.971724248     A.U. after   14 cycles
 SCF Done:  E(RB3LYP) =  -818.974956742     A.U. after   13 cycles
 SCF Done:  E(RB3LYP) =  -818.977213438     A.U. after   14 cycles
 SCF Done:  E(RB3LYP) =  -818.977673127     A.U. after   13 cycles
 SCF Done:  E(RB3LYP) =  -818.978843860     A.U. after   12 cycles
 SCF Done:  E(RB3LYP) =  -818.979266217     A.U. after   12 cycles
 SCF Done:  E(RB3LYP) =  -818.979512096     A.U. after   12 cycles
 SCF Done:  E(RB3LYP) =  -818.979686388     A.U. after    9 cycles
 SCF Done:  E(RB3LYP) =  -818.979687002     A.U. after    8 cycles
 SCF Done:  E(RB3LYP) =  -818.979687302     A.U. after    8 cycles
 SCF Done:  E(RB3LYP) =  -818.979687418     A.U. after    7 cycles
 SCF Done:  E(RB3LYP) =  -818.979687388     A.U. after    7 cycles
 Optimization completed.
    -- Stationary point found.
 Normal termination of Gaussian 16 at Sun Dec 13 20:52:50 2020.

 --------------------------------------------------------------------
 #N Geom=AllCheck Guess=TCheck SCRF=Check GenChk RB3LYP/6-31G(d) Freq
 --------------------------------------------------------------------

 Structure from the checkpoint file:  "JID_9888.chk"
 ------------------------------
 CID_78950977_JID_9888_neutraal
 ------------------------------
 Charge =  0 Multiplicity = 1

 SCF Done:  E(RB3LYP) =  -818.979687388     A.U. after    1 cycles

  Exact polarizability: 224.872 -16.150 145.113  34.693  10.734 140.414
 Approx polarizability: 337.977 -43.773 259.687  71.380  27.110 236.207

                      1                      2                      3
                      A                      A                      A
 Frequencies --     19.6048                45.0966                62.0390
 Red. masses --      5.3432                 6.4999                 5.1302
 Frc consts  --      0.0012                 0.0078                 0.0116
 IR Inten    --      1.2586                 0.1150                 0.9008

                      4                      5                      6
                      A                      A                      A
 Frequencies --     75.2749               102.1912               125.8805
 Red. masses --      8.3078                 4.0191                 5.0446
 Frc consts  --      0.0277                 0.0247                 0.0471
 IR Inten    --      4.4146                 0.4187                 3.6160

                      7                      8                      9
                      A                      A                      A
 Frequencies --    145.0014               184.9396               192.4955
 Red. masses --      4.4432                 1.2411                 2.5290
 Frc consts  --      0.0550                 0.0250                 0.0552
 IR Inten    --      4.1874                 0.2712                 1.3147

                     10                     11                     12
                      A                      A                      A
 Frequencies --    194.5464               210.7176               249.0286
 Red. masses --      2.8452                 1.3295                 3.5924
 Frc consts  --      0.0634                 0.0348                 0.1313
 IR Inten    --      1.4971                 0.5905                 2.9784

                     13                     14                     15
                      A                      A                      A
 Frequencies --    283.7244               310.1847               331.8800
 Red. masses --      4.5251                 3.9978                 4.9430
 Frc consts  --      0.2146                 0.2266                 0.3208
 IR Inten    --      3.5718                 0.3762                 9.8252

                     16                     17                     18
                      A                      A                      A
 Frequencies --    370.9092               397.0859               418.1520
 Red. masses --      4.7666                 3.7050                 4.9675
 Frc consts  --      0.3864                 0.3442                 0.5117
 IR Inten    --      0.9692                 1.5445                 0.2291

                     19                     20                     21
                      A                      A                      A
 Frequencies --    422.8439               449.6574               480.9663
 Red. masses --      4.2571                 4.0104                 3.2709
 Frc consts  --      0.4485                 0.4778                 0.4458
 IR Inten    --      2.5798                 0.7018                 0.3298

                     22                     23                     24
                      A                      A                      A
 Frequencies --    486.8457               516.0734               548.1372
 Red. masses --      4.8285                 4.7403                 1.3856
 Frc consts  --      0.6743                 0.7438                 0.2453
 IR Inten    --      0.6379                14.1621                84.5964

                     25                     26                     27
                      A                      A                      A
 Frequencies --    573.0124               581.5569               608.7898
 Red. masses --      4.0814                 5.6081                 5.5293
 Frc consts  --      0.7896                 1.1175                 1.2074
 IR Inten    --      6.1784                 4.9543                 5.8281

                     28                     29                     30
                      A                      A                      A
 Frequencies --    640.5755               684.4791               709.9351
 Red. masses --      6.0395                 5.7457                 5.8792
 Frc consts  --      1.4601                 1.5860                 1.7459
 IR Inten    --      5.0001                 3.9757                 4.6398

                     31                     32                     33
                      A                      A                      A
 Frequencies --    730.1959               735.7186               746.6859
 Red. masses --      4.2366                 4.9649                 4.5129
 Frc consts  --      1.3309                 1.5834                 1.4825
 IR Inten    --     12.8675                 3.5052                 4.1714

                     34                     35                     36
                      A                      A                      A
 Frequencies --    764.2771               812.2066               840.8898
 Red. masses --      2.2236                 3.9674                 1.8050
 Frc consts  --      0.7653                 1.5420                 0.7520
 IR Inten    --     40.8005                 2.4376                12.2762

                     37                     38                     39
                      A                      A                      A
 Frequencies --    842.5587               865.0185               915.0127
 Red. masses --      1.4511                 5.3586                 1.5010
 Frc consts  --      0.6069                 2.3624                 0.7404
 IR Inten    --     15.8103                 3.1004                 6.5992

                     40                     41                     42
                      A                      A                      A
 Frequencies --    970.0313               974.1406               984.0753
 Red. masses --      1.3241                 1.3846                 2.9155
 Frc consts  --      0.7341                 0.7741                 1.6635
 IR Inten    --      1.1975                 0.3709                11.7488

                     43                     44                     45
                      A                      A                      A
 Frequencies --    993.0825              1006.6354              1030.2388
 Red. masses --      1.3537                 1.7087                 1.6388
 Frc consts  --      0.7866                 1.0202                 1.0248
 IR Inten    --      0.5877                 0.4919                 2.5001

                     46                     47                     48
                      A                      A                      A
 Frequencies --   1074.7931              1078.1801              1099.3265
 Red. masses --      1.5862                 1.5189                 2.4460
 Frc consts  --      1.0796                 1.0403                 1.7416
 IR Inten    --      4.6427                 7.0565                 3.6508

                     49                     50                     51
                      A                      A                      A
 Frequencies --   1123.4325              1163.4657              1171.9362
 Red. masses --      2.9136                 1.6457                 1.5729
 Frc consts  --      2.1666                 1.3126                 1.2728
 IR Inten    --     12.8611                18.0759                24.7797

                     52                     53                     54
                      A                      A                      A
 Frequencies --   1199.1841              1236.0510              1242.7019
 Red. masses --      1.8122                 2.2847                 2.5670
 Frc consts  --      1.5354                 2.0566                 2.3357
 IR Inten    --      0.8824                 2.4696                 4.2651

                     55                     56                     57
                      A                      A                      A
 Frequencies --   1286.2809              1303.6128              1314.3138
 Red. masses --      3.5297                 1.9373                 4.6428
 Frc consts  --      3.4408                 1.9398                 4.7253
 IR Inten    --     11.3648                25.9433                 4.8535

                     58                     59                     60
                      A                      A                      A
 Frequencies --   1317.2249              1353.7128              1372.1150
 Red. masses --      1.6075                 7.4697                 3.4311
 Frc consts  --      1.6434                 8.0650                 3.8059
 IR Inten    --      5.4852                 8.4234               335.3619

                     61                     62                     63
                      A                      A                      A
 Frequencies --   1416.8370              1439.0551              1444.3782
 Red. masses --      2.0941                 1.2461                 1.2454
 Frc consts  --      2.4768                 1.5204                 1.5308
 IR Inten    --      4.8904                 2.2911                 0.9527

                     64                     65                     66
                      A                      A                      A
 Frequencies --   1478.8776              1491.0878              1494.7191
 Red. masses --      2.6708                 1.8779                 2.3318
 Frc consts  --      3.4416                 2.4600                 3.0694
 IR Inten    --     29.8937                 5.2418               102.4705

                     67                     68                     69
                      A                      A                      A
 Frequencies --   1511.1156              1515.3313              1520.6703
 Red. masses --      1.1291                 1.1119                 1.2155
 Frc consts  --      1.5191                 1.5043                 1.6561
 IR Inten    --      9.2582                10.0215                13.4188

                     70                     71                     72
                      A                      A                      A
 Frequencies --   1524.2261              1552.3222              1615.5452
 Red. masses --      1.0785                 2.6744                 5.7714
 Frc consts  --      1.4763                 3.7970                 8.8750
 IR Inten    --     25.7585                27.6358                18.6587

                     73                     74                     75
                      A                      A                      A
 Frequencies --   1618.7287              1646.5398              1666.7399
 Red. masses --      5.3046                 5.8887                 5.9528
 Frc consts  --      8.1894                 9.4062                 9.7433
 IR Inten    --     25.1316                41.6788                 6.0804

                     76                     77                     78
                      A                      A                      A
 Frequencies --   1768.9174              2353.1751              3065.2471
 Red. masses --      8.8158                12.6786                 1.0362
 Frc consts  --     16.2527                41.3648                 5.7361
 IR Inten    --    404.9593                35.6005                12.7633

                     79                     80                     81
                      A                      A                      A
 Frequencies --   3071.5340              3125.8070              3134.1064
 Red. masses --      1.0375                 1.1011                 1.0992
 Frc consts  --      5.7669                 6.3387                 6.3613
 IR Inten    --      7.8382                11.7791                10.0681

                     82                     83                     84
                      A                      A                      A
 Frequencies --   3145.6282              3163.6308              3173.4664
 Red. masses --      1.1019                 1.1029                 1.0896
 Frc consts  --      6.4240                 6.5036                 6.4654
 IR Inten    --      7.9178                11.4774                23.1800

                     85                     86                     87
                      A                      A                      A
 Frequencies --   3195.9323              3209.4886              3217.6545
 Red. masses --      1.0893                 1.0892                 1.0920
 Frc consts  --      6.5554                 6.6105                 6.6613
 IR Inten    --      7.7656                 7.5764                 1.5353

                     88                     89                     90
                      A                      A                      A
 Frequencies --   3223.8713              3227.0440              3573.1445
 Red. masses --      1.0968                 1.0942                 1.0752
 Frc consts  --      6.7166                 6.7137                 8.0882
 IR Inten    --     11.6008                 3.1504                37.8602

 - Thermochemistry -
 -------------------
 Temperature   298.150 Kelvin.  Pressure   1.00000 Atm.
 Atom     1 has atomic number  6 and mass  12.00000

 Molecular mass:   251.10586 amu.
 Principal axes and moments of inertia in atomic units:
                           1         2         3
     Eigenvalues --  2652.305677095.561217351.14071
           X            0.99998   0.00539   0.00417
           Y           -0.00523   0.99924  -0.03852
           Z           -0.00437   0.03850   0.99925
 This molecule is an asymmetric top.
 Rotational symmetry number  1.
 Warning -- assumption of classical behavior for rotation
           may cause significant error
 Rotational temperatures (Kelvin)      0.03266     0.01221     0.01178
 Rotational constants (GHZ):           0.68044     0.25435     0.24550
 Zero-point vibrational energy     661257.0 (Joules/Mol)
                                  158.04423 (Kcal/Mol)
 Warning -- explicit consideration of  27 degrees of freedom as
           vibrations may cause significant error
 Vibrational temperatures:     28.21    64.88    89.26   108.30   147.03
          (Kelvin)            181.11   208.62   266.09   276.96   279.91
                              303.18   358.30   408.22   446.29   477.50
                              533.66   571.32   601.63   608.38   646.96
                              692.00   700.46   742.51   788.65   824.44
                              836.73   875.91   921.65   984.81  1021.44
                             1050.59  1058.53  1074.31  1099.62  1168.58
                             1209.85  1212.25  1244.57  1316.50  1395.66
                             1401.57  1415.86  1428.82  1448.32  1482.28
                             1546.39  1551.26  1581.69  1616.37  1673.97
                             1686.15  1725.36  1778.40  1787.97  1850.67
                             1875.61  1891.00  1895.19  1947.69  1974.17
                             2038.51  2070.48  2078.14  2127.78  2145.34
                             2150.57  2174.16  2180.22  2187.91  2193.02
                             2233.45  2324.41  2328.99  2369.00  2398.07
                             2545.08  3385.69  4410.21  4419.25  4497.34
                             4509.28  4525.86  4551.76  4565.91  4598.23
                             4617.74  4629.49  4638.43  4643.00  5140.96

 Zero-point correction=                           0.251860 (Hartree/Particle)
 Thermal correction to Energy=                    0.268578
 Thermal correction to Enthalpy=                  0.269523
 Thermal correction to Gibbs Free Energy=         0.206606
 Sum of electronic and zero-point Energies=           -818.727828
 Sum of electronic and thermal Energies=              -818.711109
 Sum of electronic and thermal Enthalpies=            -818.710165
 Sum of electronic and thermal Free Energies=         -818.773081

                     E (Thermal)             CV                S
                      KCal/Mol        Cal/Mol-Kelvin    Cal/Mol-Kelvin
 Total                  168.535             63.901            132.418
 Electronic               0.000              0.000              0.000
 Translational            0.889              2.981             42.462
 Rotational               0.889              2.981             33.292
 Vibrational            166.758             57.939             56.664
 Vibration     1          0.593              1.986              6.674
 Vibration     2          0.595              1.979              5.022
 Vibration     3          0.597              1.972              4.391
 Vibration     4          0.599              1.965              4.010
 Vibration     5          0.604              1.947              3.412
 Vibration     6          0.611              1.927              3.008
 Vibration     7          0.616              1.908              2.737
 Vibration     8          0.631              1.860              2.278
 Vibration     9          0.634              1.850              2.204
 Vibration    10          0.635              1.847              2.184
 Vibration    11          0.643              1.824              2.037
 Vibration    12          0.662              1.764              1.737
 Vibration    13          0.682              1.704              1.511
 Vibration    14          0.699              1.654              1.361
 Vibration    15          0.714              1.612              1.251
 Vibration    16          0.743              1.532              1.076
 Vibration    17          0.764              1.476              0.973
 Vibration    18          0.781              1.431              0.898
 Vibration    19          0.785              1.421              0.882
 Vibration    20          0.809              1.362              0.797
 Vibration    21          0.837              1.292              0.707
 Vibration    22          0.843              1.279              0.692
 Vibration    23          0.871              1.214              0.619
 Vibration    24          0.903              1.144              0.548
 Vibration    25          0.929              1.090              0.498
 Vibration    26          0.938              1.071              0.482
 Vibration    27          0.968              1.013              0.435

 Optimization completed.
    -- Stationary point found.
 Normal termination of Gaussian 16 at Sun Dec 13 21:09:39 2020.

 ----------------------------------------------------------------------
 # B3LYP/6-311++G(d,p) empiricaldispersion=gd3bj scf=xqc pop=npa geom=c
 heck
 ----------------------------------------------------------------------

 --------------------------------------
 CID_78950977_JID_9888_Energie_neutraal
 --------------------------------------
 Structure from the checkpoint file:  "JID_9888.chk"
 Charge =  0 Multiplicity = 1

 SCF Done:  E(RB3LYP) =  -819.197043526     A.U. after   16 cycles
 Normal termination of Gaussian 16 at Sun Dec 13 21:15:48 2020.

 ----------------------------------------------------------------------
 # B3LYP/6-311++G(d,p) empiricaldispersion=gd3bj scf=xqc pop=npa geom=c
 heck
 ----------------------------------------------------------------------

 ------------------------------------
 CID_78950977_JID_9888_Energie_kation
 ------------------------------------
 Structure from the checkpoint file:  "JID_9888.chk"
 Charge =  1 Multiplicity = 2

 SCF Done:  E(UB3LYP) =  -818.874927091     A.U. after   33 cycles
 SCF Done:  E(UB3LYP) =  -818.874927091     a.u. after    1 cycles
 Normal termination of Gaussian 16 at Sun Dec 13 21:32:56 2020.
 Gaussian 16:  ES64L-G16RevA.03 25-Dec-2016

 ----------------------------------------------------------------------
 # B3LYP/6-311++G(d,p) empiricaldispersion=gd3bj scf=xqc pop=npa geom=c
 heck
 ----------------------------------------------------------------------

 -----------------------------------
 CID_78950977_JID_9888_Energie_anion
 -----------------------------------
 Structure from the checkpoint file:  "JID_9888.chk"
 Charge = -1 Multiplicity = 2

                         Standard orientation:
 ---------------------------------------------------------------------
 Center     Atomic      Atomic             Coordinates (Angstroms)
 Number     Number       Type             X           Y           Z
 ---------------------------------------------------------------------
      1          6           0       -0.465633    0.710172   -2.334035
      2          6           0        0.729684    0.369025   -1.484702
      3          6           0        0.944199    0.921076   -0.205583
      4          6           0        2.129862    0.658527    0.486114
      5          6           0        3.101952   -0.186467   -0.057710
      6          6           0        2.873655   -0.790923   -1.303913
      7          6           0        1.703874   -0.503653   -1.992418
      8          6           0        4.310709   -0.445457    0.665095
      9          7           0        5.292802   -0.655791    1.251490
     10          7           0        0.013972    1.800385    0.407404
     11          6           0       -1.333961    1.638437    0.670085
     12          8           0       -1.999489    2.588684    1.060189
     13          6           0       -1.960725    0.296419    0.436688
     14          6           0       -1.492927   -0.926573    0.955454
     15          7           0       -2.116768   -2.086923    0.684398
     16          6           0       -3.217612   -2.071503   -0.067813
     17          6           0       -3.801750   -0.901265   -0.556859
     18          6           0       -3.161641    0.298921   -0.284769
     19          6           0       -0.322274   -1.047028    1.896692
     20          1           0       -1.266730   -0.027173   -2.218951
     21          1           0       -0.181092    0.729345   -3.390573
     22          1           0       -0.878714    1.687252   -2.070765
     23          1           0        2.284163    1.100577    1.464606
     24          1           0        3.616783   -1.459234   -1.724695
     25          1           0        1.543974   -0.944408   -2.972345
     26          1           0        0.356120    2.706278    0.708945
     27          1           0       -3.666682   -3.041613   -0.274101
     28          1           0       -4.725033   -0.935406   -1.125961
     29          1           0       -3.563756    1.246718   -0.628261
     30          1           0       -0.586469   -1.747607    2.693445
     31          1           0        0.551849   -1.456416    1.379734
     32          1           0       -0.043014   -0.089730    2.340409
 ---------------------------------------------------------------------

 SCF Done:  E(UB3LYP) =  -819.218285901     A.U. after   28 cycles

 The electronic state is 2-A.
 Alpha  occ. eigenvalues --  -18.97838 -14.23287 -14.18631 -14.18105 -10.16400
 Alpha  occ. eigenvalues --  -10.10666 -10.10474 -10.08581 -10.08260 -10.07827
 Alpha  occ. eigenvalues --  -10.07271 -10.07015 -10.07000 -10.06875 -10.06816
 Alpha  occ. eigenvalues --  -10.06010 -10.05794 -10.05292 -10.05246  -0.93225
 Alpha  occ. eigenvalues --   -0.82982  -0.82412  -0.78348  -0.74319  -0.69463
 Alpha  occ. eigenvalues --   -0.67468  -0.67410  -0.63703  -0.59919  -0.59165
 Alpha  occ. eigenvalues --   -0.54410  -0.51338  -0.50585  -0.49614  -0.47533
 Alpha  occ. eigenvalues --   -0.44613  -0.40656  -0.38437  -0.37961  -0.37622
 Alpha  occ. eigenvalues --   -0.35955  -0.35221  -0.33109  -0.32023  -0.31892
 Alpha  occ. eigenvalues --   -0.31090  -0.30699  -0.29833  -0.29768  -0.28799
 Alpha  occ. eigenvalues --   -0.27648  -0.27005  -0.26346  -0.25793  -0.25102
 Alpha  occ. eigenvalues --   -0.24958  -0.24054  -0.22275  -0.21178  -0.18042
 Alpha  occ. eigenvalues --   -0.18038  -0.16255  -0.14739  -0.14067  -0.13800
 Alpha  occ. eigenvalues --   -0.12686   0.03022
 Alpha virt. eigenvalues --    0.05860   0.07468   0.08126   0.08405   0.08658
 Alpha virt. eigenvalues --    0.09208   0.09416   0.10215   0.10736   0.11504
 Alpha virt. eigenvalues --    0.11979   0.12639   0.13044   0.13342   0.14040

  Beta  occ. eigenvalues --  -18.97762 -14.23269 -14.18511 -14.17917 -10.16344
  Beta  occ. eigenvalues --  -10.10684 -10.10563 -10.08382 -10.08257 -10.07651
  Beta  occ. eigenvalues --  -10.07321 -10.06931 -10.06921 -10.06828 -10.06642
  Beta  occ. eigenvalues --  -10.06026 -10.05681 -10.05238 -10.04954  -0.93085
  Beta  occ. eigenvalues --   -0.82770  -0.82296  -0.78056  -0.74032  -0.69172
  Beta  occ. eigenvalues --   -0.67260  -0.67077  -0.63413  -0.59766  -0.59033
  Beta  occ. eigenvalues --   -0.54061  -0.51152  -0.50196  -0.49450  -0.47356
  Beta  occ. eigenvalues --   -0.44475  -0.40551  -0.38312  -0.37805  -0.37464
  Beta  occ. eigenvalues --   -0.35785  -0.35024  -0.32882  -0.31892  -0.31751
  Beta  occ. eigenvalues --   -0.30882  -0.30607  -0.29717  -0.29540  -0.28673
  Beta  occ. eigenvalues --   -0.26943  -0.26866  -0.25906  -0.25518  -0.24925
  Beta  occ. eigenvalues --   -0.24843  -0.23791  -0.21613  -0.21055  -0.17755
  Beta  occ. eigenvalues --   -0.17270  -0.15951  -0.14146  -0.13533  -0.12767
  Beta  occ. eigenvalues --   -0.12041
  Beta virt. eigenvalues --    0.07211   0.07414   0.07744   0.08283   0.08542
  Beta virt. eigenvalues --    0.08929   0.09195   0.09846   0.10189   0.10845
  Beta virt. eigenvalues --    0.11474   0.11933   0.12689   0.13088   0.13483

 Mulliken charges and spin densities:
               1          2
     1  C   -0.600846  -0.015669
     2  C    0.634003   0.054430
     3  C    0.455466  -0.091873
     4  C   -0.316875   0.315182
     5  C    1.484367   0.139029
     6  C   -0.434653  -0.029469
     7  C   -0.536462   0.149026
     8  C   -1.634344  -0.063850
     9  N   -0.283381   0.101415
    10  N   -0.309792  -0.004606
    11  C   -0.470552   0.022077
    12  O   -0.302497   0.022245
    13  C    1.276627   0.042878
    14  C   -1.105649  -0.000139
    15  N    0.045524   0.045810
    16  C   -0.044208   0.150665
    17  C   -0.313639  -0.050238
    18  C   -0.138662   0.186458
    19  C   -0.653780  -0.023287
    20  H    0.198093   0.019136
    21  H    0.130781   0.022818
    22  H    0.166796   0.001184
    23  H    0.178385  -0.011905
    24  H    0.163234   0.004454
    25  H    0.138767  -0.006614
    26  H    0.280976   0.030432
    27  H    0.154276  -0.011975
    28  H    0.132437   0.003561
    29  H    0.181881  -0.010571
    30  H    0.175310  -0.002215
    31  H    0.223742   0.002124
    32  H    0.124675   0.009486
 Sum of Mulliken charges =  -1.00000   1.00000

 Dipole moment (field-independent basis, Debye):
    X=             -4.4581    Y=              0.5066    Z=             -3.7666  Tot=              5.8582
 Quadrupole moment (field-independent basis, Debye-Ang):
   XX=           -187.2430   YY=           -135.0889   ZZ=           -123.8286
   XY=              9.0718   XZ=             -4.1923   YZ=              1.4430

 Summary of Natural Population Analysis:

                                       Natural Population
                Natural  -----------------------------------------------
    Atom  No    Charge         Core      Valence    Rydberg      Total
 -----------------------------------------------------------------------
      C    1   -0.29758      0.99964     2.29323    0.00471     3.29758
      C    2    0.01942      0.99947     1.97202    0.00909     2.98058
      C    3    0.05200      0.99942     1.93663    0.01196     2.94800
      C    4   -0.01718      0.99949     2.00921    0.00848     3.01718
      C    5   -0.07396      0.99942     2.06376    0.01078     3.07396
      C    6   -0.08710      0.99954     2.08011    0.00745     3.08710
      C    7   -0.08546      0.99953     2.07795    0.00799     3.08546
      C    8    0.15271      0.99964     1.82972    0.01793     2.84729
      N    9   -0.17535      0.99979     2.66465    0.01091     3.67535
      N   10   -0.31607      0.99964     2.80522    0.01121     3.81607
      C   11    0.34956      0.99962     1.62926    0.02155     2.65044
      O   12   -0.31865      0.99988     3.31282    0.00595     4.31865
      C   13   -0.08094      0.99941     2.06911    0.01242     3.08094
      C   14    0.11773      0.99952     1.86707    0.01568     2.88227
      N   15   -0.23061      0.99968     2.71977    0.01116     3.73061
      C   16    0.06441      0.99960     1.92181    0.01417     2.93559
      C   17   -0.14854      0.99956     2.14052    0.00846     3.14854
      C   18   -0.03148      0.99954     2.02319    0.00875     3.03148
      C   19   -0.30055      0.99963     2.29562    0.00529     3.30055
      H   20    0.11410      0.00000     0.38492    0.00098     0.38590
      H   21    0.09870      0.00000     0.40050    0.00080     0.40130
      H   22    0.10454      0.00000     0.39467    0.00079     0.39546
      H   23    0.09883      0.00000     0.40038    0.00079     0.40117
      H   24    0.09983      0.00000     0.39927    0.00090     0.40017
      H   25    0.09381      0.00000     0.40498    0.00122     0.40619
      H   26    0.19520      0.00000     0.30324    0.00156     0.30480
      H   27    0.08037      0.00000     0.41836    0.00127     0.41963
      H   28    0.09722      0.00000     0.40169    0.00109     0.40278
      H   29    0.10245      0.00000     0.39654    0.00101     0.39755
      H   30    0.10561      0.00000     0.39344    0.00095     0.39439
      H   31    0.11531      0.00000     0.38385    0.00083     0.38469
      H   32    0.10166      0.00000     0.39758    0.00076     0.39834
 =======================================================================
   * Total *    0.00000     18.99201    46.79109    0.21689    66.00000

 Normal termination of Gaussian 16 at Sun Dec 13 21:47:30 2020.
