 Gaussian 16, Revision A.03,

 -----------------------------------------------------------
 # opt freq B3LYP/6-31G(d) empiricaldispersion=gd3bj scf=xqc
 -----------------------------------------------------------

 -------------------------------
 CID_45926129_JID_10503_neutraal
 -------------------------------
 Symbolic Z-matrix:
 Charge =  0 Multiplicity = 1

 SCF Done:  E(RB3LYP) =  -993.130005191     A.U. after   15 cycles
 SCF Done:  E(RB3LYP) =  -993.136932878     A.U. after   12 cycles
 SCF Done:  E(RB3LYP) =  -993.138009547     A.U. after   11 cycles
 SCF Done:  E(RB3LYP) =  -993.137958825     A.U. after   12 cycles
 SCF Done:  E(RB3LYP) =  -993.138290286     A.U. after   11 cycles
 SCF Done:  E(RB3LYP) =  -993.138638628     A.U. after   11 cycles
 SCF Done:  E(RB3LYP) =  -993.138654761     A.U. after   11 cycles
 SCF Done:  E(RB3LYP) =  -993.138699591     A.U. after   10 cycles
 SCF Done:  E(RB3LYP) =  -993.138709078     A.U. after   10 cycles
 SCF Done:  E(RB3LYP) =  -993.138712197     A.U. after    9 cycles
 SCF Done:  E(RB3LYP) =  -993.138713397     A.U. after    8 cycles
 SCF Done:  E(RB3LYP) =  -993.138714049     A.U. after    7 cycles
 SCF Done:  E(RB3LYP) =  -993.138714184     A.U. after    7 cycles
 SCF Done:  E(RB3LYP) =  -993.138714210     A.U. after    6 cycles
 Optimization completed.
    -- Stationary point found.
 Normal termination of Gaussian 16 at Sun Dec 13 16:50:17 2020.

 --------------------------------------------------------------------
 #N Geom=AllCheck Guess=TCheck SCRF=Check GenChk RB3LYP/6-31G(d) Freq
 --------------------------------------------------------------------

 Structure from the checkpoint file:  "JID_10503.chk"
 -------------------------------
 CID_45926129_JID_10503_neutraal
 -------------------------------
 Charge =  0 Multiplicity = 1

 SCF Done:  E(RB3LYP) =  -993.138714210     A.U. after    1 cycles

  Exact polarizability: 219.203  -8.493 169.439   0.006   0.006 112.452
 Approx polarizability: 274.935 -19.948 280.657   0.011   0.020 162.132

                      1                      2                      3
                      A                      A                      A
 Frequencies --     22.9617                26.5399                58.2990
 Red. masses --      4.5117                 3.1460                 6.2053
 Frc consts  --      0.0014                 0.0013                 0.0124
 IR Inten    --      2.1496                 0.0002                 0.0083

                      4                      5                      6
                      A                      A                      A
 Frequencies --     63.3037                64.8292                99.1752
 Red. masses --      4.3665                 4.9363                 4.5626
 Frc consts  --      0.0103                 0.0122                 0.0264
 IR Inten    --      0.8481                 0.1714                 0.1260

                      7                      8                      9
                      A                      A                      A
 Frequencies --    118.9980               147.4807               154.7151
 Red. masses --      4.2475                 7.6897                 4.8937
 Frc consts  --      0.0354                 0.0985                 0.0690
 IR Inten    --      0.1807                 0.8366                 1.4829

                     10                     11                     12
                      A                      A                      A
 Frequencies --    177.2147               190.9732               203.2018
 Red. masses --      5.0822                 3.1089                 3.7780
 Frc consts  --      0.0940                 0.0668                 0.0919
 IR Inten    --      2.6307                 0.4367                 1.8175

                     13                     14                     15
                      A                      A                      A
 Frequencies --    204.3547               226.5305               256.1641
 Red. masses --      1.0600                 1.1416                 1.1549
 Frc consts  --      0.0261                 0.0345                 0.0446
 IR Inten    --      0.0105                 0.0328                 0.1783

                     16                     17                     18
                      A                      A                      A
 Frequencies --    260.0997               267.0781               273.5634
 Red. masses --      1.5062                 1.0765                 1.7486
 Frc consts  --      0.0600                 0.0452                 0.0771
 IR Inten    --      0.2007                 0.0702                 1.0263

                     19                     20                     21
                      A                      A                      A
 Frequencies --    294.9693               307.4626               313.4755
 Red. masses --      1.2021                 3.3696                 2.9048
 Frc consts  --      0.0616                 0.1877                 0.1682
 IR Inten    --      0.0036                 3.1745                 0.6552

                     22                     23                     24
                      A                      A                      A
 Frequencies --    324.5059               337.9587               350.5435
 Red. masses --      3.1899                 3.1845                 2.5068
 Frc consts  --      0.1979                 0.2143                 0.1815
 IR Inten    --      8.7577                 2.3089                 1.4428

                     25                     26                     27
                      A                      A                      A
 Frequencies --    377.9369               389.6474               412.1023
 Red. masses --      3.0307                 3.5152                 4.2916
 Frc consts  --      0.2551                 0.3144                 0.4294
 IR Inten    --      0.0074                 0.2857                 7.4684

                     28                     29                     30
                      A                      A                      A
 Frequencies --    439.6742               443.7504               461.9233
 Red. masses --      2.9475                 4.8962                 2.9507
 Frc consts  --      0.3357                 0.5680                 0.3709
 IR Inten    --      6.4297                 0.6908                 2.4936

                     31                     32                     33
                      A                      A                      A
 Frequencies --    464.9697               475.4462               571.7603
 Red. masses --      4.2317                 4.0833                 3.6116
 Frc consts  --      0.5390                 0.5438                 0.6956
 IR Inten    --      1.4396                 1.4436                 1.5336

                     34                     35                     36
                      A                      A                      A
 Frequencies --    599.7661               638.6413               674.8018
 Red. masses --      1.2182                 4.8299                10.4346
 Frc consts  --      0.2582                 1.1607                 2.7995
 IR Inten    --     87.7184                 1.2562                 0.0375

                     37                     38                     39
                      A                      A                      A
 Frequencies --    690.6409               719.8632               729.7533
 Red. masses --      5.3860                 4.6264                 1.8906
 Frc consts  --      1.5136                 1.4125                 0.5932
 IR Inten    --     57.0462                41.6011                 1.8333

                     40                     41                     42
                      A                      A                      A
 Frequencies --    748.2671               766.2999               791.2092
 Red. masses --      3.0422                 3.0647                 9.9552
 Frc consts  --      1.0036                 1.0603                 3.6718
 IR Inten    --     16.9298                88.8872                33.0471

                     43                     44                     45
                      A                      A                      A
 Frequencies --    794.1827               825.9962               839.9826
 Red. masses --      5.1092                 4.0367                 3.2851
 Frc consts  --      1.8986                 1.6227                 1.3656
 IR Inten    --      5.6580                34.3520                 0.1961

                     46                     47                     48
                      A                      A                      A
 Frequencies --    893.2318               938.6910               940.5429
 Red. masses --      5.6472                 1.6296                 1.6415
 Frc consts  --      2.6547                 0.8460                 0.8556
 IR Inten    --      2.7961                 0.0855                 0.5970

                     49                     50                     51
                      A                      A                      A
 Frequencies --    941.5823               951.8374               955.5446
 Red. masses --      7.0844                 1.7946                 1.7985
 Frc consts  --      3.7006                 0.9579                 0.9675
 IR Inten    --      4.9499                 1.1958                 2.8260

                     52                     53                     54
                      A                      A                      A
 Frequencies --    984.7433               987.2121              1033.4515
 Red. masses --      1.1982                 1.1944                 5.1886
 Frc consts  --      0.6846                 0.6858                 3.2650
 IR Inten    --      0.2240                 0.1169                42.9416

                     55                     56                     57
                      A                      A                      A
 Frequencies --   1059.4494              1068.1912              1068.4114
 Red. masses --      1.6286                 1.4070                 1.3952
 Frc consts  --      1.0770                 0.9459                 0.9383
 IR Inten    --     41.2634                 0.3488                 0.0680

                     58                     59                     60
                      A                      A                      A
 Frequencies --   1073.7484              1094.7628              1132.5464
 Red. masses --      1.5707                 3.3998                 6.4799
 Frc consts  --      1.0670                 2.4007                 4.8970
 IR Inten    --      0.8998               104.1596               106.2971

                     61                     62                     63
                      A                      A                      A
 Frequencies --   1219.3680              1236.4453              1241.6217
 Red. masses --      2.3321                 2.9412                 2.6115
 Frc consts  --      2.0430                 2.6492                 2.3720
 IR Inten    --    538.2321                18.2521                 2.6062

                     64                     65                     66
                      A                      A                      A
 Frequencies --   1244.8067              1268.8351              1288.1214
 Red. masses --      1.9699                 2.8140                 2.6873
 Frc consts  --      1.7984                 2.6692                 2.6271
 IR Inten    --    108.3227                39.0124                16.7400

                     67                     68                     69
                      A                      A                      A
 Frequencies --   1299.2788              1311.3009              1343.9609
 Red. masses --      2.8490                 4.2088                 2.9330
 Frc consts  --      2.8336                 4.2639                 3.1213
 IR Inten    --     41.1185                 9.6810                34.1131

                     70                     71                     72
                      A                      A                      A
 Frequencies --   1381.6060              1424.4772              1425.6791
 Red. masses --      4.2690                 1.2835                 1.2009
 Frc consts  --      4.8011                 1.5344                 1.4382
 IR Inten    --    662.3393                17.5135                 6.6198

                     73                     74                     75
                      A                      A                      A
 Frequencies --   1428.1873              1428.8211              1453.0287
 Red. masses --      1.2776                 1.2683                 2.1190
 Frc consts  --      1.5353                 1.5255                 2.6360
 IR Inten    --     32.2849                25.8225                70.1039

                     76                     77                     78
                      A                      A                      A
 Frequencies --   1454.3459              1461.0747              1499.2625
 Red. masses --      1.7481                 1.2742                 1.0465
 Frc consts  --      2.1785                 1.6026                 1.3859
 IR Inten    --      3.5220                 7.7517                 0.4713

                     79                     80                     81
                      A                      A                      A
 Frequencies --   1509.6016              1518.0687              1519.5462
 Red. masses --      1.0469                 1.0469                 1.0472
 Frc consts  --      1.4057                 1.4215                 1.4246
 IR Inten    --      0.5243                 0.3665                 1.7085

                     82                     83                     84
                      A                      A                      A
 Frequencies --   1519.7197              1523.6650              1525.1576
 Red. masses --      1.0529                 1.0449                 1.0859
 Frc consts  --      1.4327                 1.4293                 1.4882
 IR Inten    --      0.3965                 0.3317                19.5759

                     85                     86                     87
                      A                      A                      A
 Frequencies --   1533.6330              1534.0653              1536.9998
 Red. masses --      1.7403                 1.0524                 1.3904
 Frc consts  --      2.4117                 1.4592                 1.9352
 IR Inten    --      6.4037                 0.9266                10.0435

                     88                     89                     90
                      A                      A                      A
 Frequencies --   1538.6210              1556.5100              1560.4714
 Red. masses --      1.0496                 1.0579                 1.2164
 Frc consts  --      1.4639                 1.5101                 1.7451
 IR Inten    --      4.5728                 6.8806                34.7429

                     91                     92                     93
                      A                      A                      A
 Frequencies --   1590.3736              1635.0903              1783.1729
 Red. masses --      3.4296                 8.4469                 8.3529
 Frc consts  --      5.1109                13.3056                15.6485
 IR Inten    --    396.8239                94.4291               624.1365

                     94                     95                     96
                      A                      A                      A
 Frequencies --   1815.7637              3058.3197              3059.7094
 Red. masses --      7.9660                 1.0384                 1.0378
 Frc consts  --     15.4742                 5.7222                 5.7242
 IR Inten    --    342.5382                26.8111                11.3529

                     97                     98                     99
                      A                      A                      A
 Frequencies --   3060.9088              3061.3089              3067.4634
 Red. masses --      1.0379                 1.0361                 1.0366
 Frc consts  --      5.7291                 5.7210                 5.7468
 IR Inten    --     22.5567                 6.0811                35.2084

                    100                    101                    102
                      A                      A                      A
 Frequencies --   3069.0868              3120.1422              3121.9414
 Red. masses --      1.0374                 1.1029                 1.1025
 Frc consts  --      5.7571                 6.3263                 6.3313
 IR Inten    --     21.4537                11.9994                21.7060

                    103                    104                    105
                      A                      A                      A
 Frequencies --   3124.1032              3126.0427              3136.3534
 Red. masses --      1.1025                 1.1023                 1.1026
 Frc consts  --      6.3399                 6.3468                 6.3900
 IR Inten    --      9.0555                19.6716                42.7319

                    106                    107                    108
                      A                      A                      A
 Frequencies --   3140.2501              3143.9337              3145.0153
 Red. masses --      1.1026                 1.1033                 1.1032
 Frc consts  --      6.4064                 6.4252                 6.4292
 IR Inten    --     48.6947                21.8477                22.3661

                    109                    110                    111
                      A                      A                      A
 Frequencies --   3171.0810              3173.8653              3174.0819
 Red. masses --      1.1002                 1.0985                 1.0996
 Frc consts  --      6.5185                 6.5196                 6.5271
 IR Inten    --      0.8316                 0.0038                10.8388

                    112                    113                    114
                      A                      A                      A
 Frequencies --   3176.0984              3526.0355              3683.5400
 Red. masses --      1.0979                 1.0782                 1.0640
 Frc consts  --      6.5252                 7.8980                 8.5056
 IR Inten    --     11.5309               206.5357                90.8425

 - Thermochemistry -
 -------------------
 Temperature   298.150 Kelvin.  Pressure   1.00000 Atm.
 Atom     1 has atomic number  6 and mass  12.00000

 Molecular mass:   284.13722 amu.
 Principal axes and moments of inertia in atomic units:
                           1         2         3
     Eigenvalues --  2760.10684********************
           X            1.00000  -0.00041  -0.00000
           Y            0.00041   1.00000  -0.00001
           Z            0.00000   0.00001   1.00000
 This molecule is an asymmetric top.
 Rotational symmetry number  1.
 Warning -- assumption of classical behavior for rotation
           may cause significant error
 Rotational temperatures (Kelvin)      0.03138     0.00851     0.00714
 Rotational constants (GHZ):           0.65387     0.17734     0.14880
 Zero-point vibrational energy     871329.5 (Joules/Mol)
                                  208.25276 (Kcal/Mol)
 Warning -- explicit consideration of  34 degrees of freedom as
           vibrations may cause significant error
 Vibrational temperatures:     33.04    38.19    83.88    91.08    93.27
          (Kelvin)            142.69   171.21   212.19   222.60   254.97
                              274.77   292.36   294.02   325.93   368.56
                              374.23   384.27   393.60   424.40   442.37
                              451.02   466.89   486.25   504.35   543.77
                              560.62   592.92   632.59   638.46   664.60
                              668.99   684.06   822.64   862.93   918.86
                              970.89   993.68  1035.72  1049.95  1076.59
                             1102.53  1138.37  1142.65  1188.42  1208.55
                             1285.16  1350.57  1353.23  1354.73  1369.48
                             1374.82  1416.83  1420.38  1486.91  1524.31
                             1536.89  1537.21  1544.88  1575.12  1629.48
                             1754.40  1778.97  1786.42  1791.00  1825.57
                             1853.32  1869.37  1886.67  1933.66  1987.82
                             2049.50  2051.23  2054.84  2055.75  2090.58
                             2092.48  2102.16  2157.10  2171.98  2184.16
                             2186.29  2186.54  2192.21  2194.36  2206.56
                             2207.18  2211.40  2213.73  2239.47  2245.17
                             2288.19  2352.53  2565.59  2612.48  4400.24
                             4402.24  4403.97  4404.54  4413.40  4415.73
                             4489.19  4491.78  4494.89  4497.68  4512.51
                             4518.12  4523.42  4524.98  4562.48  4566.48
                             4566.80  4569.70  5073.18  5299.79

 Zero-point correction=                           0.331872 (Hartree/Particle)
 Thermal correction to Energy=                    0.353096
 Thermal correction to Enthalpy=                  0.354040
 Thermal correction to Gibbs Free Energy=         0.281712
 Sum of electronic and zero-point Energies=           -992.806842
 Sum of electronic and thermal Energies=              -992.785619
 Sum of electronic and thermal Enthalpies=            -992.784675
 Sum of electronic and thermal Free Energies=         -992.857002

                     E (Thermal)             CV                S
                      KCal/Mol        Cal/Mol-Kelvin    Cal/Mol-Kelvin
 Total                  221.571             79.864            152.227
 Electronic               0.000              0.000              0.000
 Translational            0.889              2.981             42.831
 Rotational               0.889              2.981             34.187
 Vibrational            219.793             73.902             75.209
 Vibration     1          0.593              1.985              6.360
 Vibration     2          0.593              1.984              6.073
 Vibration     3          0.596              1.974              4.514
 Vibration     4          0.597              1.972              4.351
 Vibration     5          0.597              1.971              4.305
 Vibration     6          0.604              1.950              3.470
 Vibration     7          0.609              1.933              3.117
 Vibration     8          0.617              1.905              2.704
 Vibration     9          0.620              1.897              2.613
 Vibration    10          0.628              1.870              2.358
 Vibration    11          0.634              1.852              2.218
 Vibration    12          0.639              1.835              2.104
 Vibration    13          0.640              1.834              2.094
 Vibration    14          0.650              1.801              1.906
 Vibration    15          0.666              1.752              1.688
 Vibration    16          0.668              1.746              1.661
 Vibration    17          0.672              1.734              1.615
 Vibration    18          0.676              1.722              1.574
 Vibration    19          0.689              1.683              1.445
 Vibration    20          0.697              1.660              1.376
 Vibration    21          0.701              1.648              1.344
 Vibration    22          0.709              1.626              1.287
 Vibration    23          0.718              1.600              1.222
 Vibration    24          0.727              1.574              1.164
 Vibration    25          0.748              1.517              1.047
 Vibration    26          0.758              1.492              1.001
 Vibration    27          0.776              1.444              0.919
 Vibration    28          0.800              1.384              0.828
 Vibration    29          0.803              1.375              0.815
 Vibration    30          0.820              1.335              0.761
 Vibration    31          0.822              1.328              0.752
 Vibration    32          0.832              1.305              0.722
 Vibration    33          0.928              1.092              0.501
 Vibration    34          0.958              1.032              0.450

                           ! Non-Optimized Parameters !
 Normal termination of Gaussian 16 at Sun Dec 13 17:09:00 2020.

 ----------------------------------------------------------------------
 # B3LYP/6-311++G(d,p) empiricaldispersion=gd3bj scf=xqc pop=npa geom=c
 heck
 ----------------------------------------------------------------------

 ---------------------------------------
 CID_45926129_JID_10503_Energie_neutraal
 ---------------------------------------
 Structure from the checkpoint file:  "JID_10503.chk"
 Charge =  0 Multiplicity = 1

 SCF Done:  E(RB3LYP) =  -993.427417885     A.U. after   16 cycles
 Normal termination of Gaussian 16 at Sun Dec 13 17:17:02 2020.

 ----------------------------------------------------------------------
 # B3LYP/6-311++G(d,p) empiricaldispersion=gd3bj scf=xqc pop=npa geom=c
 heck
 ----------------------------------------------------------------------

 -------------------------------------
 CID_45926129_JID_10503_Energie_kation
 -------------------------------------
 Structure from the checkpoint file:  "JID_10503.chk"
 Charge =  1 Multiplicity = 2

 SCF Done:  E(UB3LYP) =  -993.102969632     A.U. after   26 cycles
 Normal termination of Gaussian 16 at Sun Dec 13 17:35:45 2020.
 Gaussian 16:  ES64L-G16RevA.03 25-Dec-2016

 ----------------------------------------------------------------------
 # B3LYP/6-311++G(d,p) empiricaldispersion=gd3bj scf=xqc pop=npa geom=c
 heck
 ----------------------------------------------------------------------

 ------------------------------------
 CID_45926129_JID_10503_Energie_anion
 ------------------------------------
 Structure from the checkpoint file:  "JID_10503.chk"
 Charge = -1 Multiplicity = 2

                         Standard orientation:
 ---------------------------------------------------------------------
 Center     Atomic      Atomic             Coordinates (Angstroms)
 Number     Number       Type             X           Y           Z
 ---------------------------------------------------------------------
      1          6           0        4.279811   -0.524245   -1.270087
      2          6           0        3.577136   -1.053019    0.000243
      3          6           0        3.646429   -2.593077    0.000105
      4          6           0        4.278844   -0.524555    1.271235
      5          6           0        2.131563   -0.600409   -0.000288
      6          6           0        1.466932    0.614425   -0.000249
      7          6           0        0.065878    0.244267   -0.000888
      8          7           0       -0.101502   -1.061581   -0.001345
      9          8           0        1.221015   -1.575076   -0.000932
     10          7           0       -0.945837    1.176908   -0.001174
     11          6           0       -2.326256    1.011259   -0.000425
     12          8           0       -3.069485    1.974430   -0.000183
     13          8           0       -2.658754   -0.279944    0.000103
     14          6           0       -4.069580   -0.701234    0.000414
     15          6           0       -4.757410   -0.202179    1.271701
     16          6           0       -4.758018   -0.201772   -1.270378
     17          6           0       -3.950899   -2.224152    0.000136
     18          6           0        1.909829    1.999956    0.000213
     19          8           0        1.151152    2.961140    0.000353
     20          8           0        3.252168    2.185233    0.000466
     21          1           0        5.321073   -0.865105   -1.272577
     22          1           0        4.273261    0.565620   -1.310936
     23          1           0        3.793502   -0.913586   -2.170966
     24          1           0        4.698421   -2.896017    0.000525
     25          1           0        3.164828   -3.019309    0.884544
     26          1           0        3.165590   -3.019128   -0.884834
     27          1           0        4.272404    0.565301    1.312297
     28          1           0        3.791774   -0.914017    2.171649
     29          1           0        5.320065   -0.865538    1.274493
     30          1           0       -0.627137    2.142771   -0.000696
     31          1           0       -4.821465    0.886698    1.281614
     32          1           0       -5.769705   -0.617389    1.324480
     33          1           0       -4.204625   -0.536022    2.156099
     34          1           0       -4.205646   -0.535311   -2.155148
     35          1           0       -5.770327   -0.616987   -1.322804
     36          1           0       -4.822119    0.887111   -1.279909
     37          1           0       -3.407524   -2.565113   -0.885895
     38          1           0       -3.407154   -2.565416    0.885824
     39          1           0       -4.947813   -2.676701    0.000280
     40          1           0        3.379655    3.152983    0.000739
 ---------------------------------------------------------------------

 SCF Done:  E(UB3LYP) =  -993.429957047     A.U. after   33 cycles
 SCF Done:  E(UB3LYP) =  -993.429957047     a.u. after    1 cycles

 The electronic state is 2-A.
 Alpha  occ. eigenvalues --  -19.05556 -19.03456 -19.01819 -18.98824 -18.93735
 Alpha  occ. eigenvalues --  -14.22336 -14.20084 -10.21435 -10.15686 -10.11989
 Alpha  occ. eigenvalues --  -10.10775 -10.07701 -10.07700 -10.07657 -10.07069
 Alpha  occ. eigenvalues --  -10.05942 -10.04425 -10.03599 -10.03599 -10.02478
 Alpha  occ. eigenvalues --   -1.00458  -0.98031  -0.95406  -0.91408  -0.85694
 Alpha  occ. eigenvalues --   -0.82536  -0.72818  -0.71754  -0.68789  -0.63764
 Alpha  occ. eigenvalues --   -0.61279  -0.61129  -0.56949  -0.56695  -0.55447
 Alpha  occ. eigenvalues --   -0.52244  -0.49547  -0.47420  -0.43852  -0.42349
 Alpha  occ. eigenvalues --   -0.39374  -0.38203  -0.37530  -0.36968  -0.36422
 Alpha  occ. eigenvalues --   -0.35323  -0.34954  -0.33703  -0.33601  -0.32587
 Alpha  occ. eigenvalues --   -0.31624  -0.31491  -0.30775  -0.30491  -0.30434
 Alpha  occ. eigenvalues --   -0.29114  -0.28583  -0.27770  -0.27111  -0.26962
 Alpha  occ. eigenvalues --   -0.26710  -0.25882  -0.24876  -0.24793  -0.23345
 Alpha  occ. eigenvalues --   -0.22310  -0.21573  -0.21572  -0.21034  -0.20122
 Alpha  occ. eigenvalues --   -0.17825  -0.17415  -0.15972  -0.13056  -0.11439
 Alpha  occ. eigenvalues --   -0.11081   0.05801
 Alpha virt. eigenvalues --    0.06278   0.08015   0.08751   0.09046   0.09666
 Alpha virt. eigenvalues --    0.09826   0.10118   0.10854   0.11395   0.11557
 Alpha virt. eigenvalues --    0.11958   0.12227   0.12811   0.12913   0.13129

  Beta  occ. eigenvalues --  -19.05558 -19.03097 -19.01748 -18.98826 -18.93343
  Beta  occ. eigenvalues --  -14.22341 -14.20133 -10.21434 -10.15686 -10.11521
  Beta  occ. eigenvalues --  -10.10780 -10.07701 -10.07700 -10.07657 -10.07122
  Beta  occ. eigenvalues --  -10.05183 -10.04423 -10.03539 -10.03539 -10.02539
  Beta  occ. eigenvalues --   -1.00457  -0.97476  -0.95010  -0.91412  -0.85143
  Beta  occ. eigenvalues --   -0.82470  -0.72769  -0.71549  -0.68628  -0.63337
  Beta  occ. eigenvalues --   -0.61279  -0.61129  -0.56915  -0.56566  -0.55384
  Beta  occ. eigenvalues --   -0.51504  -0.49308  -0.47187  -0.43763  -0.42310
  Beta  occ. eigenvalues --   -0.39221  -0.38201  -0.37337  -0.36880  -0.36230
  Beta  occ. eigenvalues --   -0.35205  -0.34878  -0.33450  -0.32806  -0.32565
  Beta  occ. eigenvalues --   -0.31314  -0.31202  -0.30698  -0.30415  -0.30078
  Beta  occ. eigenvalues --   -0.28592  -0.27887  -0.27632  -0.26959  -0.26887
  Beta  occ. eigenvalues --   -0.26613  -0.25744  -0.24732  -0.24712  -0.23020
  Beta  occ. eigenvalues --   -0.21949  -0.21295  -0.21207  -0.20922  -0.20085
  Beta  occ. eigenvalues --   -0.17413  -0.16349  -0.15935  -0.12713  -0.10726
  Beta  occ. eigenvalues --   -0.09540
  Beta virt. eigenvalues --    0.06268   0.07953   0.08728   0.09032   0.09626
  Beta virt. eigenvalues --    0.09706   0.09927   0.10795   0.11467   0.11478
  Beta virt. eigenvalues --    0.11928   0.12391   0.12767   0.12962   0.13041

 Mulliken charges and spin densities:
               1          2
     1  C   -0.463327  -0.138571
     2  C    0.184106   0.013126
     3  C   -0.482942   0.013701
     4  C   -0.463671  -0.138183
     5  C    0.056877   0.541284
     6  C   -0.366479  -0.045432
     7  C    0.288102  -0.008210
     8  N   -0.840792  -0.023109
     9  O    0.380741   0.068880
    10  N   -0.280505   0.003812
    11  C    0.155444   0.001812
    12  O   -0.284680  -0.000583
    13  O    0.170193   0.000621
    14  C   -0.155943  -0.000122
    15  C   -0.411109  -0.003500
    16  C   -0.411387  -0.003503
    17  C   -0.424203   0.000864
    18  C    0.080933   0.263870
    19  O   -0.477070   0.135700
    20  O   -0.290931   0.015799
    21  H    0.049119   0.075582
    22  H    0.101926   0.040990
    23  H    0.089588   0.038519
    24  H    0.121510  -0.000159
    25  H    0.164142  -0.005005
    26  H    0.164135  -0.005005
    27  H    0.101977   0.040913
    28  H    0.089629   0.038521
    29  H    0.049291   0.075368
    30  H    0.396473  -0.000771
    31  H    0.188470   0.000737
    32  H    0.136992  -0.000394
    33  H    0.144047   0.002667
    34  H    0.144060   0.002673
    35  H    0.136996  -0.000396
    36  H    0.188488   0.000735
    37  H    0.173458  -0.000369
    38  H    0.173420  -0.000368
    39  H    0.115488  -0.000003
    40  H    0.307434  -0.002492
 Sum of Mulliken charges =  -1.00000   1.00000

 Dipole moment (field-independent basis, Debye):
    X=             -4.7453    Y=             -3.4008    Z=              0.0026  Tot=              5.8381
 Quadrupole moment (field-independent basis, Debye-Ang):
   XX=           -158.4536   YY=           -151.4409   ZZ=           -129.9323
   XY=             10.4013   XZ=              0.0015   YZ=             -0.0039

 Summary of Natural Population Analysis:

                                       Natural Population
                Natural  -----------------------------------------------
    Atom  No    Charge         Core      Valence    Rydberg      Total
 -----------------------------------------------------------------------
      C    1   -0.27666      0.99963     2.26963    0.00740     3.27666
      C    2   -0.07284      0.99957     2.06402    0.00925     3.07284
      C    3   -0.27924      0.99964     2.27358    0.00601     3.27924
      C    4   -0.27666      0.99963     2.26963    0.00740     3.27666
      C    5    0.34434      0.99946     1.64162    0.01458     2.65566
      C    6   -0.18605      0.99944     2.17156    0.01506     3.18605
      C    7    0.18378      0.99957     1.80137    0.01528     2.81622
      N    8   -0.13014      0.99967     2.61942    0.01105     3.63014
      O    9   -0.14731      0.99984     3.13706    0.01040     4.14731
      N   10   -0.32218      0.99961     2.81313    0.00944     3.82218
      C   11    0.46656      0.99972     1.50890    0.02483     2.53344
      O   12   -0.34037      0.99987     3.33504    0.00546     4.34037
      O   13   -0.28627      0.99984     3.27488    0.01155     4.28627
      C   14    0.13729      0.99956     1.85248    0.01067     2.86271
      C   15   -0.30223      0.99961     2.29722    0.00540     3.30223
      C   16   -0.30224      0.99961     2.29724    0.00540     3.30224
      C   17   -0.28887      0.99961     2.28312    0.00614     3.28887
      C   18    0.49213      0.99966     1.48619    0.02202     2.50787
      O   19   -0.33001      0.99987     3.31660    0.01355     4.33001
      O   20   -0.36627      0.99988     3.35102    0.01537     4.36627
      H   21    0.08828      0.00000     0.41039    0.00133     0.41172
      H   22    0.11231      0.00000     0.38629    0.00141     0.38769
      H   23    0.09641      0.00000     0.40273    0.00086     0.40359
      H   24    0.08953      0.00000     0.40959    0.00088     0.41047
      H   25    0.10199      0.00000     0.39718    0.00083     0.39801
      H   26    0.10199      0.00000     0.39717    0.00083     0.39801
      H   27    0.11230      0.00000     0.38629    0.00141     0.38770
      H   28    0.09641      0.00000     0.40273    0.00086     0.40359
      H   29    0.08827      0.00000     0.41039    0.00133     0.41173
      H   30    0.22507      0.00000     0.27164    0.00329     0.27493
      H   31    0.11564      0.00000     0.38342    0.00095     0.38436
      H   32    0.09579      0.00000     0.40338    0.00083     0.40421
      H   33    0.10309      0.00000     0.39602    0.00088     0.39691
      H   34    0.10309      0.00000     0.39602    0.00088     0.39691
      H   35    0.09579      0.00000     0.40339    0.00083     0.40421
      H   36    0.11565      0.00000     0.38340    0.00095     0.38435
      H   37    0.10776      0.00000     0.39138    0.00085     0.39224
      H   38    0.10776      0.00000     0.39139    0.00085     0.39224
      H   39    0.09310      0.00000     0.40613    0.00077     0.40690
      H   40    0.23314      0.00000     0.26372    0.00313     0.26686
 =======================================================================
   * Total *    0.00013     19.99328    55.75637    0.25022    75.99987

 Normal termination of Gaussian 16 at Sun Dec 13 17:59:47 2020.
