 Gaussian 16, Revision A.03,

 -----------------------------------------------------------
 # opt freq B3LYP/6-31G(d) empiricaldispersion=gd3bj scf=xqc
 -----------------------------------------------------------

 ------------------------------
 CID_91080351_JID_7168_neutraal
 ------------------------------
 Symbolic Z-matrix:
 Charge =  0 Multiplicity = 1

 SCF Done:  E(RB3LYP) =  -679.586468441     A.U. after   14 cycles
 SCF Done:  E(RB3LYP) =  -679.589018439     A.U. after   12 cycles
 SCF Done:  E(RB3LYP) =  -679.587590571     A.U. after   12 cycles
 SCF Done:  E(RB3LYP) =  -679.589819280     A.U. after   12 cycles
 SCF Done:  E(RB3LYP) =  -679.590313658     A.U. after   12 cycles
 SCF Done:  E(RB3LYP) =  -679.590444522     A.U. after   11 cycles
 SCF Done:  E(RB3LYP) =  -679.590566431     A.U. after   12 cycles
 SCF Done:  E(RB3LYP) =  -679.590625087     A.U. after   10 cycles
 SCF Done:  E(RB3LYP) =  -679.590615432     A.U. after   11 cycles
 SCF Done:  E(RB3LYP) =  -679.590658411     A.U. after   11 cycles
 SCF Done:  E(RB3LYP) =  -679.590683037     A.U. after    9 cycles
 SCF Done:  E(RB3LYP) =  -679.590685346     A.U. after    9 cycles
 SCF Done:  E(RB3LYP) =  -679.590685843     A.U. after    8 cycles
 SCF Done:  E(RB3LYP) =  -679.590686282     A.U. after    8 cycles
 SCF Done:  E(RB3LYP) =  -679.590686359     A.U. after    7 cycles
 Optimization completed.
    -- Stationary point found.
 Normal termination of Gaussian 16 at Fri Dec 11 12:03:25 2020.

 --------------------------------------------------------------------
 #N Geom=AllCheck Guess=TCheck SCRF=Check GenChk RB3LYP/6-31G(d) Freq
 --------------------------------------------------------------------

 Structure from the checkpoint file:  "JID_7168.chk"
 ------------------------------
 CID_91080351_JID_7168_neutraal
 ------------------------------
 Charge =  0 Multiplicity = 1

 SCF Done:  E(RB3LYP) =  -679.590686359     A.U. after    1 cycles

  Exact polarizability: 195.176  -4.698 174.412  21.452   2.188 129.119
 Approx polarizability: 259.160  -3.720 272.450  38.837   4.087 199.491

                      1                      2                      3
                      A                      A                      A
 Frequencies --     22.4172                40.4683                49.9338
 Red. masses --      3.9374                 3.5088                 4.0347
 Frc consts  --      0.0012                 0.0034                 0.0059
 IR Inten    --      0.0432                 0.0487                 0.4067

                      4                      5                      6
                      A                      A                      A
 Frequencies --     62.2064               100.1656               130.3769
 Red. masses --      3.6449                 3.5544                 3.0269
 Frc consts  --      0.0083                 0.0210                 0.0303
 IR Inten    --      0.2991                 0.5008                 0.0265

                      7                      8                      9
                      A                      A                      A
 Frequencies --    158.2630               184.2261               202.5748
 Red. masses --      2.8887                 2.8472                 3.7672
 Frc consts  --      0.0426                 0.0569                 0.0911
 IR Inten    --      0.6508                 2.1547                 0.4675

                     10                     11                     12
                      A                      A                      A
 Frequencies --    223.2528               267.7911               286.1866
 Red. masses --      1.0646                 1.9697                 1.1671
 Frc consts  --      0.0313                 0.0832                 0.0563
 IR Inten    --      0.0629                 0.0975                 0.1057

                     13                     14                     15
                      A                      A                      A
 Frequencies --    313.2611               331.5222               350.4616
 Red. masses --      2.4129                 1.8828                 2.2547
 Frc consts  --      0.1395                 0.1219                 0.1632
 IR Inten    --      1.1387                 0.0858                 0.3987

                     16                     17                     18
                      A                      A                      A
 Frequencies --    377.1504               395.3828               404.6478
 Red. masses --      2.3799                 2.5741                 3.1867
 Frc consts  --      0.1995                 0.2371                 0.3074
 IR Inten    --      0.8740                 2.6860                 1.0459

                     19                     20                     21
                      A                      A                      A
 Frequencies --    419.0144               434.1651               453.6491
 Red. masses --      3.0091                 2.6363                 2.1038
 Frc consts  --      0.3113                 0.2928                 0.2551
 IR Inten    --      0.0077                 3.0320                 1.3651

                     22                     23                     24
                      A                      A                      A
 Frequencies --    493.6358               513.4763               526.3819
 Red. masses --      3.5886                 2.2766                 2.3675
 Frc consts  --      0.5152                 0.3537                 0.3865
 IR Inten    --      4.2067                 4.2436                 4.5464

                     25                     26                     27
                      A                      A                      A
 Frequencies --    580.4856               637.9072               638.8337
 Red. masses --      2.9045                 6.3169                 2.1612
 Frc consts  --      0.5766                 1.5145                 0.5197
 IR Inten    --      1.2433                 0.1138                 2.1755

                     28                     29                     30
                      A                      A                      A
 Frequencies --    694.1676               716.2493               753.6837
 Red. masses --      2.5143                 2.0152                 1.5712
 Frc consts  --      0.7138                 0.6091                 0.5259
 IR Inten    --      1.6813                22.2334                24.6630

                     31                     32                     33
                      A                      A                      A
 Frequencies --    767.8575               808.5327               825.4687
 Red. masses --      2.6611                 2.6869                 2.1134
 Frc consts  --      0.9244                 1.0349                 0.8485
 IR Inten    --      5.6375                 2.2469                 2.2647

                     34                     35                     36
                      A                      A                      A
 Frequencies --    847.2328               860.2232               862.1536
 Red. masses --      2.1166                 2.0760                 1.2500
 Frc consts  --      0.8951                 0.9051                 0.5474
 IR Inten    --      7.5119                 2.5321                 0.4508

                     37                     38                     39
                      A                      A                      A
 Frequencies --    875.0167               904.0846               923.6964
 Red. masses --      1.7741                 2.0094                 1.4178
 Frc consts  --      0.8003                 0.9677                 0.7127
 IR Inten    --      1.5672                 0.6071                 8.3583

                     40                     41                     42
                      A                      A                      A
 Frequencies --    952.6465               967.9194               970.1897
 Red. masses --      1.7894                 1.3563                 1.4605
 Frc consts  --      0.9568                 0.7487                 0.8100
 IR Inten    --      1.6329                 0.7755                 1.2862

                     43                     44                     45
                      A                      A                      A
 Frequencies --    979.6036               992.7022              1000.3981
 Red. masses --      1.6571                 1.2720                 1.7126
 Frc consts  --      0.9369                 0.7385                 1.0098
 IR Inten    --      1.1167                 1.0965                 0.7108

                     46                     47                     48
                      A                      A                      A
 Frequencies --   1022.1827              1030.9581              1052.1890
 Red. masses --      5.7404                 2.2038                 1.3440
 Frc consts  --      3.5339                 1.3801                 0.8767
 IR Inten    --      0.2708                14.0261                 4.7872

                     49                     50                     51
                      A                      A                      A
 Frequencies --   1059.2742              1065.6860              1075.5403
 Red. masses --      2.0733                 1.8237                 2.3527
 Frc consts  --      1.3706                 1.2203                 1.6035
 IR Inten    --      3.0345                 3.1776                 5.7286

                     52                     53                     54
                      A                      A                      A
 Frequencies --   1105.8607              1116.5131              1124.1593
 Red. masses --      1.6732                 2.0632                 1.7251
 Frc consts  --      1.2056                 1.5154                 1.2845
 IR Inten    --      3.4995                20.0136                 2.5133

                     55                     56                     57
                      A                      A                      A
 Frequencies --   1141.5694              1170.6900              1174.0724
 Red. masses --      2.1077                 2.0563                 2.1054
 Frc consts  --      1.6183                 1.6604                 1.7099
 IR Inten    --      9.9280                14.8658                 8.8658

                     58                     59                     60
                      A                      A                      A
 Frequencies --   1193.3327              1203.3074              1217.4964
 Red. masses --      1.0968                 1.2500                 1.1536
 Frc consts  --      0.9203                 1.0664                 1.0075
 IR Inten    --      0.1043                 1.9542                 0.2749

                     61                     62                     63
                      A                      A                      A
 Frequencies --   1218.3123              1232.6486              1234.1296
 Red. masses --      1.4487                 1.6817                 2.2343
 Frc consts  --      1.2669                 1.5055                 2.0050
 IR Inten    --     24.3072                 2.7109                 2.0391

                     64                     65                     66
                      A                      A                      A
 Frequencies --   1275.4678              1301.3938              1304.8275
 Red. masses --      1.7380                 1.5672                 1.4102
 Frc consts  --      1.6659                 1.5639                 1.4146
 IR Inten    --     25.8147                25.8075                11.3819

                     67                     68                     69
                      A                      A                      A
 Frequencies --   1345.6541              1349.7441              1365.6713
 Red. masses --      1.3832                 2.0716                 1.5381
 Frc consts  --      1.4757                 2.2236                 1.6902
 IR Inten    --      7.7597                 2.6573                 5.7295

                     70                     71                     72
                      A                      A                      A
 Frequencies --   1368.9538              1373.9585              1385.4467
 Red. masses --      1.6632                 1.3339                 1.4363
 Frc consts  --      1.8364                 1.4836                 1.6243
 IR Inten    --      5.0049                 7.0792                 1.1765

                     73                     74                     75
                      A                      A                      A
 Frequencies --   1391.3509              1401.8984              1408.2195
 Red. masses --      1.3490                 1.4016                 1.4130
 Frc consts  --      1.5387                 1.6230                 1.6510
 IR Inten    --      2.1481                 2.4221                 8.6864

                     76                     77                     78
                      A                      A                      A
 Frequencies --   1411.8492              1420.1499              1428.2424
 Red. masses --      1.2473                 1.3533                 1.2887
 Frc consts  --      1.4649                 1.6081                 1.5489
 IR Inten    --     21.1706                 5.6725                10.3460

                     79                     80                     81
                      A                      A                      A
 Frequencies --   1437.9736              1439.5694              1451.6077
 Red. masses --      1.2708                 1.3226                 1.4776
 Frc consts  --      1.5482                 1.6149                 1.8344
 IR Inten    --     24.3683                10.7670                34.8850

                     82                     83                     84
                      A                      A                      A
 Frequencies --   1499.1829              1503.7116              1508.1084
 Red. masses --      1.4916                 1.2902                 1.1218
 Frc consts  --      1.9751                 1.7188                 1.5032
 IR Inten    --      2.8291                 2.7671                 0.2843

                     85                     86                     87
                      A                      A                      A
 Frequencies --   1511.8395              1513.3273              1521.2352
 Red. masses --      1.1062                 1.0876                 1.1025
 Frc consts  --      1.4897                 1.4676                 1.5032
 IR Inten    --      3.4456                 5.5936                 0.9620

                     88                     89                     90
                      A                      A                      A
 Frequencies --   1527.0121              1529.8026              1530.8606
 Red. masses --      1.0677                 1.0502                 1.0941
 Frc consts  --      1.4668                 1.4481                 1.5107
 IR Inten    --      3.3316                 3.6707                 9.4232

                     91                     92                     93
                      A                      A                      A
 Frequencies --   1536.1810              1540.9218              1549.6009
 Red. masses --      1.0691                 1.0701                 2.1977
 Frc consts  --      1.4864                 1.4970                 3.1092
 IR Inten    --      4.4328                 2.3563                10.6460

                     94                     95                     96
                      A                      A                      A
 Frequencies --   1645.9045              1668.2584              2961.9719
 Red. masses --      5.4506                 5.5898                 1.0820
 Frc consts  --      8.6996                 9.1658                 5.5930
 IR Inten    --      1.0896                 5.7491                42.5960

                     97                     98                     99
                      A                      A                      A
 Frequencies --   3024.6249              3026.1904              3029.7839
 Red. masses --      1.0658                 1.0601                 1.0661
 Frc consts  --      5.7448                 5.7197                 5.7659
 IR Inten    --      3.7087                31.3406                18.7715

                    100                    101                    102
                      A                      A                      A
 Frequencies --   3035.7305              3043.1037              3044.7317
 Red. masses --      1.0692                 1.0591                 1.0613
 Frc consts  --      5.8053                 5.7787                 5.7968
 IR Inten    --     39.9045                32.2207                41.1233

                    103                    104                    105
                      A                      A                      A
 Frequencies --   3052.4308              3058.8964              3066.6958
 Red. masses --      1.0424                 1.0395                 1.0955
 Frc consts  --      5.7223                 5.7307                 6.0702
 IR Inten    --     27.1325                40.8442                81.7026

                    106                    107                    108
                      A                      A                      A
 Frequencies --   3071.4510              3074.3837              3080.5317
 Red. masses --      1.1003                 1.1008                 1.0889
 Frc consts  --      6.1157                 6.1302                 6.0884
 IR Inten    --     15.5154                24.4837                 5.7050

                    109                    110                    111
                      A                      A                      A
 Frequencies --   3087.2842              3090.3438              3116.0578
 Red. masses --      1.1005                 1.0954                 1.0996
 Frc consts  --      6.1799                 6.1636                 6.2905
 IR Inten    --     86.8411                86.5554                46.3239

                    112                    113                    114
                      A                      A                      A
 Frequencies --   3118.5581              3124.5579              3130.0626
 Red. masses --      1.0887                 1.1017                 1.1024
 Frc consts  --      6.2385                 6.3373                 6.3635
 IR Inten    --     20.0770                29.4262                42.3127

                    115                    116                    117
                      A                      A                      A
 Frequencies --   3130.6189              3175.8763              3180.1547
 Red. masses --      1.1021                 1.0850                 1.0867
 Frc consts  --      6.3641                 6.4479                 6.4754
 IR Inten    --     30.0038                 7.5296                 2.1754

                    118                    119                    120
                      A                      A                      A
 Frequencies --   3190.1482              3197.5217              3209.3888
 Red. masses --      1.0903                 1.0941                 1.0980
 Frc consts  --      6.5375                 6.5905                 6.6632
 IR Inten    --     13.2419                44.8838                21.5677

 - Thermochemistry -
 -------------------
 Temperature   298.150 Kelvin.  Pressure   1.00000 Atm.
 Atom     1 has atomic number  6 and mass  12.00000

 Molecular mass:   231.19870 amu.
 Principal axes and moments of inertia in atomic units:
                           1         2         3
     Eigenvalues --  2179.511976351.126947145.98486
           X            1.00000  -0.00068   0.00303
           Y            0.00068   1.00000  -0.00224
           Z           -0.00303   0.00224   0.99999
 This molecule is an asymmetric top.
 Rotational symmetry number  1.
 Warning -- assumption of classical behavior for rotation
           may cause significant error
 Rotational temperatures (Kelvin)      0.03974     0.01364     0.01212
 Rotational constants (GHZ):           0.82805     0.28416     0.25255
 Zero-point vibrational energy    1007893.4 (Joules/Mol)
                                  240.89229 (Kcal/Mol)
 Warning -- explicit consideration of  25 degrees of freedom as
           vibrations may cause significant error
 Vibrational temperatures:     32.25    58.22    71.84    89.50   144.12
          (Kelvin)            187.58   227.71   265.06   291.46   321.21
                              385.29   411.76   450.71   476.99   504.24
                              542.64   568.87   582.20   602.87   624.67
                              652.70   710.23   738.78   757.35   835.19
                              917.81   919.14   998.75  1030.52  1084.38
                             1104.78  1163.30  1187.67  1218.98  1237.67
                             1240.45  1258.95  1300.78  1328.99  1370.65
                             1392.62  1395.89  1409.43  1428.28  1439.35
                             1470.69  1483.32  1513.87  1524.06  1533.28
                             1547.46  1591.09  1606.41  1617.41  1642.46
                             1684.36  1689.23  1716.94  1731.29  1751.71
                             1752.88  1773.51  1775.64  1835.11  1872.42
                             1877.36  1936.10  1941.98  1964.90  1969.62
                             1976.82  1993.35  2001.84  2017.02  2026.11
                             2031.34  2043.28  2054.92  2068.92  2071.22
                             2088.54  2156.99  2163.51  2169.83  2175.20
                             2177.34  2188.72  2197.03  2201.04  2202.57
                             2210.22  2217.04  2229.53  2368.09  2400.25
                             4261.62  4351.76  4354.01  4359.18  4367.74
                             4378.35  4380.69  4391.77  4401.07  4412.29
                             4419.13  4423.35  4432.20  4441.91  4446.32
                             4483.31  4486.91  4495.54  4503.46  4504.26
                             4569.38  4575.53  4589.91  4600.52  4617.59

 Zero-point correction=                           0.383886 (Hartree/Particle)
 Thermal correction to Energy=                    0.400504
 Thermal correction to Enthalpy=                  0.401448
 Thermal correction to Gibbs Free Energy=         0.339038
 Sum of electronic and zero-point Energies=           -679.206800
 Sum of electronic and thermal Energies=              -679.190182
 Sum of electronic and thermal Enthalpies=            -679.189238
 Sum of electronic and thermal Free Energies=         -679.251648

                     E (Thermal)             CV                S
                      KCal/Mol        Cal/Mol-Kelvin    Cal/Mol-Kelvin
 Total                  251.320             66.216            131.354
 Electronic               0.000              0.000              0.000
 Translational            0.889              2.981             42.216
 Rotational               0.889              2.981             32.958
 Vibrational            249.543             60.254             56.179
 Vibration     1          0.593              1.985              6.408
 Vibration     2          0.594              1.981              5.236
 Vibration     3          0.595              1.978              4.820
 Vibration     4          0.597              1.972              4.386
 Vibration     5          0.604              1.949              3.451
 Vibration     6          0.612              1.923              2.940
 Vibration     7          0.621              1.893              2.570
 Vibration     8          0.631              1.861              2.285
 Vibration     9          0.639              1.836              2.110
 Vibration    10          0.649              1.806              1.933
 Vibration    11          0.673              1.732              1.610
 Vibration    12          0.684              1.699              1.496
 Vibration    13          0.701              1.648              1.345
 Vibration    14          0.714              1.613              1.253
 Vibration    15          0.727              1.574              1.164
 Vibration    16          0.748              1.519              1.051
 Vibration    17          0.762              1.480              0.980
 Vibration    18          0.770              1.460              0.946
 Vibration    19          0.782              1.429              0.895
 Vibration    20          0.795              1.396              0.845
 Vibration    21          0.812              1.353              0.785
 Vibration    22          0.849              1.264              0.674
 Vibration    23          0.869              1.220              0.625
 Vibration    24          0.881              1.192              0.595
 Vibration    25          0.937              1.074              0.484

 Optimization completed.
    -- Stationary point found.
 Normal termination of Gaussian 16 at Fri Dec 11 12:25:41 2020.

 ----------------------------------------------------------------------
 # B3LYP/6-311++G(d,p) empiricaldispersion=gd3bj scf=xqc pop=npa geom=c
 heck
 ----------------------------------------------------------------------

 --------------------------------------
 CID_91080351_JID_7168_Energie_neutraal
 --------------------------------------
 Structure from the checkpoint file:  "JID_7168.chk"
 Charge =  0 Multiplicity = 1

 SCF Done:  E(RB3LYP) =  -679.768921417     A.U. after   14 cycles
 Normal termination of Gaussian 16 at Fri Dec 11 12:36:18 2020.

 ----------------------------------------------------------------------
 # B3LYP/6-311++G(d,p) empiricaldispersion=gd3bj scf=xqc pop=npa geom=c
 heck
 ----------------------------------------------------------------------

 ------------------------------------
 CID_91080351_JID_7168_Energie_kation
 ------------------------------------
 Structure from the checkpoint file:  "JID_7168.chk"
 Charge =  1 Multiplicity = 2

 SCF Done:  E(UB3LYP) =  -679.516237682     A.U. after   18 cycles
 Normal termination of Gaussian 16 at Fri Dec 11 12:56:53 2020.
 Gaussian 16:  ES64L-G16RevA.03 25-Dec-2016

 ----------------------------------------------------------------------
 # B3LYP/6-311++G(d,p) empiricaldispersion=gd3bj scf=xqc pop=npa geom=c
 heck
 ----------------------------------------------------------------------

 -----------------------------------
 CID_91080351_JID_7168_Energie_anion
 -----------------------------------
 Structure from the checkpoint file:  "JID_7168.chk"
 Charge = -1 Multiplicity = 2

                         Standard orientation:
 ---------------------------------------------------------------------
 Center     Atomic      Atomic             Coordinates (Angstroms)
 Number     Number       Type             X           Y           Z
 ---------------------------------------------------------------------
      1          6           0        3.195479   -1.986156   -0.772748
      2          6           0        2.830975   -0.540110   -0.438094
      3          6           0        3.164422   -0.175165    1.021035
      4          6           0        2.916546    1.320758    1.248359
      5          6           0        1.479187    1.699469    0.868060
      6          6           0        1.086357    1.207903   -0.545221
      7          7           0        1.452594   -0.189835   -0.778648
      8          6           0        0.414942   -1.195319   -0.895159
      9          6           0       -0.096734   -1.917577    0.373242
     10          6           0       -0.965585   -1.086325    1.334794
     11          6           0       -2.177240   -0.452255    0.686282
     12          6           0       -3.141550   -1.238368    0.040259
     13          6           0       -4.251234   -0.656099   -0.569854
     14          6           0       -4.420546    0.729911   -0.544284
     15          6           0       -3.473271    1.524014    0.100583
     16          6           0       -2.363753    0.934804    0.709559
     17          6           0        1.663169    2.122652   -1.641434
     18          1           0        3.005951   -2.211218   -1.827099
     19          1           0        2.645058   -2.709123   -0.162217
     20          1           0        4.263242   -2.138211   -0.583082
     21          1           0        3.487349    0.089802   -1.062627
     22          1           0        2.537545   -0.772294    1.698372
     23          1           0        4.211562   -0.424185    1.239860
     24          1           0        3.628631    1.893772    0.637950
     25          1           0        3.112982    1.596053    2.291755
     26          1           0        1.340234    2.786360    0.933563
     27          1           0        0.799812    1.252140    1.602522
     28          1           0       -0.003731    1.262055   -0.624883
     29          1           0       -0.441631   -0.722199   -1.389549
     30          1           0        0.758982   -1.974145   -1.586633
     31          1           0       -0.680544   -2.784649    0.032702
     32          1           0        0.750989   -2.325687    0.936225
     33          1           0       -1.292706   -1.743447    2.152503
     34          1           0       -0.356669   -0.306936    1.800673
     35          1           0       -3.022031   -2.318788    0.015848
     36          1           0       -4.986465   -1.284877   -1.064936
     37          1           0       -5.284341    1.184576   -1.021017
     38          1           0       -3.595201    2.603409    0.130817
     39          1           0       -1.631588    1.560108    1.214055
     40          1           0        1.351065    1.764335   -2.627206
     41          1           0        1.308441    3.152427   -1.514763
     42          1           0        2.757927    2.146736   -1.624572
 ---------------------------------------------------------------------

 SCF Done:  E(UB3LYP) =  -679.753964783     A.U. after   33 cycles
 SCF Done:  E(UB3LYP) =  -679.753964783     a.u. after    1 cycles

 The electronic state is 2-A.
 Alpha  occ. eigenvalues --  -14.19455 -10.10424 -10.10167 -10.09530 -10.08785
 Alpha  occ. eigenvalues --  -10.08236 -10.08164 -10.07975 -10.07886 -10.07881
 Alpha  occ. eigenvalues --  -10.07719 -10.07099 -10.07094 -10.06912 -10.06726
 Alpha  occ. eigenvalues --  -10.06658 -10.06042  -0.82736  -0.76668  -0.71032
 Alpha  occ. eigenvalues --   -0.69211  -0.68969  -0.65383  -0.64796  -0.62185
 Alpha  occ. eigenvalues --   -0.58845  -0.57918  -0.52837  -0.51713  -0.51165
 Alpha  occ. eigenvalues --   -0.49575  -0.47696  -0.44366  -0.41903  -0.38810
 Alpha  occ. eigenvalues --   -0.38191  -0.37685  -0.36586  -0.36317  -0.35487
 Alpha  occ. eigenvalues --   -0.34023  -0.33830  -0.32951  -0.32477  -0.31723
 Alpha  occ. eigenvalues --   -0.30942  -0.30227  -0.29896  -0.28409  -0.28207
 Alpha  occ. eigenvalues --   -0.27418  -0.26920  -0.26178  -0.25902  -0.25149
 Alpha  occ. eigenvalues --   -0.24475  -0.24137  -0.22965  -0.22701  -0.22023
 Alpha  occ. eigenvalues --   -0.21605  -0.16295  -0.15419  -0.09674   0.04162
 Alpha virt. eigenvalues --    0.05774   0.06151   0.06760   0.07401   0.07487
 Alpha virt. eigenvalues --    0.07595   0.07973   0.08904   0.08991   0.09319
 Alpha virt. eigenvalues --    0.09561   0.09871   0.11005   0.11364   0.11601

  Beta  occ. eigenvalues --  -14.19453 -10.10416 -10.10166 -10.09523 -10.08774
  Beta  occ. eigenvalues --  -10.08225 -10.08151 -10.07955 -10.07874 -10.07871
  Beta  occ. eigenvalues --  -10.07711 -10.07086 -10.07081 -10.06891 -10.06714
  Beta  occ. eigenvalues --  -10.06643 -10.06025  -0.82726  -0.76638  -0.71007
  Beta  occ. eigenvalues --   -0.69181  -0.68951  -0.65351  -0.64764  -0.62155
  Beta  occ. eigenvalues --   -0.58810  -0.57888  -0.52799  -0.51679  -0.51130
  Beta  occ. eigenvalues --   -0.49536  -0.47659  -0.44335  -0.41854  -0.38779
  Beta  occ. eigenvalues --   -0.38172  -0.37659  -0.36557  -0.36283  -0.35451
  Beta  occ. eigenvalues --   -0.33991  -0.33803  -0.32922  -0.32451  -0.31699
  Beta  occ. eigenvalues --   -0.30920  -0.30199  -0.29869  -0.28379  -0.28180
  Beta  occ. eigenvalues --   -0.27389  -0.26895  -0.26153  -0.25877  -0.25121
  Beta  occ. eigenvalues --   -0.24448  -0.24114  -0.22939  -0.22680  -0.22000
  Beta  occ. eigenvalues --   -0.21583  -0.16266  -0.15358  -0.09652
  Beta virt. eigenvalues --    0.06014   0.06591   0.06744   0.07118   0.07622
  Beta virt. eigenvalues --    0.07921   0.08034   0.08180   0.09209   0.09380
  Beta virt. eigenvalues --    0.09611   0.09924   0.10075   0.11299   0.11603

 Mulliken charges and spin densities:
               1          2
     1  C    0.590230  -1.193463
     2  C   -0.999432   0.852826
     3  C    0.382580  -0.531094
     4  C   -0.025545  -0.616041
     5  C   -0.435001   0.283480
     6  C   -0.628998   0.529535
     7  N    0.235093   0.061569
     8  C   -0.304321  -0.171591
     9  C    0.239819  -0.424760
    10  C    1.382736  -1.783536
    11  C   -0.120425   0.962310
    12  C   -1.175043   1.129790
    13  C    0.499496  -0.855880
    14  C    1.456099  -1.811120
    15  C   -0.339119  -0.010094
    16  C   -0.772033   0.371616
    17  C    0.273029  -0.856654
    18  H   -0.016899   0.170189
    19  H   -0.128873   0.259245
    20  H   -0.167179   0.315077
    21  H   -0.021091   0.171160
    22  H    0.174952  -0.067088
    23  H   -0.155275   0.308534
    24  H    0.179432  -0.054763
    25  H   -0.402068   0.597301
    26  H   -0.195428   0.375173
    27  H    0.364478  -0.293643
    28  H    0.713503  -0.548055
    29  H    0.108726   0.064658
    30  H    0.137108   0.008259
    31  H   -0.008135   0.130270
    32  H    0.145320   0.010721
    33  H   -0.157597   0.357978
    34  H   -0.113279   0.281600
    35  H   -0.270148   0.420677
    36  H   -0.460265   0.639938
    37  H   -0.259381   0.414956
    38  H   -0.565418   0.752295
    39  H   -0.078343   0.224987
    40  H    0.034638   0.127381
    41  H   -0.129376   0.270550
    42  H    0.011434   0.125709
 Sum of Mulliken charges =  -1.00000   1.00000

 Dipole moment (field-independent basis, Debye):
    X=              2.4202    Y=             -0.9894    Z=             -0.2413  Tot=              2.6257
 Quadrupole moment (field-independent basis, Debye-Ang):
   XX=           -202.9650   YY=           -159.7908   ZZ=           -145.6181
   XY=              2.8015   XZ=             -5.0015   YZ=             -0.2988

 Summary of Natural Population Analysis:

                                       Natural Population
                Natural  -----------------------------------------------
    Atom  No    Charge         Core      Valence    Rydberg      Total
 -----------------------------------------------------------------------
      C    1   -0.28774      0.99964     2.28309    0.00501     3.28774
      C    2   -0.00021      0.99958     1.98837    0.01226     3.00021
      C    3   -0.19410      0.99960     2.18614    0.00836     3.19410
      C    4   -0.18955      0.99963     2.18167    0.00825     3.18955
      C    5   -0.19331      0.99960     2.18518    0.00852     3.19331
      C    6   -0.00519      0.99958     1.99385    0.01175     3.00519
      N    7   -0.29440      0.99968     2.77984    0.01488     3.79440
      C    8   -0.08069      0.99960     2.06992    0.01117     3.08069
      C    9   -0.19343      0.99961     2.18594    0.00788     3.19343
      C   10   -0.20054      0.99959     2.19207    0.00887     3.20054
      C   11   -0.01198      0.99950     2.00179    0.01069     3.01198
      C   12   -0.10247      0.99950     2.09327    0.00969     3.10247
      C   13   -0.09820      0.99956     2.08833    0.01031     3.09820
      C   14   -0.10464      0.99956     2.09531    0.00978     3.10464
      C   15   -0.09779      0.99956     2.08752    0.01071     3.09779
      C   16   -0.10519      0.99951     2.09617    0.00952     3.10519
      C   17   -0.28825      0.99964     2.28300    0.00561     3.28825
      H   18    0.10087      0.00000     0.39820    0.00093     0.39913
      H   19    0.09824      0.00000     0.40080    0.00097     0.40176
      H   20    0.10229      0.00000     0.39685    0.00086     0.39771
      H   21    0.08618      0.00000     0.41189    0.00194     0.41382
      H   22    0.09312      0.00000     0.40536    0.00151     0.40688
      H   23    0.09683      0.00000     0.40204    0.00113     0.40317
      H   24    0.09237      0.00000     0.40628    0.00136     0.40763
      H   25    0.09848      0.00000     0.40049    0.00103     0.40152
      H   26    0.09858      0.00000     0.40030    0.00112     0.40142
      H   27    0.09347      0.00000     0.40475    0.00178     0.40653
      H   28    0.10162      0.00000     0.39624    0.00214     0.39838
      H   29    0.09898      0.00000     0.39961    0.00141     0.40102
      H   30    0.09276      0.00000     0.40610    0.00115     0.40724
      H   31    0.09433      0.00000     0.40423    0.00144     0.40567
      H   32    0.09654      0.00000     0.40209    0.00138     0.40346
      H   33    0.10447      0.00000     0.39442    0.00111     0.39553
      H   34    0.09858      0.00000     0.39921    0.00220     0.40142
      H   35    0.10075      0.00000     0.39793    0.00133     0.39925
      H   36    0.10090      0.00000     0.39791    0.00119     0.39910
      H   37    0.10131      0.00000     0.39748    0.00122     0.39869
      H   38    0.10194      0.00000     0.39685    0.00121     0.39806
      H   39    0.10162      0.00000     0.39669    0.00169     0.39838
      H   40    0.10084      0.00000     0.39812    0.00103     0.39916
      H   41    0.09741      0.00000     0.40177    0.00083     0.40259
      H   42    0.09522      0.00000     0.40373    0.00105     0.40478
 =======================================================================
   * Total *   -0.00000     16.99295    46.81081    0.19624    64.00000

 Normal termination of Gaussian 16 at Fri Dec 11 13:30:30 2020.
