 Gaussian 16, Revision A.03,

 -----------------------------------------------------------
 # opt freq B3LYP/6-31G(d) empiricaldispersion=gd3bj scf=xqc
 -----------------------------------------------------------

 ------------------------------
 CID_79731658_JID_6114_neutraal
 ------------------------------
 Symbolic Z-matrix:
 Charge =  0 Multiplicity = 1

 SCF Done:  E(RB3LYP) =  -697.011589924     A.U. after   13 cycles
 SCF Done:  E(RB3LYP) =  -697.015733018     A.U. after   11 cycles
 SCF Done:  E(RB3LYP) =  -697.015337111     A.U. after   11 cycles
 SCF Done:  E(RB3LYP) =  -697.016595982     A.U. after   10 cycles
 SCF Done:  E(RB3LYP) =  -697.017125378     A.U. after   10 cycles
 SCF Done:  E(RB3LYP) =  -697.017633734     A.U. after   10 cycles
 SCF Done:  E(RB3LYP) =  -697.017824737     A.U. after   10 cycles
 SCF Done:  E(RB3LYP) =  -697.018263284     A.U. after   10 cycles
 SCF Done:  E(RB3LYP) =  -697.018449523     A.U. after   11 cycles
 SCF Done:  E(RB3LYP) =  -697.019521079     A.U. after   10 cycles
 SCF Done:  E(RB3LYP) =  -697.022068571     A.U. after    8 cycles
 SCF Done:  E(RB3LYP) =  -697.022068747     A.U. after    7 cycles
 SCF Done:  E(RB3LYP) =  -697.022068929     A.U. after    8 cycles
 SCF Done:  E(RB3LYP) =  -697.022069112     A.U. after    8 cycles
 SCF Done:  E(RB3LYP) =  -697.022069145     A.U. after    7 cycles
 SCF Done:  E(RB3LYP) =  -697.022069160     A.U. after    6 cycles
 Optimization completed.
    -- Stationary point found.
 Normal termination of Gaussian 16 at Thu Dec 10 21:27:35 2020.

 --------------------------------------------------------------------
 #N Geom=AllCheck Guess=TCheck SCRF=Check GenChk RB3LYP/6-31G(d) Freq
 --------------------------------------------------------------------

 Structure from the checkpoint file:  "JID_6114.chk"
 ------------------------------
 CID_79731658_JID_6114_neutraal
 ------------------------------
 Charge =  0 Multiplicity = 1

 SCF Done:  E(RB3LYP) =  -697.022069160     A.U. after    1 cycles

  Exact polarizability: 168.709  -0.100 152.058  -0.904  -0.455 137.219
 Approx polarizability: 208.721  -0.152 211.648  -0.420   1.617 204.952

                      1                      2                      3
                      A                      A                      A
 Frequencies --      6.8897                35.9803                49.3971
 Red. masses --      4.1224                 3.4146                 3.5939
 Frc consts  --      0.0001                 0.0026                 0.0052
 IR Inten    --      0.1612                 0.0879                 0.1046

                      4                      5                      6
                      A                      A                      A
 Frequencies --     64.0004                82.7365                97.9565
 Red. masses --      2.7787                 2.8342                 2.9694
 Frc consts  --      0.0067                 0.0114                 0.0168
 IR Inten    --      0.9498                 0.4369                 0.2195

                      7                      8                      9
                      A                      A                      A
 Frequencies --    132.5645               148.5833               165.0611
 Red. masses --      2.5898                 3.3191                 2.7542
 Frc consts  --      0.0268                 0.0432                 0.0442
 IR Inten    --      0.8535                 5.6757                 4.7845

                     10                     11                     12
                      A                      A                      A
 Frequencies --    193.9273               216.2554               239.5138
 Red. masses --      1.5593                 1.5557                 2.4931
 Frc consts  --      0.0346                 0.0429                 0.0843
 IR Inten    --      8.4075                11.3758                 4.8003

                     13                     14                     15
                      A                      A                      A
 Frequencies --    246.8468               269.2243               281.6835
 Red. masses --      1.8725                 1.6277                 2.0399
 Frc consts  --      0.0672                 0.0695                 0.0954
 IR Inten    --      0.1176                12.7400                 8.0056

                     16                     17                     18
                      A                      A                      A
 Frequencies --    297.8678               316.9252               328.3973
 Red. masses --      1.7667                 2.6639                 2.9159
 Frc consts  --      0.0924                 0.1576                 0.1853
 IR Inten    --      0.2364                 1.5073                 1.2095

                     19                     20                     21
                      A                      A                      A
 Frequencies --    368.5264               388.4642               402.4363
 Red. masses --      2.2024                 2.6962                 2.1417
 Frc consts  --      0.1762                 0.2397                 0.2044
 IR Inten    --      1.0236                 5.3392                 7.3055

                     22                     23                     24
                      A                      A                      A
 Frequencies --    427.6647               445.5283               481.0135
 Red. masses --      1.8070                 2.1562                 2.2346
 Frc consts  --      0.1947                 0.2522                 0.3046
 IR Inten    --      4.3069                 0.5959                 3.0548

                     25                     26                     27
                      A                      A                      A
 Frequencies --    500.3469               523.4781               574.4784
 Red. masses --      2.9870                 2.0693                 2.8152
 Frc consts  --      0.4406                 0.3341                 0.5474
 IR Inten    --      0.7810                 2.4942                 0.8719

                     28                     29                     30
                      A                      A                      A
 Frequencies --    623.1302               730.2704               768.4892
 Red. masses --      2.8401                 1.3111                 2.0314
 Frc consts  --      0.6497                 0.4120                 0.7068
 IR Inten    --      8.4631                12.9431                 2.7740

                     31                     32                     33
                      A                      A                      A
 Frequencies --    780.8285               796.9548               832.6971
 Red. masses --      1.6727                 2.8134                 1.4978
 Frc consts  --      0.6009                 1.0528                 0.6119
 IR Inten    --      0.7964                 7.6318                 0.8239

                     34                     35                     36
                      A                      A                      A
 Frequencies --    840.6352               846.5829               865.2538
 Red. masses --      2.3973                 1.8296                 1.5098
 Frc consts  --      0.9981                 0.7726                 0.6660
 IR Inten    --      1.7927                10.2430                45.2023

                     37                     38                     39
                      A                      A                      A
 Frequencies --    873.3316               906.1970               930.1224
 Red. masses --      1.4398                 2.0860                 2.2100
 Frc consts  --      0.6470                 1.0093                 1.1265
 IR Inten    --    123.3797                 0.6088                20.1505

                     40                     41                     42
                      A                      A                      A
 Frequencies --    951.6769               957.3045               995.2691
 Red. masses --      1.6745                 1.8184                 1.6816
 Frc consts  --      0.8935                 0.9818                 0.9814
 IR Inten    --      6.1069                 1.1344                 8.2966

                     43                     44                     45
                      A                      A                      A
 Frequencies --   1006.7653              1011.8180              1025.1242
 Red. masses --      1.4634                 1.7123                 1.8436
 Frc consts  --      0.8739                 1.0329                 1.1415
 IR Inten    --      2.3853                 0.6595                 4.7278

                     46                     47                     48
                      A                      A                      A
 Frequencies --   1031.9522              1046.2251              1055.0237
 Red. masses --      1.8499                 1.8309                 2.0593
 Frc consts  --      1.1607                 1.1808                 1.3505
 IR Inten    --      8.9811                 1.3218                15.8580

                     49                     50                     51
                      A                      A                      A
 Frequencies --   1078.7379              1091.8328              1124.5234
 Red. masses --      2.3675                 1.7629                 2.2793
 Frc consts  --      1.6232                 1.2382                 1.6982
 IR Inten    --     24.6482                 4.4941                 9.9146

                     52                     53                     54
                      A                      A                      A
 Frequencies --   1128.6584              1135.9595              1143.4508
 Red. masses --      2.5563                 2.2843                 2.2687
 Frc consts  --      1.9186                 1.7367                 1.7477
 IR Inten    --     30.3390                 0.5956                14.3217

                     55                     56                     57
                      A                      A                      A
 Frequencies --   1151.7836              1171.0347              1187.4599
 Red. masses --      2.2915                 2.3789                 1.9246
 Frc consts  --      1.7911                 1.9221                 1.5989
 IR Inten    --    133.2605                58.2538                 9.2291

                     58                     59                     60
                      A                      A                      A
 Frequencies --   1194.6787              1205.7866              1214.1471
 Red. masses --      1.9652                 1.5869                 1.5641
 Frc consts  --      1.6526                 1.3594                 1.3585
 IR Inten    --     33.8569                17.0038                13.4041

                     61                     62                     63
                      A                      A                      A
 Frequencies --   1249.4341              1259.0349              1264.6442
 Red. masses --      1.3071                 1.1725                 1.3279
 Frc consts  --      1.2023                 1.0951                 1.2512
 IR Inten    --      2.4470                 2.6632                 4.4706

                     64                     65                     66
                      A                      A                      A
 Frequencies --   1298.2678              1300.1453              1323.0541
 Red. masses --      1.4074                 1.3214                 1.3267
 Frc consts  --      1.3976                 1.3160                 1.3683
 IR Inten    --     10.8747                 4.1446                 6.4179

                     67                     68                     69
                      A                      A                      A
 Frequencies --   1337.5684              1340.4398              1340.9325
 Red. masses --      1.2275                 1.5095                 1.1249
 Frc consts  --      1.2939                 1.5980                 1.1917
 IR Inten    --      0.7906                18.5472                 0.2288

                     70                     71                     72
                      A                      A                      A
 Frequencies --   1358.6869              1376.5809              1381.8411
 Red. masses --      1.3252                 1.1217                 1.3530
 Frc consts  --      1.4414                 1.2524                 1.5222
 IR Inten    --      1.4714                20.7642                 9.8426

                     73                     74                     75
                      A                      A                      A
 Frequencies --   1384.7281              1388.8414              1404.9743
 Red. masses --      1.2741                 1.3279                 1.4438
 Frc consts  --      1.4394                 1.5091                 1.6791
 IR Inten    --      7.1581                16.6833                 3.9972

                     76                     77                     78
                      A                      A                      A
 Frequencies --   1406.0516              1416.4854              1417.7291
 Red. masses --      1.3523                 1.4001                 1.4193
 Frc consts  --      1.5751                 1.6552                 1.6808
 IR Inten    --      1.2343                 3.0044                17.7836

                     79                     80                     81
                      A                      A                      A
 Frequencies --   1428.1956              1431.7064              1435.5299
 Red. masses --      1.3166                 1.4066                 1.3630
 Frc consts  --      1.5823                 1.6988                 1.6549
 IR Inten    --     26.8411                11.7733                 5.7436

                     82                     83                     84
                      A                      A                      A
 Frequencies --   1444.1202              1451.2428              1453.8966
 Red. masses --      1.2721                 1.3951                 1.3819
 Frc consts  --      1.5631                 1.7312                 1.7211
 IR Inten    --      2.6138                 5.8637                 3.7915

                     85                     86                     87
                      A                      A                      A
 Frequencies --   1490.7072              1506.7315              1510.1133
 Red. masses --      1.0962                 1.0807                 1.0908
 Frc consts  --      1.4352                 1.4456                 1.4656
 IR Inten    --      8.0652                 0.2925                 1.8987

                     88                     89                     90
                      A                      A                      A
 Frequencies --   1516.6436              1519.3901              1524.4005
 Red. masses --      1.0887                 1.0894                 1.0726
 Frc consts  --      1.4755                 1.4817                 1.4685
 IR Inten    --      2.5335                 2.5861                 0.1752

                     91                     92                     93
                      A                      A                      A
 Frequencies --   1527.3135              1530.8173              1533.2033
 Red. masses --      1.0758                 1.0825                 1.0702
 Frc consts  --      1.4786                 1.4945                 1.4822
 IR Inten    --      6.3953                 3.0815                 4.1388

                     94                     95                     96
                      A                      A                      A
 Frequencies --   1537.0166              1541.9081              1547.6144
 Red. masses --      1.0685                 1.0837                 1.0961
 Frc consts  --      1.4873                 1.5180                 1.5468
 IR Inten    --      7.9298                 2.6886                 6.4698

                     97                     98                     99
                      A                      A                      A
 Frequencies --   1553.5910              1699.7995              2904.3805
 Red. masses --      1.0856                 1.0871                 1.0741
 Frc consts  --      1.5438                 1.8507                 5.3383
 IR Inten    --      4.0975                25.6469                27.1064

                    100                    101                    102
                      A                      A                      A
 Frequencies --   2910.6269              2928.1066              3012.7795
 Red. masses --      1.0734                 1.0738                 1.0706
 Frc consts  --      5.3576                 5.4242                 5.7257
 IR Inten    --     63.1785               168.4558                47.0113

                    103                    104                    105
                      A                      A                      A
 Frequencies --   3014.4644              3028.7963              3032.8172
 Red. masses --      1.0826                 1.0654                 1.0675
 Frc consts  --      5.7960                 5.7587                 5.7853
 IR Inten    --     69.3258                20.1694                30.0783

                    106                    107                    108
                      A                      A                      A
 Frequencies --   3039.0736              3042.8375              3045.0385
 Red. masses --      1.0646                 1.0385                 1.0631
 Frc consts  --      5.7933                 5.6650                 5.8076
 IR Inten    --     35.3428                25.8876                 7.9052

                    109                    110                    111
                      A                      A                      A
 Frequencies --   3050.6491              3063.6217              3063.9899
 Red. masses --      1.0614                 1.0706                 1.0889
 Frc consts  --      5.8198                 5.9206                 6.0232
 IR Inten    --     25.9992                34.3678                 7.2619

                    112                    113                    114
                      A                      A                      A
 Frequencies --   3070.7425              3071.4097              3072.6367
 Red. masses --      1.0866                 1.0922                 1.0798
 Frc consts  --      6.0368                 6.0708                 6.0063
 IR Inten    --     35.8920                21.3645                26.2039

                    115                    116                    117
                      A                      A                      A
 Frequencies --   3079.3529              3083.4140              3088.5976
 Red. masses --      1.0892                 1.0889                 1.0962
 Frc consts  --      6.0851                 6.0994                 6.1614
 IR Inten    --      0.0804                47.2910               134.3932

                    118                    119                    120
                      A                      A                      A
 Frequencies --   3092.2883              3094.5211              3108.4509
 Red. masses --      1.1002                 1.0982                 1.0917
 Frc consts  --      6.1982                 6.1961                 6.2150
 IR Inten    --     39.6215                54.9136                 6.0635

                    121                    122                    123
                      A                      A                      A
 Frequencies --   3108.9838              3113.2607              3129.7408
 Red. masses --      1.0963                 1.1018                 1.0959
 Frc consts  --      6.2435                 6.2919                 6.3248
 IR Inten    --     86.5249                45.5700                 1.8324

                    124                    125                    126
                      A                      A                      A
 Frequencies --   3134.2459              3467.6286              3549.7464
 Red. masses --      1.0959                 1.0497                 1.0917
 Frc consts  --      6.3431                 7.4367                 8.1048
 IR Inten    --     48.3739                 2.2241                 0.8396

 - Thermochemistry -
 -------------------
 Temperature   298.150 Kelvin.  Pressure   1.00000 Atm.
 Atom     1 has atomic number  6 and mass  12.00000

 Molecular mass:   228.22016 amu.
 Principal axes and moments of inertia in atomic units:
                           1         2         3
     Eigenvalues --  2570.821405866.468597108.74471
           X            0.99999   0.00093   0.00375
           Y           -0.00089   0.99995  -0.00972
           Z           -0.00376   0.00971   0.99995
 This molecule is an asymmetric top.
 Rotational symmetry number  1.
 Warning -- assumption of classical behavior for rotation
           may cause significant error
 Rotational temperatures (Kelvin)      0.03369     0.01476     0.01218
 Rotational constants (GHZ):           0.70201     0.30764     0.25388
 Zero-point vibrational energy    1081573.9 (Joules/Mol)
                                  258.50237 (Kcal/Mol)
 Warning -- explicit consideration of  27 degrees of freedom as
           vibrations may cause significant error
 Vibrational temperatures:      9.91    51.77    71.07    92.08   119.04
          (Kelvin)            140.94   190.73   213.78   237.49   279.02
                              311.14   344.61   355.16   387.35   405.28
                              428.57   455.98   472.49   530.23   558.91
                              579.02   615.31   641.02   692.07   719.89
                              753.17   826.55   896.55  1050.70  1105.68
                             1123.44  1146.64  1198.07  1209.49  1218.04
                             1244.91  1256.53  1303.82  1338.24  1369.25
                             1377.35  1431.97  1448.51  1455.78  1474.93
                             1484.75  1505.28  1517.94  1552.06  1570.90
                             1617.94  1623.89  1634.39  1645.17  1657.16
                             1684.86  1708.49  1718.88  1734.86  1746.89
                             1797.66  1811.47  1819.54  1867.92  1870.62
                             1903.58  1924.46  1928.59  1929.30  1954.85
                             1980.59  1988.16  1992.31  1998.23  2021.44
                             2022.99  2038.01  2039.80  2054.85  2059.91
                             2065.41  2077.77  2088.01  2091.83  2144.80
                             2167.85  2172.72  2182.11  2186.06  2193.27
                             2197.46  2202.50  2205.94  2211.42  2218.46
                             2226.67  2235.27  2445.63  4178.76  4187.74
                             4212.89  4334.72  4337.14  4357.76  4363.55
                             4372.55  4377.96  4381.13  4389.20  4407.87
                             4408.40  4418.11  4419.07  4420.84  4430.50
                             4436.35  4443.80  4449.11  4452.33  4472.37
                             4473.13  4479.29  4503.00  4509.48  4989.14
                             5107.29

 Zero-point correction=                           0.411950 (Hartree/Particle)
 Thermal correction to Energy=                    0.429998
 Thermal correction to Enthalpy=                  0.430942
 Thermal correction to Gibbs Free Energy=         0.364127
 Sum of electronic and zero-point Energies=           -696.610119
 Sum of electronic and thermal Energies=              -696.592071
 Sum of electronic and thermal Enthalpies=            -696.591127
 Sum of electronic and thermal Free Energies=         -696.657942

                     E (Thermal)             CV                S
                      KCal/Mol        Cal/Mol-Kelvin    Cal/Mol-Kelvin
 Total                  269.828             68.785            140.625
 Electronic               0.000              0.000              0.000
 Translational            0.889              2.981             42.178
 Rotational               0.889              2.981             33.038
 Vibrational            268.050             62.824             65.409
 Vibration     1          0.593              1.987              8.751
 Vibration     2          0.594              1.982              5.469
 Vibration     3          0.595              1.978              4.841
 Vibration     4          0.597              1.971              4.330
 Vibration     5          0.600              1.961              3.825
 Vibration     6          0.603              1.951              3.495
 Vibration     7          0.613              1.921              2.908
 Vibration     8          0.618              1.904              2.690
 Vibration     9          0.623              1.885              2.491
 Vibration    10          0.635              1.848              2.190
 Vibration    11          0.645              1.816              1.990
 Vibration    12          0.657              1.780              1.806
 Vibration    13          0.661              1.768              1.753
 Vibration    14          0.674              1.730              1.601
 Vibration    15          0.681              1.708              1.523
 Vibration    16          0.691              1.678              1.429
 Vibration    17          0.704              1.641              1.326
 Vibration    18          0.712              1.619              1.268
 Vibration    19          0.741              1.537              1.086
 Vibration    20          0.757              1.495              1.006
 Vibration    21          0.768              1.465              0.954
 Vibration    22          0.789              1.410              0.866
 Vibration    23          0.805              1.371              0.809
 Vibration    24          0.837              1.292              0.707
 Vibration    25          0.856              1.249              0.657
 Vibration    26          0.878              1.198              0.602
 Vibration    27          0.931              1.086              0.496

                           ! Non-Optimized Parameters !
 Normal termination of Gaussian 16 at Thu Dec 10 21:44:57 2020.

 ----------------------------------------------------------------------
 # B3LYP/6-311++G(d,p) empiricaldispersion=gd3bj scf=xqc pop=npa geom=c
 heck
 ----------------------------------------------------------------------

 --------------------------------------
 CID_79731658_JID_6114_Energie_neutraal
 --------------------------------------
 Structure from the checkpoint file:  "JID_6114.chk"
 Charge =  0 Multiplicity = 1

 SCF Done:  E(RB3LYP) =  -697.225165684     A.U. after   14 cycles
 Normal termination of Gaussian 16 at Thu Dec 10 21:53:24 2020.

 ----------------------------------------------------------------------
 # B3LYP/6-311++G(d,p) empiricaldispersion=gd3bj scf=xqc pop=npa geom=c
 heck
 ----------------------------------------------------------------------

 ------------------------------------
 CID_79731658_JID_6114_Energie_kation
 ------------------------------------
 Structure from the checkpoint file:  "JID_6114.chk"
 Charge =  1 Multiplicity = 2

 SCF Done:  E(UB3LYP) =  -696.936290476     A.U. after   24 cycles
 Normal termination of Gaussian 16 at Thu Dec 10 22:14:52 2020.
 Gaussian 16:  ES64L-G16RevA.03 25-Dec-2016

 ----------------------------------------------------------------------
 # B3LYP/6-311++G(d,p) empiricaldispersion=gd3bj scf=xqc pop=npa geom=c
 heck
 ----------------------------------------------------------------------

 -----------------------------------
 CID_79731658_JID_6114_Energie_anion
 -----------------------------------
 Structure from the checkpoint file:  "JID_6114.chk"
 Charge = -1 Multiplicity = 2

                         Standard orientation:
 ---------------------------------------------------------------------
 Center     Atomic      Atomic             Coordinates (Angstroms)
 Number     Number       Type             X           Y           Z
 ---------------------------------------------------------------------
      1          6           0       -4.384473    1.429671   -1.073461
      2          6           0       -2.953945    1.528603   -0.535967
      3          6           0       -2.774565    0.964274    0.880242
      4          6           0       -3.136940   -0.520601    1.038842
      5          6           0       -2.408885   -1.449107    0.057286
      6          7           0       -0.974498   -1.190876   -0.018695
      7          6           0       -0.256057   -1.549019    1.200234
      8          6           0        1.165544   -0.984145    1.158093
      9          6           0        1.907522   -1.492951   -0.080061
     10          6           0        1.079641   -1.294608   -1.355921
     11          6           0       -0.346614   -1.817473   -1.178747
     12          8           0        3.239658   -1.006154   -0.245202
     13          6           0        3.616525    0.289508    0.207474
     14          6           0        3.193022    1.483995   -0.668209
     15          6           0        1.837005    2.141491   -0.382315
     16          7           0        1.814314    2.737086    0.962103
     17          1           0       -4.708021    0.387964   -1.180595
     18          1           0       -4.471371    1.902630   -2.058069
     19          1           0       -5.094363    1.926845   -0.400577
     20          1           0       -2.261766    1.014856   -1.214068
     21          1           0       -2.645253    2.582556   -0.530533
     22          1           0       -1.728534    1.106667    1.176607
     23          1           0       -3.384903    1.548289    1.583469
     24          1           0       -2.934778   -0.826672    2.073003
     25          1           0       -4.214877   -0.667591    0.896016
     26          1           0       -2.626545   -2.504529    0.316540
     27          1           0       -2.813926   -1.289268   -0.948436
     28          1           0       -0.227930   -2.649675    1.340093
     29          1           0       -0.782906   -1.132109    2.062685
     30          1           0        1.712714   -1.266244    2.065776
     31          1           0        1.080873    0.105367    1.142938
     32          1           0        2.038992   -2.576725    0.053174
     33          1           0        1.035478   -0.232756   -1.610677
     34          1           0        1.576791   -1.810822   -2.184859
     35          1           0       -0.942735   -1.580923   -2.066977
     36          1           0       -0.335478   -2.923343   -1.082643
     37          1           0        3.319487    0.444790    1.253879
     38          1           0        4.710133    0.243213    0.204846
     39          1           0        3.952426    2.265137   -0.535283
     40          1           0        3.238269    1.163309   -1.716181
     41          1           0        1.702380    2.960774   -1.098677
     42          1           0        1.011325    1.436227   -0.560456
     43          1           0        0.927102    3.217355    1.104306
     44          1           0        1.844770    2.002605    1.667520
 ---------------------------------------------------------------------

 SCF Done:  E(UB3LYP) =  -697.212082090     A.U. after   26 cycles

 The electronic state is 2-A.
 Alpha  occ. eigenvalues --  -19.02795 -14.20940 -14.19913 -10.12865 -10.12660
 Alpha  occ. eigenvalues --  -10.10119 -10.09889 -10.09876 -10.09523 -10.07710
 Alpha  occ. eigenvalues --  -10.07461 -10.07153 -10.06560 -10.05983 -10.05833
 Alpha  occ. eigenvalues --  -10.05809  -0.93766  -0.83839  -0.79013  -0.71486
 Alpha  occ. eigenvalues --   -0.69317  -0.66929  -0.66607  -0.63925  -0.59423
 Alpha  occ. eigenvalues --   -0.57382  -0.54442  -0.53288  -0.50889  -0.48849
 Alpha  occ. eigenvalues --   -0.46405  -0.45141  -0.42279  -0.40329  -0.38650
 Alpha  occ. eigenvalues --   -0.38265  -0.37737  -0.36832  -0.36177  -0.35644
 Alpha  occ. eigenvalues --   -0.35122  -0.33984  -0.32842  -0.32647  -0.31287
 Alpha  occ. eigenvalues --   -0.30640  -0.29313  -0.28799  -0.28272  -0.27535
 Alpha  occ. eigenvalues --   -0.26942  -0.26385  -0.26128  -0.25404  -0.24839
 Alpha  occ. eigenvalues --   -0.24342  -0.23911  -0.22176  -0.22074  -0.21635
 Alpha  occ. eigenvalues --   -0.20248  -0.16258  -0.15236  -0.12710   0.04260
 Alpha virt. eigenvalues --    0.06306   0.06645   0.06758   0.07827   0.08150
 Alpha virt. eigenvalues --    0.08662   0.08750   0.09035   0.10101   0.10449
 Alpha virt. eigenvalues --    0.10777   0.11148   0.11250   0.11883   0.12087

  Beta  occ. eigenvalues --  -19.02790 -14.20930 -14.19881 -10.12861 -10.12651
  Beta  occ. eigenvalues --  -10.10107 -10.09867 -10.09866 -10.09509 -10.07706
  Beta  occ. eigenvalues --  -10.07443 -10.07149 -10.06544 -10.05967 -10.05814
  Beta  occ. eigenvalues --  -10.05780  -0.93752  -0.83817  -0.78962  -0.71463
  Beta  occ. eigenvalues --   -0.69287  -0.66901  -0.66581  -0.63889  -0.59386
  Beta  occ. eigenvalues --   -0.57337  -0.54396  -0.53249  -0.50848  -0.48805
  Beta  occ. eigenvalues --   -0.46372  -0.45085  -0.42248  -0.40295  -0.38618
  Beta  occ. eigenvalues --   -0.38235  -0.37710  -0.36801  -0.36156  -0.35608
  Beta  occ. eigenvalues --   -0.35094  -0.33956  -0.32815  -0.32622  -0.31255
  Beta  occ. eigenvalues --   -0.30609  -0.29281  -0.28764  -0.28244  -0.27509
  Beta  occ. eigenvalues --   -0.26918  -0.26356  -0.26102  -0.25375  -0.24810
  Beta  occ. eigenvalues --   -0.24324  -0.23886  -0.22144  -0.22043  -0.21596
  Beta  occ. eigenvalues --   -0.20225  -0.16246  -0.15205  -0.12647
  Beta virt. eigenvalues --    0.06262   0.06879   0.07144   0.07247   0.08070
  Beta virt. eigenvalues --    0.08446   0.09001   0.09116   0.09410   0.10299
  Beta virt. eigenvalues --    0.10595   0.11069   0.11369   0.11491   0.12255

 Mulliken charges and spin densities:
               1          2
     1  C    0.637852  -1.330726
     2  C   -0.589299   0.445040
     3  C    0.287042  -0.275674
     4  C    0.204753  -0.699499
     5  C   -0.158207  -0.133090
     6  N    0.171942   0.106102
     7  C    0.401035  -1.085589
     8  C   -0.151186   0.310864
     9  C   -0.276302  -0.435097
    10  C   -0.333694   0.252841
    11  C    0.135537  -0.506914
    12  O   -0.077185   0.016463
    13  C   -0.282695  -0.064717
    14  C   -0.165495  -0.119376
    15  C    0.259455  -0.447081
    16  N   -0.327058  -0.008770
    17  H   -0.097577   0.226337
    18  H   -0.270979   0.405856
    19  H   -0.075506   0.214674
    20  H    0.216810  -0.065673
    21  H   -0.194794   0.352217
    22  H   -0.009798   0.161817
    23  H   -0.442241   0.622880
    24  H   -0.128106   0.284831
    25  H    0.020062   0.134950
    26  H    0.032104   0.067817
    27  H   -0.075757   0.221173
    28  H   -0.040233   0.159460
    29  H   -0.232709   0.400228
    30  H   -0.420947   0.622987
    31  H    0.516490  -0.374956
    32  H    0.176120   0.011977
    33  H    0.133386   0.024342
    34  H   -0.015544   0.191236
    35  H   -0.114439   0.277769
    36  H   -0.012520   0.121315
    37  H    0.035334   0.104549
    38  H    0.075081   0.093190
    39  H    0.116705   0.036861
    40  H    0.095971   0.074459
    41  H   -0.004820   0.183513
    42  H    0.080171  -0.126900
    43  H   -0.027228   0.285448
    44  H   -0.071531   0.262866
 Sum of Mulliken charges =  -1.00000   1.00000

 Dipole moment (field-independent basis, Debye):
    X=              3.7901    Y=             -3.2126    Z=             -2.4413  Tot=              5.5358
 Quadrupole moment (field-independent basis, Debye-Ang):
   XX=           -177.8908   YY=           -157.8584   ZZ=           -149.6940
   XY=              7.7371   XZ=             -4.4769   YZ=             -2.1856

 Summary of Natural Population Analysis:

                                       Natural Population
                Natural  -----------------------------------------------
    Atom  No    Charge         Core      Valence    Rydberg      Total
 -----------------------------------------------------------------------
      C    1   -0.28505      0.99967     2.28120    0.00418     3.28505
      C    2   -0.19344      0.99964     2.18512    0.00868     3.19344
      C    3   -0.18891      0.99962     2.17949    0.00979     3.18891
      C    4   -0.19539      0.99962     2.18720    0.00857     3.19539
      C    5   -0.08145      0.99961     2.07126    0.01057     3.08145
      N    6   -0.28811      0.99970     2.77679    0.01163     3.78811
      C    7   -0.08089      0.99961     2.06974    0.01154     3.08089
      C    8   -0.21218      0.99959     2.20268    0.00990     3.21218
      C    9    0.07265      0.99950     1.91415    0.01369     2.92735
      C   10   -0.20431      0.99959     2.19520    0.00952     3.20431
      C   11   -0.08038      0.99961     2.07018    0.01060     3.08038
      O   12   -0.30678      0.99988     3.29767    0.00923     4.30678
      C   13   -0.00973      0.99956     1.99807    0.01210     3.00973
      C   14   -0.21054      0.99962     2.20353    0.00739     3.21054
      C   15   -0.09681      0.99963     2.08632    0.01086     3.09681
      N   16   -0.42382      0.99977     2.91394    0.01010     3.92382
      H   17    0.09350      0.00000     0.40539    0.00111     0.40650
      H   18    0.09831      0.00000     0.40058    0.00111     0.40169
      H   19    0.09497      0.00000     0.40383    0.00120     0.40503
      H   20    0.09502      0.00000     0.40278    0.00220     0.40498
      H   21    0.09626      0.00000     0.40233    0.00141     0.40374
      H   22    0.09950      0.00000     0.39783    0.00267     0.40050
      H   23    0.09492      0.00000     0.40377    0.00131     0.40508
      H   24    0.09743      0.00000     0.40122    0.00135     0.40257
      H   25    0.09795      0.00000     0.40101    0.00104     0.40205
      H   26    0.08276      0.00000     0.41602    0.00121     0.41724
      H   27    0.09481      0.00000     0.40373    0.00146     0.40519
      H   28    0.07895      0.00000     0.41947    0.00158     0.42105
      H   29    0.10309      0.00000     0.39523    0.00168     0.39691
      H   30    0.10280      0.00000     0.39597    0.00123     0.39720
      H   31    0.09931      0.00000     0.39738    0.00332     0.40069
      H   32    0.08493      0.00000     0.41329    0.00178     0.41507
      H   33    0.09869      0.00000     0.39903    0.00228     0.40131
      H   34    0.10018      0.00000     0.39881    0.00100     0.39982
      H   35    0.09880      0.00000     0.40009    0.00110     0.40120
      H   36    0.07775      0.00000     0.42085    0.00140     0.42225
      H   37    0.08025      0.00000     0.41837    0.00137     0.41975
      H   38    0.08880      0.00000     0.41008    0.00113     0.41120
      H   39    0.10092      0.00000     0.39782    0.00126     0.39908
      H   40    0.10103      0.00000     0.39790    0.00107     0.39897
      H   41    0.09130      0.00000     0.40756    0.00114     0.40870
      H   42    0.08253      0.00000     0.41444    0.00302     0.41747
      H   43    0.17894      0.00000     0.31902    0.00204     0.32106
      H   44    0.17144      0.00000     0.32627    0.00230     0.32856
 =======================================================================
   * Total *   -0.00000     15.99422    47.80263    0.20314    64.00000

 Normal termination of Gaussian 16 at Thu Dec 10 22:35:55 2020.
