 Gaussian 16, Revision A.03,

 -----------------------------------------------------------
 # opt freq B3LYP/6-31G(d) empiricaldispersion=gd3bj scf=xqc
 -----------------------------------------------------------

 ------------------------------
 CID_71380029_JID_6837_neutraal
 ------------------------------
 Symbolic Z-matrix:
 Charge =  0 Multiplicity = 1

 SCF Done:  E(RB3LYP) =  -652.695290357     A.U. after   15 cycles
 SCF Done:  E(RB3LYP) =  -652.698054807     A.U. after   12 cycles
 SCF Done:  E(RB3LYP) =  -652.697493562     A.U. after   13 cycles
 SCF Done:  E(RB3LYP) =  -652.698656582     A.U. after   13 cycles
 SCF Done:  E(RB3LYP) =  -652.699291121     A.U. after   13 cycles
 SCF Done:  E(RB3LYP) =  -652.699559730     A.U. after   12 cycles
 SCF Done:  E(RB3LYP) =  -652.699681673     A.U. after   11 cycles
 SCF Done:  E(RB3LYP) =  -652.699916364     A.U. after   12 cycles
 SCF Done:  E(RB3LYP) =  -652.700058250     A.U. after   11 cycles
 SCF Done:  E(RB3LYP) =  -652.700138303     A.U. after   11 cycles
 SCF Done:  E(RB3LYP) =  -652.700583823     A.U. after   11 cycles
 SCF Done:  E(RB3LYP) =  -652.700591186     A.U. after    9 cycles
 SCF Done:  E(RB3LYP) =  -652.700593021     A.U. after    8 cycles
 SCF Done:  E(RB3LYP) =  -652.700593522     A.U. after    8 cycles
 SCF Done:  E(RB3LYP) =  -652.700593799     A.U. after    7 cycles
 SCF Done:  E(RB3LYP) =  -652.700593956     A.U. after    7 cycles
 Optimization completed.
    -- Stationary point found.
 Normal termination of Gaussian 16 at Fri Dec 11 00:54:53 2020.

 --------------------------------------------------------------------
 #N Geom=AllCheck Guess=TCheck SCRF=Check GenChk RB3LYP/6-31G(d) Freq
 --------------------------------------------------------------------

 Structure from the checkpoint file:  "JID_6837.chk"
 ------------------------------
 CID_71380029_JID_6837_neutraal
 ------------------------------
 Charge =  0 Multiplicity = 1

 SCF Done:  E(RB3LYP) =  -652.700593956     A.U. after    1 cycles

  Exact polarizability: 171.341  -2.628 193.364  20.469   1.572  90.564
 Approx polarizability: 257.801  -6.739 310.012  47.645   0.956 146.731

                      1                      2                      3
                      A                      A                      A
 Frequencies --     35.7127                58.6579                76.2981
 Red. masses --      5.5158                 3.7284                 6.1888
 Frc consts  --      0.0041                 0.0076                 0.0212
 IR Inten    --      1.5762                 2.4860                 5.0501

                      4                      5                      6
                      A                      A                      A
 Frequencies --     96.7369               103.8369               127.0216
 Red. masses --      1.0336                 5.2018                 2.5040
 Frc consts  --      0.0057                 0.0330                 0.0238
 IR Inten    --      0.4915                 4.7324                 1.3157

                      7                      8                      9
                      A                      A                      A
 Frequencies --    162.0966               165.2131               192.9286
 Red. masses --      3.0907                 1.1801                 3.4207
 Frc consts  --      0.0478                 0.0190                 0.0750
 IR Inten    --      0.8862                 0.1805                 7.3038

                     10                     11                     12
                      A                      A                      A
 Frequencies --    234.2318               249.6585               286.2176
 Red. masses --      3.1000                 3.4504                 3.4040
 Frc consts  --      0.1002                 0.1267                 0.1643
 IR Inten    --      1.4124                 3.9903                 0.7207

                     13                     14                     15
                      A                      A                      A
 Frequencies --    304.1910               326.1729               361.0073
 Red. masses --      2.8146                 3.6508                 2.4174
 Frc consts  --      0.1534                 0.2288                 0.1856
 IR Inten    --      0.5257                 0.8787                 0.8918

                     16                     17                     18
                      A                      A                      A
 Frequencies --    390.8197               444.2292               448.8973
 Red. masses --      3.1421                 2.8770                 3.0797
 Frc consts  --      0.2828                 0.3345                 0.3656
 IR Inten    --      0.2877                 0.3195                 3.1803

                     19                     20                     21
                      A                      A                      A
 Frequencies --    503.5403               556.4220               557.5307
 Red. masses --      5.2717                 4.3798                 3.4455
 Frc consts  --      0.7875                 0.7989                 0.6310
 IR Inten    --      0.9318                 4.3204                 0.2774

                     22                     23                     24
                      A                      A                      A
 Frequencies --    583.0260               588.7040               610.0341
 Red. masses --      4.1558                 3.3161                 4.1234
 Frc consts  --      0.8323                 0.6771                 0.9041
 IR Inten    --      0.2046                 0.2651                 2.3815

                     25                     26                     27
                      A                      A                      A
 Frequencies --    645.1193               700.8780               757.3822
 Red. masses --      4.0860                 4.5448                 1.3861
 Frc consts  --      1.0019                 1.3154                 0.4685
 IR Inten    --      1.7398                 0.3329                52.3480

                     28                     29                     30
                      A                      A                      A
 Frequencies --    774.4626               783.4301               805.7441
 Red. masses --      3.4475                 2.2941                 2.8011
 Frc consts  --      1.2183                 0.8296                 1.0714
 IR Inten    --      7.0431                 1.8277                 6.8658

                     31                     32                     33
                      A                      A                      A
 Frequencies --    853.8084               863.7686               874.3570
 Red. masses --      2.9313                 1.4406                 2.6075
 Frc consts  --      1.2590                 0.6333                 1.1745
 IR Inten    --      6.9009                 1.0839                 7.8444

                     34                     35                     36
                      A                      A                      A
 Frequencies --    928.0284               929.7463               968.5267
 Red. masses --      1.3487                 2.3272                 1.2217
 Frc consts  --      0.6844                 1.1853                 0.6752
 IR Inten    --      3.6578                 3.1119                 1.0267

                     37                     38                     39
                      A                      A                      A
 Frequencies --    976.3962              1012.8035              1049.2806
 Red. masses --      2.1809                 1.8021                 2.2139
 Frc consts  --      1.2250                 1.0891                 1.4361
 IR Inten    --      2.5697                 0.9579                 6.3054

                     40                     41                     42
                      A                      A                      A
 Frequencies --   1069.0686              1073.9160              1078.6104
 Red. masses --      1.4130                 2.8734                 1.8177
 Frc consts  --      0.9515                 1.9525                 1.2459
 IR Inten    --      1.1366                 5.8400                 0.4363

                     43                     44                     45
                      A                      A                      A
 Frequencies --   1082.0084              1101.4056              1118.9840
 Red. masses --      1.6739                 2.5920                 1.8068
 Frc consts  --      1.1546                 1.8526                 1.3329
 IR Inten    --      0.2040                 2.0909                 0.4218

                     46                     47                     48
                      A                      A                      A
 Frequencies --   1162.6468              1186.2645              1210.3065
 Red. masses --      1.5156                 1.3201                 1.6274
 Frc consts  --      1.2071                 1.0945                 1.4045
 IR Inten    --      0.9604                 2.9033                13.2793

                     49                     50                     51
                      A                      A                      A
 Frequencies --   1227.2118              1238.1402              1285.4732
 Red. masses --      1.2652                 2.1700                 1.5979
 Frc consts  --      1.1226                 1.9600                 1.5557
 IR Inten    --      7.0572                 1.7043                18.8578

                     52                     53                     54
                      A                      A                      A
 Frequencies --   1327.5152              1369.9421              1377.1134
 Red. masses --      1.2628                 1.5981                 1.7213
 Frc consts  --      1.3112                 1.7670                 1.9233
 IR Inten    --      0.7944                30.1184                 4.7371

                     55                     56                     57
                      A                      A                      A
 Frequencies --   1396.2370              1399.2878              1411.4848
 Red. masses --      2.2237                 2.9332                 2.3611
 Frc consts  --      2.5541                 3.3838                 2.7715
 IR Inten    --     14.0674                68.6683                36.6209

                     58                     59                     60
                      A                      A                      A
 Frequencies --   1419.9233              1438.7313              1454.2517
 Red. masses --      1.3843                 1.6517                 1.6014
 Frc consts  --      1.6445                 2.0143                 1.9954
 IR Inten    --     11.3909                 1.5713                 1.7701

                     61                     62                     63
                      A                      A                      A
 Frequencies --   1459.5038              1498.8453              1505.0356
 Red. masses --      1.7803                 1.0857                 1.9868
 Frc consts  --      2.2343                 1.4370                 2.6516
 IR Inten    --     17.1901                13.2396                49.7485

                     64                     65                     66
                      A                      A                      A
 Frequencies --   1507.0322              1510.6023              1515.2599
 Red. masses --      1.1527                 1.0525                 1.0718
 Frc consts  --      1.5425                 1.4151                 1.4499
 IR Inten    --      2.8941                 2.5055                 7.4363

                     67                     68                     69
                      A                      A                      A
 Frequencies --   1517.6372              1524.5153              1530.6280
 Red. masses --      1.1738                 1.4286                 1.2102
 Frc consts  --      1.5928                 1.9563                 1.6705
 IR Inten    --     19.4991                 2.4663                10.9586

                     70                     71                     72
                      A                      A                      A
 Frequencies --   1534.5122              1628.8274              1647.7240
 Red. masses --      1.6341                 5.8806                 6.0249
 Frc consts  --      2.2671                 9.1923                 9.6376
 IR Inten    --     10.0915                 1.9465                 3.5187

                     73                     74                     75
                      A                      A                      A
 Frequencies --   1674.0769              2368.3111              3033.3103
 Red. masses --      6.3677                12.5970                 1.0392
 Frc consts  --     10.5143                41.6288                 5.6338
 IR Inten    --      8.8328                 6.3100                58.5121

                     76                     77                     78
                      A                      A                      A
 Frequencies --   3035.8603              3064.9857              3069.7622
 Red. masses --      1.0414                 1.0620                 1.0603
 Frc consts  --      5.6549                 5.8783                 5.8869
 IR Inten    --     35.6995                16.1296                 9.1601

                     79                     80                     81
                      A                      A                      A
 Frequencies --   3077.0970              3077.5049              3080.4780
 Red. masses --      1.1005                 1.1007                 1.0608
 Frc consts  --      6.1396                 6.1422                 5.9311
 IR Inten    --      1.4610                47.7331                32.2781

                     82                     83                     84
                      A                      A                      A
 Frequencies --   3108.1796              3115.1699              3121.4407
 Red. masses --      1.1024                 1.1036                 1.0980
 Frc consts  --      6.2750                 6.3097                 6.3030
 IR Inten    --     11.7730                14.3583                21.8849

                     85                     86                     87
                      A                      A                      A
 Frequencies --   3126.3676              3149.2413              3182.0511
 Red. masses --      1.1044                 1.0945                 1.0854
 Frc consts  --      6.3598                 6.3957                 6.4755
 IR Inten    --     21.0181                15.8438                 2.1671

                     88                     89                     90
                      A                      A                      A
 Frequencies --   3193.9483              3206.1418              3220.7701
 Red. masses --      1.0897                 1.0940                 1.0940
 Frc consts  --      6.5499                 6.6259                 6.6861
 IR Inten    --     16.9020                32.8984                 7.4575

 - Thermochemistry -
 -------------------
 Temperature   298.150 Kelvin.  Pressure   1.00000 Atm.
 Atom     1 has atomic number  6 and mass  12.00000

 Molecular mass:   212.13135 amu.
 Principal axes and moments of inertia in atomic units:
                           1         2         3
     Eigenvalues --  2550.356493767.147435805.73429
           X            0.99997   0.00396   0.00619
           Y           -0.00397   0.99999   0.00113
           Z           -0.00619  -0.00116   0.99998
 This molecule is an asymmetric top.
 Rotational symmetry number  1.
 Warning -- assumption of classical behavior for rotation
           may cause significant error
 Rotational temperatures (Kelvin)      0.03396     0.02299     0.01492
 Rotational constants (GHZ):           0.70764     0.47907     0.31085
 Zero-point vibrational energy     712377.7 (Joules/Mol)
                                  170.26237 (Kcal/Mol)
 Warning -- explicit consideration of  24 degrees of freedom as
           vibrations may cause significant error
 Vibrational temperatures:     51.38    84.40   109.78   139.18   149.40
          (Kelvin)            182.76   233.22   237.70   277.58   337.01
                              359.20   411.80   437.66   469.29   519.41
                              562.30   639.15   645.86   724.48   800.57
                              802.16   838.84   847.01   877.70   928.18
                             1008.41  1089.70  1114.28  1127.18  1159.29
                             1228.44  1242.77  1258.00  1335.23  1337.70
                             1393.49  1404.82  1457.20  1509.68  1538.15
                             1545.13  1551.88  1556.77  1584.68  1609.97
                             1672.79  1706.77  1741.36  1765.68  1781.41
                             1849.51  1910.00  1971.04  1981.36  2008.87
                             2013.26  2030.81  2042.95  2070.01  2092.34
                             2099.90  2156.50  2165.41  2168.28  2173.42
                             2180.12  2183.54  2193.44  2202.23  2207.82
                             2343.52  2370.71  2408.62  3407.47  4364.26
                             4367.93  4409.83  4416.70  4427.26  4427.84
                             4432.12  4471.98  4482.03  4491.06  4498.15
                             4531.06  4578.26  4595.38  4612.92  4633.97

 Zero-point correction=                           0.271330 (Hartree/Particle)
 Thermal correction to Energy=                    0.286502
 Thermal correction to Enthalpy=                  0.287447
 Thermal correction to Gibbs Free Energy=         0.228720
 Sum of electronic and zero-point Energies=           -652.429264
 Sum of electronic and thermal Energies=              -652.414091
 Sum of electronic and thermal Enthalpies=            -652.413147
 Sum of electronic and thermal Free Energies=         -652.471874

                     E (Thermal)             CV                S
                      KCal/Mol        Cal/Mol-Kelvin    Cal/Mol-Kelvin
 Total                  179.783             57.598            123.602
 Electronic               0.000              0.000              0.000
 Translational            0.889              2.981             41.960
 Rotational               0.889              2.981             32.389
 Vibrational            178.006             51.637             49.253
 Vibration     1          0.594              1.982              5.484
 Vibration     2          0.596              1.974              4.502
 Vibration     3          0.599              1.965              3.984
 Vibration     4          0.603              1.952              3.519
 Vibration     5          0.605              1.946              3.381
 Vibration     6          0.611              1.926              2.991
 Vibration     7          0.622              1.889              2.525
 Vibration     8          0.624              1.885              2.489
 Vibration     9          0.635              1.850              2.200
 Vibration    10          0.654              1.788              1.846
 Vibration    11          0.662              1.763              1.733
 Vibration    12          0.684              1.699              1.496
 Vibration    13          0.695              1.666              1.394
 Vibration    14          0.710              1.623              1.279
 Vibration    15          0.735              1.553              1.118
 Vibration    16          0.759              1.490              0.997
 Vibration    17          0.804              1.374              0.813
 Vibration    18          0.808              1.363              0.799
 Vibration    19          0.859              1.242              0.649
 Vibration    20          0.912              1.126              0.531
 Vibration    21          0.913              1.123              0.529
 Vibration    22          0.940              1.068              0.480
 Vibration    23          0.946              1.056              0.469
 Vibration    24          0.969              1.011              0.433

                           ! Non-Optimized Parameters !
 Normal termination of Gaussian 16 at Fri Dec 11 01:05:40 2020.

 ----------------------------------------------------------------------
 # B3LYP/6-311++G(d,p) empiricaldispersion=gd3bj scf=xqc pop=npa geom=c
 heck
 ----------------------------------------------------------------------

 --------------------------------------
 CID_71380029_JID_6837_Energie_neutraal
 --------------------------------------
 Structure from the checkpoint file:  "JID_6837.chk"
 Charge =  0 Multiplicity = 1

 SCF Done:  E(RB3LYP) =  -652.868358477     A.U. after   15 cycles
 Normal termination of Gaussian 16 at Fri Dec 11 01:09:54 2020.

 ----------------------------------------------------------------------
 # B3LYP/6-311++G(d,p) empiricaldispersion=gd3bj scf=xqc pop=npa geom=c
 heck
 ----------------------------------------------------------------------

 ------------------------------------
 CID_71380029_JID_6837_Energie_kation
 ------------------------------------
 Structure from the checkpoint file:  "JID_6837.chk"
 Charge =  1 Multiplicity = 2

 SCF Done:  E(UB3LYP) =  -652.603147882     A.U. after   22 cycles
 Normal termination of Gaussian 16 at Fri Dec 11 01:18:13 2020.
 Gaussian 16:  ES64L-G16RevA.03 25-Dec-2016

 ----------------------------------------------------------------------
 # B3LYP/6-311++G(d,p) empiricaldispersion=gd3bj scf=xqc pop=npa geom=c
 heck
 ----------------------------------------------------------------------

 -----------------------------------
 CID_71380029_JID_6837_Energie_anion
 -----------------------------------
 Structure from the checkpoint file:  "JID_6837.chk"
 Charge = -1 Multiplicity = 2

                         Standard orientation:
 ---------------------------------------------------------------------
 Center     Atomic      Atomic             Coordinates (Angstroms)
 Number     Number       Type             X           Y           Z
 ---------------------------------------------------------------------
      1          6           0        3.566267   -0.951446    0.607985
      2          6           0        2.170952   -0.630052    0.169979
      3          6           0        1.180062   -1.502096   -0.219833
      4          7           0        0.033112   -0.779165   -0.572721
      5          6           0        0.289035    0.574130   -0.401320
      6          6           0       -0.525528    1.690840   -0.618338
      7          6           0        0.020304    2.944839   -0.359096
      8          6           0        1.342824    3.088585    0.102092
      9          6           0        2.149031    1.976326    0.313060
     10          6           0        1.626029    0.698446    0.063298
     11          6           0       -1.251000   -1.359104   -0.916069
     12          6           0       -2.080293   -1.776443    0.308388
     13          6           0       -2.501707   -0.592523    1.202012
     14          6           0       -3.434732    0.301937    0.513375
     15          7           0       -4.163927    0.986580   -0.075834
     16          6           0        1.213303   -2.990721   -0.338955
     17          1           0        4.310856   -0.504276   -0.063598
     18          1           0        3.752684   -2.029336    0.632696
     19          1           0        3.768967   -0.560116    1.613484
     20          1           0       -1.547737    1.599236   -0.969327
     21          1           0       -0.591053    3.828510   -0.516846
     22          1           0        1.735139    4.083251    0.293662
     23          1           0        3.170337    2.091633    0.666237
     24          1           0       -1.804709   -0.632212   -1.517846
     25          1           0       -1.084184   -2.233629   -1.552259
     26          1           0       -2.973237   -2.313030   -0.032855
     27          1           0       -1.497473   -2.470639    0.922761
     28          1           0       -2.980643   -0.960474    2.116381
     29          1           0       -1.622270   -0.012540    1.503593
     30          1           0        0.468396   -3.483664    0.299109
     31          1           0        1.028019   -3.323032   -1.368967
     32          1           0        2.195333   -3.367889   -0.045810
 ---------------------------------------------------------------------

 SCF Done:  E(UB3LYP) =  -652.861625828     A.U. after   31 cycles

 The electronic state is 2-A.
 Alpha  occ. eigenvalues --  -14.26090 -14.22141 -10.12317 -10.12208 -10.12089
 Alpha  occ. eigenvalues --  -10.11195 -10.11037 -10.09313 -10.08184 -10.08065
 Alpha  occ. eigenvalues --  -10.07972 -10.07738 -10.07514 -10.07375 -10.07368
 Alpha  occ. eigenvalues --  -10.06922  -0.89245  -0.81999  -0.75893  -0.73214
 Alpha  occ. eigenvalues --   -0.70451  -0.66811  -0.65267  -0.63675  -0.60587
 Alpha  occ. eigenvalues --   -0.57987  -0.53527  -0.50720  -0.49052  -0.46059
 Alpha  occ. eigenvalues --   -0.43342  -0.40778  -0.40004  -0.39643  -0.36970
 Alpha  occ. eigenvalues --   -0.36479  -0.35112  -0.34436  -0.34140  -0.31718
 Alpha  occ. eigenvalues --   -0.31515  -0.30996  -0.30554  -0.30060  -0.28776
 Alpha  occ. eigenvalues --   -0.28720  -0.28274  -0.27991  -0.26733  -0.26079
 Alpha  occ. eigenvalues --   -0.24683  -0.23972  -0.23450  -0.23002  -0.18137
 Alpha  occ. eigenvalues --   -0.12996  -0.10788   0.03951
 Alpha virt. eigenvalues --    0.06400   0.06908   0.06983   0.07503   0.08587
 Alpha virt. eigenvalues --    0.08881   0.09539   0.09759   0.10046   0.10605
 Alpha virt. eigenvalues --    0.11105   0.11339   0.11554   0.11830   0.12575

  Beta  occ. eigenvalues --  -14.26092 -14.22121 -10.12296 -10.12206 -10.12060
  Beta  occ. eigenvalues --  -10.11192 -10.11036 -10.09263 -10.08182 -10.08061
  Beta  occ. eigenvalues --  -10.07972 -10.07737 -10.07514 -10.07348 -10.07300
  Beta  occ. eigenvalues --  -10.06921  -0.89236  -0.81964  -0.75882  -0.73178
  Beta  occ. eigenvalues --   -0.70412  -0.66776  -0.65239  -0.63638  -0.60538
  Beta  occ. eigenvalues --   -0.57929  -0.53456  -0.50684  -0.49034  -0.46033
  Beta  occ. eigenvalues --   -0.43306  -0.40739  -0.39965  -0.39589  -0.36940
  Beta  occ. eigenvalues --   -0.36443  -0.35090  -0.34400  -0.34117  -0.31681
  Beta  occ. eigenvalues --   -0.31477  -0.30933  -0.30515  -0.30015  -0.28738
  Beta  occ. eigenvalues --   -0.28677  -0.28238  -0.27962  -0.26695  -0.26061
  Beta  occ. eigenvalues --   -0.24665  -0.23909  -0.23428  -0.22971  -0.18129
  Beta  occ. eigenvalues --   -0.12984  -0.10775
  Beta virt. eigenvalues --    0.06256   0.06966   0.07143   0.07460   0.08314
  Beta virt. eigenvalues --    0.09035   0.09143   0.09808   0.09984   0.10404
  Beta virt. eigenvalues --    0.10764   0.11355   0.11546   0.11810   0.12226

 Mulliken charges and spin densities:
               1          2
     1  C    0.566541  -1.141747
     2  C   -0.290019   0.167028
     3  C   -2.253068   2.311630
     4  N    0.287561   0.060199
     5  C   -0.509220   0.637102
     6  C    0.090776  -0.232762
     7  C   -0.158024  -0.225532
     8  C   -0.521415  -0.033904
     9  C    0.129649  -0.411495
    10  C    0.195474   0.195754
    11  C   -0.784472   0.558021
    12  C    1.495011  -1.770468
    13  C   -0.356201   0.419140
    14  C    0.628136  -0.775959
    15  N   -0.367075   0.039503
    16  C    3.347731  -3.906779
    17  H   -0.044306   0.187946
    18  H   -0.096778   0.210847
    19  H   -0.028295   0.172364
    20  H    0.167883  -0.053869
    21  H    0.139474   0.018193
    22  H    0.094485   0.038165
    23  H    0.071691   0.085053
    24  H   -0.129714   0.310855
    25  H   -0.202017   0.382856
    26  H   -0.344571   0.525558
    27  H   -0.517518   0.717492
    28  H   -0.618941   0.860443
    29  H    0.144177   0.023468
    30  H   -0.445467   0.596985
    31  H   -0.405513   0.591952
    32  H   -0.285976   0.441960
 Sum of Mulliken charges =  -1.00000   1.00000

 Dipole moment (field-independent basis, Debye):
    X=              3.3471    Y=              7.3145    Z=             -1.2813  Tot=              8.1454
 Quadrupole moment (field-independent basis, Debye-Ang):
   XX=           -163.8039   YY=           -160.6869   ZZ=           -129.3695
   XY=              2.4743   XZ=              4.6708   YZ=              4.2079

 Summary of Natural Population Analysis:

                                       Natural Population
                Natural  -----------------------------------------------
    Atom  No    Charge         Core      Valence    Rydberg      Total
 -----------------------------------------------------------------------
      C    1   -0.28897      0.99964     2.28455    0.00478     3.28897
      C    2   -0.07258      0.99946     2.05712    0.01601     3.07258
      C    3    0.10533      0.99946     1.88228    0.01294     2.89467
      N    4   -0.21786      0.99960     2.70769    0.01057     3.71786
      C    5    0.07252      0.99950     1.91380    0.01417     2.92748
      C    6   -0.12414      0.99952     2.11714    0.00748     3.12414
      C    7   -0.11337      0.99960     2.10330    0.01047     3.11337
      C    8   -0.11417      0.99950     2.10576    0.00891     3.11417
      C    9   -0.11854      0.99959     2.10393    0.01503     3.11854
      C   10    0.01001      0.99947     1.98484    0.00568     2.98999
      C   11   -0.08541      0.99960     2.07428    0.01152     3.08541
      C   12   -0.18593      0.99961     2.17681    0.00950     3.18593
      C   13   -0.25265      0.99954     2.24356    0.00955     3.25265
      C   14    0.16491      0.99966     1.81824    0.01719     2.83509
      N   15   -0.19094      0.99979     2.68043    0.01072     3.69094
      C   16   -0.30515      0.99963     2.29985    0.00567     3.30515
      H   17    0.09955      0.00000     0.39892    0.00152     0.40045
      H   18    0.10523      0.00000     0.39380    0.00096     0.39477
      H   19    0.10066      0.00000     0.39786    0.00149     0.39934
      H   20    0.10922      0.00000     0.38908    0.00170     0.39078
      H   21    0.09824      0.00000     0.40096    0.00080     0.40176
      H   22    0.09549      0.00000     0.40350    0.00102     0.40451
      H   23    0.09967      0.00000     0.39918    0.00116     0.40033
      H   24    0.10174      0.00000     0.39643    0.00183     0.39826
      H   25    0.10893      0.00000     0.38967    0.00141     0.39107
      H   26    0.10473      0.00000     0.39272    0.00256     0.39527
      H   27    0.11052      0.00000     0.38508    0.00440     0.38948
      H   28    0.12702      0.00000     0.37046    0.00252     0.37298
      H   29    0.12469      0.00000     0.37340    0.00191     0.37531
      H   30    0.11175      0.00000     0.38515    0.00310     0.38825
      H   31    0.10850      0.00000     0.38960    0.00190     0.39150
      H   32    0.11111      0.00000     0.38755    0.00135     0.38889
 =======================================================================
   * Total *    0.00010     15.99316    40.80695    0.19979    56.99990

 Normal termination of Gaussian 16 at Fri Dec 11 01:29:50 2020.
