 Gaussian 16, Revision A.03,

 -----------------------------------------------------------
 # opt freq B3LYP/6-31G(d) empiricaldispersion=gd3bj scf=xqc
 -----------------------------------------------------------

 -------------------------------
 CID_130554671_JID_2942_neutraal
 -------------------------------
 Symbolic Z-matrix:
 Charge =  0 Multiplicity = 1

 SCF Done:  E(RB3LYP) =  -498.885219881     A.U. after   15 cycles
 SCF Done:  E(RB3LYP) =  -498.913397893     A.U. after   13 cycles
 SCF Done:  E(RB3LYP) =  -498.917030204     A.U. after   13 cycles
 SCF Done:  E(RB3LYP) =  -498.914956813     A.U. after   13 cycles
 SCF Done:  E(RB3LYP) =  -498.917354556     A.U. after   13 cycles
 SCF Done:  E(RB3LYP) =  -498.918802360     A.U. after   13 cycles
 SCF Done:  E(RB3LYP) =  -498.917946416     A.U. after   12 cycles
 SCF Done:  E(RB3LYP) =  -498.919169059     A.U. after   12 cycles
 SCF Done:  E(RB3LYP) =  -498.919295465     A.U. after   12 cycles
 SCF Done:  E(RB3LYP) =  -498.919355349     A.U. after   12 cycles
 SCF Done:  E(RB3LYP) =  -498.919383030     A.U. after   12 cycles
 SCF Done:  E(RB3LYP) =  -498.919411823     A.U. after   11 cycles
 SCF Done:  E(RB3LYP) =  -498.919418368     A.U. after   10 cycles
 SCF Done:  E(RB3LYP) =  -498.919418731     A.U. after    8 cycles
 SCF Done:  E(RB3LYP) =  -498.919418808     A.U. after    7 cycles
 Optimization completed.
    -- Stationary point found.
 Normal termination of Gaussian 16 at Wed Dec  9 18:20:53 2020.

 --------------------------------------------------------------------
 #N Geom=AllCheck Guess=TCheck SCRF=Check GenChk RB3LYP/6-31G(d) Freq
 --------------------------------------------------------------------

 Structure from the checkpoint file:  "JID_2942.chk"
 -------------------------------
 CID_130554671_JID_2942_neutraal
 -------------------------------
 Charge =  0 Multiplicity = 1

 SCF Done:  E(RB3LYP) =  -498.919418808     A.U. after    1 cycles

  Exact polarizability: 121.926 -12.654 107.764  -1.475   0.383  85.212
 Approx polarizability: 160.404 -31.938 178.690  -1.979   1.209 124.930

                      1                      2                      3
                      A                      A                      A
 Frequencies --     21.0490                89.2254                95.5022
 Red. masses --      4.1583                 4.6951                 3.4150
 Frc consts  --      0.0011                 0.0220                 0.0184
 IR Inten    --      0.5198                 0.6632                 1.7443

                      4                      5                      6
                      A                      A                      A
 Frequencies --    148.2000               161.8203               182.6495
 Red. masses --      6.6932                 3.9956                 2.2673
 Frc consts  --      0.0866                 0.0616                 0.0446
 IR Inten    --      5.5366                 1.2363                 0.6197

                      7                      8                      9
                      A                      A                      A
 Frequencies --    216.4450               218.4619               258.5996
 Red. masses --      1.7939                 1.6954                 1.2310
 Frc consts  --      0.0495                 0.0477                 0.0485
 IR Inten    --      1.9266                 0.8100                 0.3109

                     10                     11                     12
                      A                      A                      A
 Frequencies --    289.9511               294.9894               336.5239
 Red. masses --      2.0932                 3.0168                 2.5942
 Frc consts  --      0.1037                 0.1547                 0.1731
 IR Inten    --      0.5021                 2.6362                 2.1014

                     13                     14                     15
                      A                      A                      A
 Frequencies --    362.2364               366.1830               427.5066
 Red. masses --      2.3354                 2.7393                 2.6950
 Frc consts  --      0.1805                 0.2164                 0.2902
 IR Inten    --      0.1761                 4.6962                 7.6287

                     16                     17                     18
                      A                      A                      A
 Frequencies --    445.1838               518.7399               561.3552
 Red. masses --      3.1872                 4.6971                 4.6129
 Frc consts  --      0.3722                 0.7447                 0.8564
 IR Inten    --      2.7767                 1.1124                 2.0025

                     19                     20                     21
                      A                      A                      A
 Frequencies --    584.9509               612.2348               630.2396
 Red. masses --      3.5007                 1.2141                 4.6776
 Frc consts  --      0.7057                 0.2681                 1.0947
 IR Inten    --      3.9587                43.0535                 1.6171

                     22                     23                     24
                      A                      A                      A
 Frequencies --    637.5263               674.1913               765.9262
 Red. masses --      1.2256                 3.5421                 1.5896
 Frc consts  --      0.2935                 0.9486                 0.5494
 IR Inten    --     48.1354                 5.1893                 1.2592

                     25                     26                     27
                      A                      A                      A
 Frequencies --    792.0092               876.5175               898.4459
 Red. masses --      1.6702                 2.2190                 1.8246
 Frc consts  --      0.6173                 1.0044                 0.8678
 IR Inten    --     84.9723                 1.0330                 1.3350

                     28                     29                     30
                      A                      A                      A
 Frequencies --    941.4910               955.1796               964.9857
 Red. masses --      4.3506                 2.0044                 1.9413
 Frc consts  --      2.2721                 1.0775                 1.0651
 IR Inten    --     26.2525                 0.5473                 0.4724

                     31                     32                     33
                      A                      A                      A
 Frequencies --    974.4730               985.8832              1007.7251
 Red. masses --      1.5789                 2.4102                 2.1907
 Frc consts  --      0.8834                 1.3802                 1.3108
 IR Inten    --      0.6638                 0.9946                 3.4524

                     34                     35                     36
                      A                      A                      A
 Frequencies --   1028.1686              1050.3075              1121.1689
 Red. masses --      1.6162                 1.6503                 3.0006
 Frc consts  --      1.0066                 1.0726                 2.2223
 IR Inten    --      1.0310                 2.1708                25.6092

                     37                     38                     39
                      A                      A                      A
 Frequencies --   1178.7722              1187.3690              1217.7886
 Red. masses --      2.4914                 1.9409                 2.1797
 Frc consts  --      2.0396                 1.6122                 1.9046
 IR Inten    --     33.3542                21.5947                17.7837

                     40                     41                     42
                      A                      A                      A
 Frequencies --   1238.6623              1258.8077              1282.6562
 Red. masses --      1.5145                 1.9003                 2.2537
 Frc consts  --      1.3690                 1.7741                 2.1845
 IR Inten    --      2.2186                 2.2591                 5.2450

                     43                     44                     45
                      A                      A                      A
 Frequencies --   1296.9199              1317.7682              1320.6224
 Red. masses --      1.5054                 1.6824                 1.4872
 Frc consts  --      1.4919                 1.7214                 1.5282
 IR Inten    --      6.7881                 3.6494                 2.6503

                     46                     47                     48
                      A                      A                      A
 Frequencies --   1386.4674              1433.9544              1450.9654
 Red. masses --      1.2603                 1.2638                 1.2220
 Frc consts  --      1.4274                 1.5311                 1.5158
 IR Inten    --     20.8914                 5.0681                 3.8981

                     49                     50                     51
                      A                      A                      A
 Frequencies --   1494.6681              1505.6082              1509.3646
 Red. masses --      1.0718                 1.0735                 1.0932
 Frc consts  --      1.4108                 1.4338                 1.4674
 IR Inten    --      5.4305                 0.5429                 4.3440

                     52                     53                     54
                      A                      A                      A
 Frequencies --   1512.1857              1518.6383              1526.8443
 Red. masses --      1.1641                 1.0657                 1.1022
 Frc consts  --      1.5684                 1.4481                 1.5139
 IR Inten    --     18.3255                 3.6772                 2.2202

                     55                     56                     57
                      A                      A                      A
 Frequencies --   1532.5492              1536.1666              2238.9046
 Red. masses --      1.0633                 1.0586                 5.9197
 Frc consts  --      1.4714                 1.4718                17.4831
 IR Inten    --      4.8924                 9.5224                 1.6679

                     58                     59                     60
                      A                      A                      A
 Frequencies --   2342.9059              3045.0681              3055.1426
 Red. masses --     12.7091                 1.0378                 1.0383
 Frc consts  --     41.1030                 5.6698                 5.7101
 IR Inten    --      7.6976                19.0343                30.8346

                     61                     62                     63
                      A                      A                      A
 Frequencies --   3056.1680              3079.8344              3091.2253
 Red. masses --      1.0605                 1.0581                 1.0944
 Frc consts  --      5.8361                 5.9133                 6.1614
 IR Inten    --     22.3447                30.4899                 7.8529

                     64                     65                     66
                      A                      A                      A
 Frequencies --   3097.2362              3104.8084              3121.2509
 Red. masses --      1.0675                 1.1014                 1.0998
 Frc consts  --      6.0334                 6.2554                 6.3130
 IR Inten    --     15.9941                17.2969                35.1790

                     67                     68                     69
                      A                      A                      A
 Frequencies --   3128.8632              3138.4510              3140.1719
 Red. masses --      1.1086                 1.1002                 1.1010
 Frc consts  --      6.3942                 6.3849                 6.3964
 IR Inten    --     15.2541                14.8976                30.0859

                     70                     71                     72
                      A                      A                      A
 Frequencies --   3156.2861              3495.6000              3503.8978
 Red. masses --      1.1087                 1.1610                 1.0741
 Frc consts  --      6.5073                 8.3583                 7.7697
 IR Inten    --     19.2879                52.0462                 1.5729

 - Thermochemistry -
 -------------------
 Temperature   298.150 Kelvin.  Pressure   1.00000 Atm.
 Atom     1 has atomic number  6 and mass  12.00000

 Molecular mass:   162.11570 amu.
 Principal axes and moments of inertia in atomic units:
                           1         2         3
     Eigenvalues --  1153.730442562.381072966.71928
           X            0.99997   0.00317  -0.00736
           Y           -0.00319   0.99999  -0.00299
           Z            0.00735   0.00301   0.99997
 This molecule is an asymmetric top.
 Rotational symmetry number  1.
 Warning -- assumption of classical behavior for rotation
           may cause significant error
 Rotational temperatures (Kelvin)      0.07507     0.03380     0.02920
 Rotational constants (GHZ):           1.56427     0.70432     0.60833
 Zero-point vibrational energy     580180.7 (Joules/Mol)
                                  138.66652 (Kcal/Mol)
 Warning -- explicit consideration of  20 degrees of freedom as
           vibrations may cause significant error
 Vibrational temperatures:     30.28   128.38   137.41   213.23   232.82
          (Kelvin)            262.79   311.42   314.32   372.07   417.17
                              424.42   484.18   521.18   526.86   615.09
                              640.52   746.35   807.66   841.61   880.87
                              906.77   917.26   970.01  1102.00  1139.52
                             1261.11  1292.66  1354.60  1374.29  1388.40
                             1402.05  1418.47  1449.89  1479.31  1511.16
                             1613.11  1695.99  1708.36  1752.13  1782.16
                             1811.14  1845.46  1865.98  1895.97  1900.08
                             1994.82  2063.14  2087.62  2150.49  2166.23
                             2171.64  2175.70  2184.98  2196.79  2205.00
                             2210.20  3221.28  3370.92  4381.17  4395.67
                             4397.14  4431.19  4447.58  4456.23  4467.13
                             4490.78  4501.74  4515.53  4518.01  4541.19
                             5029.39  5041.33

 Zero-point correction=                           0.220979 (Hartree/Particle)
 Thermal correction to Energy=                    0.234007
 Thermal correction to Enthalpy=                  0.234951
 Thermal correction to Gibbs Free Energy=         0.181806
 Sum of electronic and zero-point Energies=           -498.698440
 Sum of electronic and thermal Energies=              -498.685412
 Sum of electronic and thermal Enthalpies=            -498.684468
 Sum of electronic and thermal Free Energies=         -498.737613

                     E (Thermal)             CV                S
                      KCal/Mol        Cal/Mol-Kelvin    Cal/Mol-Kelvin
 Total                  146.841             49.168            111.853
 Electronic               0.000              0.000              0.000
 Translational            0.889              2.981             41.158
 Rotational               0.889              2.981             30.551
 Vibrational            145.064             43.207             40.144
 Vibration     1          0.593              1.985              6.533
 Vibration     2          0.602              1.957              3.677
 Vibration     3          0.603              1.952              3.544
 Vibration     4          0.618              1.905              2.695
 Vibration     5          0.622              1.889              2.528
 Vibration     6          0.630              1.863              2.301
 Vibration     7          0.645              1.816              1.989
 Vibration     8          0.646              1.813              1.972
 Vibration     9          0.667              1.748              1.671
 Vibration    10          0.686              1.692              1.474
 Vibration    11          0.689              1.683              1.445
 Vibration    12          0.717              1.603              1.229
 Vibration    13          0.736              1.550              1.112
 Vibration    14          0.739              1.542              1.096
 Vibration    15          0.789              1.410              0.867
 Vibration    16          0.805              1.372              0.810
 Vibration    17          0.874              1.208              0.613
 Vibration    18          0.917              1.115              0.521
 Vibration    19          0.942              1.064              0.476
 Vibration    20          0.971              1.006              0.429

 Optimization completed.
    -- Stationary point found.
 Normal termination of Gaussian 16 at Wed Dec  9 18:27:39 2020.

 ----------------------------------------------------------------------
 # B3LYP/6-311++G(d,p) empiricaldispersion=gd3bj scf=xqc pop=npa geom=c
 heck
 ----------------------------------------------------------------------

 ---------------------------------------
 CID_130554671_JID_2942_Energie_neutraal
 ---------------------------------------
 Structure from the checkpoint file:  "JID_2942.chk"
 Charge =  0 Multiplicity = 1

 SCF Done:  E(RB3LYP) =  -499.061703982     A.U. after   16 cycles
 Normal termination of Gaussian 16 at Wed Dec  9 18:30:36 2020.

 ----------------------------------------------------------------------
 # B3LYP/6-311++G(d,p) empiricaldispersion=gd3bj scf=xqc pop=npa geom=c
 heck
 ----------------------------------------------------------------------

 -------------------------------------
 CID_130554671_JID_2942_Energie_kation
 -------------------------------------
 Structure from the checkpoint file:  "JID_2942.chk"
 Charge =  1 Multiplicity = 2

 SCF Done:  E(UB3LYP) =  -498.729501562     A.U. after   25 cycles
 Normal termination of Gaussian 16 at Wed Dec  9 18:36:32 2020.
 Gaussian 16:  ES64L-G16RevA.03 25-Dec-2016

 ----------------------------------------------------------------------
 # B3LYP/6-311++G(d,p) empiricaldispersion=gd3bj scf=xqc pop=npa geom=c
 heck
 ----------------------------------------------------------------------

 ------------------------------------
 CID_130554671_JID_2942_Energie_anion
 ------------------------------------
 Structure from the checkpoint file:  "JID_2942.chk"
 Charge = -1 Multiplicity = 2

                         Standard orientation:
 ---------------------------------------------------------------------
 Center     Atomic      Atomic             Coordinates (Angstroms)
 Number     Number       Type             X           Y           Z
 ---------------------------------------------------------------------
      1          6           0        2.364620    1.098709   -0.933276
      2          6           0        1.745614   -0.033520   -0.122241
      3          6           0        1.849696    0.073086    1.427041
      4          6           0        0.390351   -0.422671    1.547337
      5          6           0        0.157433   -0.035330    0.057810
      6          6           0       -0.365051    1.342878   -0.041011
      7          7           0       -0.735157    2.438302   -0.153785
      8          7           0       -0.582501   -0.988559   -0.756738
      9          6           0       -1.875666   -1.441399   -0.227259
     10          6           0       -2.918642   -0.416609   -0.078242
     11          6           0       -3.756573    0.445259    0.030696
     12          6           0        2.236613   -1.390445   -0.627968
     13          1           0        2.019648    2.079465   -0.594976
     14          1           0        2.121228    1.003010   -1.998725
     15          1           0        3.456516    1.069244   -0.838149
     16          1           0        2.621890   -0.534776    1.907137
     17          1           0        1.957015    1.110423    1.757926
     18          1           0       -0.261927    0.050147    2.283989
     19          1           0        0.337773   -1.508414    1.658780
     20          1           0       -0.712282   -0.611852   -1.693632
     21          1           0       -2.231835   -2.234771   -0.895401
     22          1           0       -1.692505   -1.919607    0.741562
     23          1           0       -4.474415    1.227813    0.127322
     24          1           0        1.970000   -1.542730   -1.678407
     25          1           0        3.328818   -1.432118   -0.539826
     26          1           0        1.813304   -2.223783   -0.061249
 ---------------------------------------------------------------------

 SCF Done:  E(UB3LYP) =  -499.048508952     A.U. after   31 cycles

 The electronic state is 2-A.
 Alpha  occ. eigenvalues --  -14.22016 -14.20904 -10.14648 -10.12559 -10.10551
 Alpha  occ. eigenvalues --  -10.09708 -10.08273 -10.07833 -10.07286 -10.06980
 Alpha  occ. eigenvalues --  -10.06251 -10.05470  -0.84422  -0.80051  -0.75904
 Alpha  occ. eigenvalues --   -0.67190  -0.65429  -0.61412  -0.59134  -0.56194
 Alpha  occ. eigenvalues --   -0.52622  -0.46888  -0.44367  -0.43131  -0.39292
 Alpha  occ. eigenvalues --   -0.38321  -0.36876  -0.35749  -0.33213  -0.33077
 Alpha  occ. eigenvalues --   -0.31283  -0.29256  -0.28610  -0.27128  -0.26713
 Alpha  occ. eigenvalues --   -0.26316  -0.25349  -0.23565  -0.22841  -0.21231
 Alpha  occ. eigenvalues --   -0.20513  -0.18538  -0.17870  -0.15184   0.04498
 Alpha virt. eigenvalues --    0.06934   0.07402   0.08012   0.08869   0.09504
 Alpha virt. eigenvalues --    0.09657   0.10141   0.10761   0.11043   0.11303
 Alpha virt. eigenvalues --    0.12194   0.12684   0.12865   0.13135   0.13806

  Beta  occ. eigenvalues --  -14.21996 -14.20894 -10.14643 -10.12520 -10.10548
  Beta  occ. eigenvalues --  -10.09705 -10.08241 -10.07829 -10.07264 -10.06964
  Beta  occ. eigenvalues --  -10.06231 -10.05428  -0.84390  -0.80030  -0.75878
  Beta  occ. eigenvalues --   -0.67144  -0.65394  -0.61364  -0.59077  -0.56126
  Beta  occ. eigenvalues --   -0.52542  -0.46835  -0.44330  -0.43074  -0.39253
  Beta  occ. eigenvalues --   -0.38272  -0.36815  -0.35717  -0.33167  -0.33038
  Beta  occ. eigenvalues --   -0.31234  -0.29216  -0.28575  -0.27098  -0.26683
  Beta  occ. eigenvalues --   -0.26278  -0.25308  -0.23531  -0.22806  -0.21200
  Beta  occ. eigenvalues --   -0.20481  -0.18491  -0.17837  -0.15160
  Beta virt. eigenvalues --    0.06909   0.07627   0.08286   0.08560   0.09373
  Beta virt. eigenvalues --    0.10058   0.10120   0.10442   0.11139   0.11412
  Beta virt. eigenvalues --    0.11642   0.12483   0.12893   0.13309   0.13528

 Mulliken charges and spin densities:
               1          2
     1  C   -0.422350  -0.047232
     2  C   -3.126056   3.714176
     3  C    1.347378  -2.009142
     4  C   -0.295834   0.114907
     5  C    1.410283  -0.946065
     6  C    0.386797  -1.480280
     7  N   -0.286098   0.057216
     8  N    0.060008   0.139299
     9  C    1.983982  -2.724714
    10  C    2.971987  -1.109177
    11  C   -4.226339   2.600324
    12  C    1.992063  -2.499591
    13  H    0.070432   0.087991
    14  H   -0.031088   0.178431
    15  H   -0.128972   0.275865
    16  H   -0.473372   0.658238
    17  H    0.139375   0.014284
    18  H   -0.110089   0.311748
    19  H   -0.168770   0.320100
    20  H   -0.049173   0.304219
    21  H   -0.786130   1.008500
    22  H   -0.224808   0.380605
    23  H   -0.116932   0.247434
    24  H   -0.213542   0.353672
    25  H   -0.351175   0.511470
    26  H   -0.351576   0.537723
 Sum of Mulliken charges =  -1.00000   1.00000

 Dipole moment (field-independent basis, Debye):
    X=             -1.0653    Y=              3.9575    Z=              0.9177  Tot=              4.1999
 Quadrupole moment (field-independent basis, Debye-Ang):
   XX=           -127.7970   YY=           -124.3760   ZZ=           -108.8306
   XY=              2.0679   XZ=             -3.1552   YZ=             -0.9323

 Summary of Natural Population Analysis:

                                       Natural Population
                Natural  -----------------------------------------------
    Atom  No    Charge         Core      Valence    Rydberg      Total
 -----------------------------------------------------------------------
      C    1   -0.29030      0.99961     2.28390    0.00680     3.29030
      C    2   -0.02347      0.99956     2.00918    0.01473     3.02347
      C    3   -0.18656      0.99959     2.17747    0.00950     3.18656
      C    4   -0.18252      0.99961     2.17326    0.00965     3.18252
      C    5    0.01174      0.99942     1.96983    0.01902     2.98826
      C    6    0.16105      0.99961     1.81911    0.02024     2.83895
      N    7   -0.18539      0.99979     2.67428    0.01132     3.68539
      N    8   -0.32138      0.99973     2.80775    0.01390     3.82138
      C    9   -0.12969      0.99954     2.11655    0.01360     3.12969
      C   10   -0.01040      0.99935     2.00211    0.00894     3.01040
      C   11   -0.11447      0.99927     2.11156    0.00364     3.11447
      C   12   -0.28524      0.99961     2.27744    0.00819     3.28524
      H   13    0.10582      0.00000     0.39320    0.00098     0.39418
      H   14    0.10166      0.00000     0.39718    0.00116     0.39834
      H   15    0.10333      0.00000     0.39577    0.00089     0.39667
      H   16    0.10299      0.00000     0.39567    0.00134     0.39701
      H   17    0.09933      0.00000     0.39939    0.00128     0.40067
      H   18    0.10404      0.00000     0.39444    0.00152     0.39596
      H   19    0.10849      0.00000     0.38935    0.00215     0.39151
      H   20    0.18058      0.00000     0.31546    0.00397     0.31942
      H   21    0.11650      0.00000     0.38057    0.00294     0.38350
      H   22    0.11060      0.00000     0.38740    0.00200     0.38940
      H   23    0.10980      0.00000     0.38911    0.00110     0.39020
      H   24    0.10496      0.00000     0.39334    0.00170     0.39504
      H   25    0.10158      0.00000     0.39682    0.00160     0.39842
      H   26    0.10695      0.00000     0.39075    0.00229     0.39305
 =======================================================================
   * Total *    0.00000     11.99467    31.84091    0.16442    44.00000

 Normal termination of Gaussian 16 at Wed Dec  9 18:43:23 2020.
