 Gaussian 16, Revision A.03,

 -----------------------------------------------------------
 # opt freq B3LYP/6-31G(d) empiricaldispersion=gd3bj scf=xqc
 -----------------------------------------------------------

 ------------------------------
 CID_117899789_JID_383_neutraal
 ------------------------------
 Symbolic Z-matrix:
 Charge =  0 Multiplicity = 1

 SCF Done:  E(RB3LYP) =  -1578.65353119     A.U. after   14 cycles
 SCF Done:  E(RB3LYP) =  -1578.65756897     A.U. after   13 cycles
 SCF Done:  E(RB3LYP) =  -1578.65825387     A.U. after   13 cycles
 SCF Done:  E(RB3LYP) =  -1578.65895217     A.U. after   13 cycles
 SCF Done:  E(RB3LYP) =  -1578.65966130     A.U. after   12 cycles
 SCF Done:  E(RB3LYP) =  -1578.65995174     A.U. after   13 cycles
 SCF Done:  E(RB3LYP) =  -1578.66050421     A.U. after   12 cycles
 SCF Done:  E(RB3LYP) =  -1578.66061106     A.U. after   12 cycles
 SCF Done:  E(RB3LYP) =  -1578.66067930     A.U. after   11 cycles
 SCF Done:  E(RB3LYP) =  -1578.66072798     A.U. after   11 cycles
 SCF Done:  E(RB3LYP) =  -1578.66081967     A.U. after   12 cycles
 SCF Done:  E(RB3LYP) =  -1578.66086505     A.U. after   10 cycles
 SCF Done:  E(RB3LYP) =  -1578.66088557     A.U. after   11 cycles
 SCF Done:  E(RB3LYP) =  -1578.66088760     A.U. after   10 cycles
 SCF Done:  E(RB3LYP) =  -1578.66088803     A.U. after    8 cycles
 Optimization completed.
    -- Stationary point found.
 Normal termination of Gaussian 16 at Tue Dec  8 10:31:36 2020.

 --------------------------------------------------------------------
 #N Geom=AllCheck Guess=TCheck SCRF=Check GenChk RB3LYP/6-31G(d) Freq
 --------------------------------------------------------------------

 Structure from the checkpoint file:  "JID_383.chk"
 ------------------------------
 CID_117899789_JID_383_neutraal
 ------------------------------
 Charge =  0 Multiplicity = 1

 SCF Done:  E(RB3LYP) =  -1578.66088803     A.U. after    1 cycles

  Exact polarizability:  99.561   0.631 116.421   0.698   5.766  85.021
 Approx polarizability: 134.118   1.586 182.760   5.040  11.999 142.599

                      1                      2                      3
                      A                      A                      A
 Frequencies --     37.9835                50.3527                61.2910
 Red. masses --      3.1609                 7.7649                 8.0651
 Frc consts  --      0.0027                 0.0116                 0.0179
 IR Inten    --      0.3369                 1.0248                 3.3100

                      4                      5                      6
                      A                      A                      A
 Frequencies --    104.8723               134.1709               172.7275
 Red. masses --      3.4960                 4.2531                 3.3048
 Frc consts  --      0.0227                 0.0451                 0.0581
 IR Inten    --      1.4110                 2.0766                 0.6503

                      7                      8                      9
                      A                      A                      A
 Frequencies --    187.9225               219.2753               249.7046
 Red. masses --      3.4460                 5.9143                 1.5466
 Frc consts  --      0.0717                 0.1675                 0.0568
 IR Inten    --     14.8668                 0.4036                 2.6407

                     10                     11                     12
                      A                      A                      A
 Frequencies --    267.2409               294.0085               312.0079
 Red. masses --      1.7217                 2.1394                 1.2490
 Frc consts  --      0.0724                 0.1090                 0.0716
 IR Inten    --     65.3071                 4.1558                21.5675

                     13                     14                     15
                      A                      A                      A
 Frequencies --    334.6509               383.4207               427.6133
 Red. masses --      3.0643                 3.0851                 3.6812
 Frc consts  --      0.2022                 0.2672                 0.3966
 IR Inten    --     15.8927                19.9334                 8.1558

                     16                     17                     18
                      A                      A                      A
 Frequencies --    445.2744               469.1503               516.6689
 Red. masses --      5.1856                 5.8217                13.1759
 Frc consts  --      0.6058                 0.7550                 2.0723
 IR Inten    --     17.4652                 7.1416                 4.7299

                     19                     20                     21
                      A                      A                      A
 Frequencies --    569.3198               667.4150               720.3150
 Red. masses --      9.3899                 3.0844                 5.6596
 Frc consts  --      1.7932                 0.8095                 1.7301
 IR Inten    --    106.5818                 4.9705                39.8185

                     22                     23                     24
                      A                      A                      A
 Frequencies --    783.1052               837.4270               884.4150
 Red. masses --      1.3836                 6.7254                 2.7661
 Frc consts  --      0.4999                 2.7788                 1.2748
 IR Inten    --     22.6176               133.7344                 5.9256

                     25                     26                     27
                      A                      A                      A
 Frequencies --    910.0762               914.3235              1002.6942
 Red. masses --      1.2585                 1.1490                 1.8705
 Frc consts  --      0.6141                 0.5660                 1.1080
 IR Inten    --      4.9732                 1.1924                 2.8301

                     28                     29                     30
                      A                      A                      A
 Frequencies --   1077.1654              1121.2257              1132.7637
 Red. masses --      2.2111                 2.0716                 1.5433
 Frc consts  --      1.5116                 1.5344                 1.1668
 IR Inten    --      0.4646                 1.6224                 1.6031

                     31                     32                     33
                      A                      A                      A
 Frequencies --   1141.5762              1168.3189              1221.1877
 Red. masses --      5.6940                 1.2665                 1.4352
 Frc consts  --      4.3720                 1.0185                 1.2610
 IR Inten    --    125.8679               117.9807                 4.2520

                     34                     35                     36
                      A                      A                      A
 Frequencies --   1253.0120              1303.1919              1335.2319
 Red. masses --      1.3073                 1.2309                 1.1703
 Frc consts  --      1.2093                 1.2316                 1.2293
 IR Inten    --     27.5805                 2.5617                 0.0774

                     37                     38                     39
                      A                      A                      A
 Frequencies --   1374.9245              1400.4678              1401.1734
 Red. masses --      5.8666                 1.4606                 1.3479
 Frc consts  --      6.5342                 1.6878                 1.5591
 IR Inten    --    160.1723                21.7796                14.9051

                     40                     41                     42
                      A                      A                      A
 Frequencies --   1446.8157              1516.8417              1519.6824
 Red. masses --      1.2613                 1.0708                 1.0689
 Frc consts  --      1.5556                 1.4515                 1.4545
 IR Inten    --      6.7119                 5.0707                 2.6246

                     43                     44                     45
                      A                      A                      A
 Frequencies --   1532.2774              1540.1189              2632.8574
 Red. masses --      1.0623                 1.0493                 1.0394
 Frc consts  --      1.4695                 1.4664                 4.2451
 IR Inten    --      7.2698                 7.1088                19.9897

                     46                     47                     48
                      A                      A                      A
 Frequencies --   3047.3972              3057.0403              3068.9688
 Red. masses --      1.0377                 1.0607                 1.0615
 Frc consts  --      5.6779                 5.8406                 5.8906
 IR Inten    --     14.6046                23.0764                 6.3795

                     49                     50                     51
                      A                      A                      A
 Frequencies --   3088.3614              3108.9248              3117.4356
 Red. masses --      1.1005                 1.1022                 1.1029
 Frc consts  --      6.1845                 6.2770                 6.3153
 IR Inten    --      3.3001                18.1483                44.4791

                     52                     53                     54
                      A                      A                      A
 Frequencies --   3122.7377              3131.4771              3694.4609
 Red. masses --      1.1007                 1.0871                 1.0656
 Frc consts  --      6.3242                 6.2810                 8.5689
 IR Inten    --     29.4253                 2.3207                85.7921

 - Thermochemistry -
 -------------------
 Temperature   298.150 Kelvin.  Pressure   1.00000 Atm.
 Atom     1 has atomic number  6 and mass  12.00000

 Molecular mass:   201.97921 amu.
 Principal axes and moments of inertia in atomic units:
                           1         2         3
     Eigenvalues --  2097.481952334.917103603.38832
           X            0.96351   0.26653  -0.02490
           Y           -0.26646   0.96383   0.00614
           Z            0.02564   0.00072   0.99967
 This molecule is an asymmetric top.
 Rotational symmetry number  1.
 Warning -- assumption of classical behavior for rotation
           may cause significant error
 Rotational temperatures (Kelvin)      0.04129     0.03710     0.02404
 Rotational constants (GHZ):           0.86043     0.77294     0.50085
 Zero-point vibrational energy     391855.1 (Joules/Mol)
                                   93.65563 (Kcal/Mol)
 Warning -- explicit consideration of  19 degrees of freedom as
           vibrations may cause significant error
 Vibrational temperatures:     54.65    72.45    88.18   150.89   193.04
          (Kelvin)            248.52   270.38   315.49   359.27   384.50
                              423.01   448.91   481.49   551.66   615.24
                              640.65   675.00   743.37   819.12   960.26
                             1036.37  1126.71  1204.87  1272.48  1309.40
                             1315.51  1442.65  1549.80  1613.19  1629.79
                             1642.47  1680.95  1757.02  1802.80  1875.00
                             1921.10  1978.21  2014.96  2015.98  2081.65
                             2182.40  2186.48  2204.61  2215.89  3788.09
                             4384.52  4398.40  4415.56  4443.46  4473.05
                             4485.29  4492.92  4505.50  5315.51

 Zero-point correction=                           0.149250 (Hartree/Particle)
 Thermal correction to Energy=                    0.162165
 Thermal correction to Enthalpy=                  0.163109
 Thermal correction to Gibbs Free Energy=         0.108702
 Sum of electronic and zero-point Energies=          -1578.511638
 Sum of electronic and thermal Energies=             -1578.498723
 Sum of electronic and thermal Enthalpies=           -1578.497779
 Sum of electronic and thermal Free Energies=        -1578.552186

                     E (Thermal)             CV                S
                      KCal/Mol        Cal/Mol-Kelvin    Cal/Mol-Kelvin
 Total                  101.760             45.095            114.509
 Electronic               0.000              0.000              0.000
 Translational            0.889              2.981             41.813
 Rotational               0.889              2.981             31.246
 Vibrational             99.983             39.134             41.450
 Vibration     1          0.594              1.982              5.362
 Vibration     2          0.595              1.977              4.803
 Vibration     3          0.597              1.973              4.415
 Vibration     4          0.605              1.945              3.362
 Vibration     5          0.613              1.919              2.885
 Vibration     6          0.626              1.876              2.406
 Vibration     7          0.633              1.856              2.248
 Vibration     8          0.647              1.812              1.965
 Vibration     9          0.662              1.763              1.733
 Vibration    10          0.672              1.733              1.614
 Vibration    11          0.689              1.685              1.451
 Vibration    12          0.700              1.651              1.352
 Vibration    13          0.716              1.606              1.238
 Vibration    14          0.753              1.506              1.026
 Vibration    15          0.789              1.410              0.866
 Vibration    16          0.805              1.371              0.810
 Vibration    17          0.826              1.318              0.740
 Vibration    18          0.872              1.213              0.618
 Vibration    19          0.925              1.098              0.506

                           ! Non-Optimized Parameters !
 Normal termination of Gaussian 16 at Tue Dec  8 10:35:19 2020.

 ----------------------------------------------------------------------
 # B3LYP/6-311++G(d,p) empiricaldispersion=gd3bj scf=xqc pop=npa geom=c
 heck
 ----------------------------------------------------------------------

 --------------------------------------
 CID_117899789_JID_383_Energie_neutraal
 --------------------------------------
 Structure from the checkpoint file:  "JID_383.chk"
 Charge =  0 Multiplicity = 1

 SCF Done:  E(RB3LYP) =  -1578.86826237     A.U. after   15 cycles
 Normal termination of Gaussian 16 at Tue Dec  8 10:37:05 2020.

 ----------------------------------------------------------------------
 # B3LYP/6-311++G(d,p) empiricaldispersion=gd3bj scf=xqc pop=npa geom=c
 heck
 ----------------------------------------------------------------------

 ------------------------------------
 CID_117899789_JID_383_Energie_kation
 ------------------------------------
 Structure from the checkpoint file:  "JID_383.chk"
 Charge =  1 Multiplicity = 2

 SCF Done:  E(UB3LYP) =  -1578.51596110     A.U. after   27 cycles
 Normal termination of Gaussian 16 at Tue Dec  8 10:43:05 2020.
 Gaussian 16:  ES64L-G16RevA.03 25-Dec-2016

 ----------------------------------------------------------------------
 # B3LYP/6-311++G(d,p) empiricaldispersion=gd3bj scf=xqc pop=npa geom=c
 heck
 ----------------------------------------------------------------------

 -----------------------------------
 CID_117899789_JID_383_Energie_anion
 -----------------------------------
 Structure from the checkpoint file:  "JID_383.chk"
 Charge = -1 Multiplicity = 2

                         Standard orientation:
 ---------------------------------------------------------------------
 Center     Atomic      Atomic             Coordinates (Angstroms)
 Number     Number       Type             X           Y           Z
 ---------------------------------------------------------------------
      1          6           0        3.144431    1.089232   -0.926274
      2          6           0        2.565727    1.326521    0.470863
      3          6           0        1.039710    1.498846    0.493757
      4          6           0        0.275163    0.308752   -0.093943
      5         16           0        0.481875   -1.193590    0.942467
      6         16           0        0.212329   -2.752639   -0.421313
      7         16           0       -1.508488    0.699556   -0.273142
      8          8           0       -1.631640    1.990647   -0.932877
      9          8           0       -2.210825   -0.487396   -0.752997
     10          8           0       -1.940117    0.945774    1.293041
     11          1           0        2.835157    0.121136   -1.337475
     12          1           0        4.238899    1.092760   -0.899100
     13          1           0        2.823868    1.868943   -1.627682
     14          1           0        2.855696    0.505013    1.135809
     15          1           0        3.000970    2.238886    0.896085
     16          1           0        0.691986    1.677368    1.517361
     17          1           0        0.756280    2.379583   -0.093056
     18          1           0        0.596602    0.080625   -1.112730
     19          1           0        1.522308   -3.025843   -0.635504
     20          1           0       -2.182758    0.075981    1.664349
 ---------------------------------------------------------------------

 SCF Done:  E(UB3LYP) =  -1578.87453818     A.U. after   27 cycles

 The electronic state is 2-A.
 Alpha  occ. eigenvalues --  -88.96191 -88.71199 -88.70106 -19.06476 -19.01726
 Alpha  occ. eigenvalues --  -19.01453 -10.11893 -10.06837 -10.06525 -10.06282
 Alpha  occ. eigenvalues --   -8.02368  -7.79869  -7.78786  -5.98774  -5.98573
 Alpha  occ. eigenvalues --   -5.98339  -5.76284  -5.75925  -5.75206  -5.75205
 Alpha  occ. eigenvalues --   -5.74826  -5.74166  -1.03817  -0.93169  -0.91043
 Alpha  occ. eigenvalues --   -0.72301  -0.66716  -0.62655  -0.57538  -0.53855
 Alpha  occ. eigenvalues --   -0.50406  -0.47417  -0.42054  -0.39938  -0.37439
 Alpha  occ. eigenvalues --   -0.36687  -0.33437  -0.33058  -0.31671  -0.30701
 Alpha  occ. eigenvalues --   -0.27264  -0.26335  -0.26018  -0.25233  -0.23879
 Alpha  occ. eigenvalues --   -0.23690  -0.22642  -0.21753  -0.20664  -0.20252
 Alpha  occ. eigenvalues --   -0.19473  -0.11743  -0.10753   0.04596
 Alpha virt. eigenvalues --    0.07072   0.08572   0.09142   0.09803   0.10665
 Alpha virt. eigenvalues --    0.12487   0.12754   0.13135   0.13360   0.14132
 Alpha virt. eigenvalues --    0.14749   0.15315   0.15949   0.16276   0.16901

  Beta  occ. eigenvalues --  -88.96187 -88.70999 -88.69906 -19.06440 -19.01721
  Beta  occ. eigenvalues --  -19.01446 -10.11904 -10.06794 -10.06501 -10.06271
  Beta  occ. eigenvalues --   -8.02363  -7.79658  -7.78582  -5.98768  -5.98570
  Beta  occ. eigenvalues --   -5.98336  -5.75973  -5.75620  -5.75056  -5.74850
  Beta  occ. eigenvalues --   -5.74540  -5.74023  -1.03783  -0.93105  -0.91025
  Beta  occ. eigenvalues --   -0.72105  -0.66393  -0.61917  -0.57472  -0.53510
  Beta  occ. eigenvalues --   -0.49882  -0.47256  -0.41945  -0.39914  -0.37365
  Beta  occ. eigenvalues --   -0.36514  -0.33371  -0.33012  -0.31434  -0.30628
  Beta  occ. eigenvalues --   -0.26863  -0.26093  -0.25969  -0.25171  -0.23835
  Beta  occ. eigenvalues --   -0.23603  -0.22517  -0.21591  -0.20588  -0.20224
  Beta  occ. eigenvalues --   -0.18322  -0.11203  -0.10243
  Beta virt. eigenvalues --    0.07123   0.08616   0.09108   0.09723   0.10282
  Beta virt. eigenvalues --    0.11078   0.12748   0.12883   0.13245   0.13505
  Beta virt. eigenvalues --    0.14299   0.14900   0.15451   0.16008   0.16282

 Mulliken charges and spin densities:
               1          2
     1  C   -0.446174  -0.160922
     2  C   -0.056148  -0.087939
     3  C    0.456498  -0.846338
     4  C   -0.467675   0.702652
     5  S   -0.398980   0.019156
     6  S   -0.336135   0.399126
     7  S    0.543484  -0.379650
     8  O   -0.217217  -0.011627
     9  O   -0.171456  -0.000814
    10  O   -0.202598  -0.013836
    11  H    0.122217   0.028868
    12  H   -0.042176   0.172017
    13  H    0.073623   0.053042
    14  H   -0.021011   0.142109
    15  H   -0.143945   0.298988
    16  H   -0.101506   0.275562
    17  H    0.068707   0.114593
    18  H    0.338677  -0.021814
    19  H   -0.055211   0.082841
    20  H    0.057025   0.233987
 Sum of Mulliken charges =  -1.00000   1.00000

 Dipole moment (field-independent basis, Debye):
    X=              1.3422    Y=              2.3918    Z=              0.0953  Tot=              2.7443
 Quadrupole moment (field-independent basis, Debye-Ang):
   XX=           -109.0718   YY=           -127.1731   ZZ=           -103.7166
   XY=             -0.3623   XZ=             -7.1431   YZ=             -4.7532

 Summary of Natural Population Analysis:

                                       Natural Population
                Natural  -----------------------------------------------
    Atom  No    Charge         Core      Valence    Rydberg      Total
 -----------------------------------------------------------------------
      C    1   -0.29054      0.99967     2.28462    0.00625     3.29054
      C    2   -0.19199      0.99964     2.18335    0.00901     3.19199
      C    3   -0.20715      0.99958     2.19490    0.01267     3.20715
      C    4   -0.28385      0.99954     2.26503    0.01928     3.28385
      S    5    0.09386      4.99961     2.88398    0.02255     7.90614
      S    6   -0.01119      4.99972     2.99188    0.01959     8.01119
      S    7    1.11935      4.99928     1.77734    0.10403     6.88065
      O    8   -0.45702      0.99990     3.45089    0.00622     4.45702
      O    9   -0.45300      0.99990     3.44673    0.00637     4.45300
      O   10   -0.44061      0.99991     3.43389    0.00681     4.44061
      H   11    0.09827      0.00000     0.40084    0.00089     0.40173
      H   12    0.09719      0.00000     0.40213    0.00068     0.40281
      H   13    0.09538      0.00000     0.40379    0.00083     0.40462
      H   14    0.10469      0.00000     0.39397    0.00134     0.39531
      H   15    0.09498      0.00000     0.40390    0.00112     0.40502
      H   16    0.11166      0.00000     0.38697    0.00137     0.38834
      H   17    0.10864      0.00000     0.39000    0.00135     0.39136
      H   18    0.11929      0.00000     0.37902    0.00169     0.38071
      H   19    0.04150      0.00000     0.45536    0.00314     0.45850
      H   20    0.25055      0.00000     0.24512    0.00433     0.24945
 =======================================================================
   * Total *    0.00000     21.99676    30.77371    0.22953    53.00000

 Normal termination of Gaussian 16 at Tue Dec  8 10:49:28 2020.
