 Gaussian 16, Revision A.03,

 -----------------------------------------------------------
 # opt freq B3LYP/6-31G(d) empiricaldispersion=gd3bj scf=xqc
 -----------------------------------------------------------

 -------------------------------
 CID_123761020_JID_1531_neutraal
 -------------------------------
 Symbolic Z-matrix:
 Charge =  0 Multiplicity = 1

 SCF Done:  E(RB3LYP) =  -864.045013587     A.U. after   26 cycles
 SCF Done:  E(RB3LYP) =  -864.111452462     A.U. after   17 cycles
 SCF Done:  E(RB3LYP) =  -864.192533818     A.U. after   15 cycles
 SCF Done:  E(RB3LYP) =  -864.255676611     A.U. after   15 cycles
 SCF Done:  E(RB3LYP) =  -864.281460059     A.U. after   13 cycles
 SCF Done:  E(RB3LYP) =  -864.288554218     A.U. after   13 cycles
 SCF Done:  E(RB3LYP) =  -864.291032947     A.U. after   15 cycles
 SCF Done:  E(RB3LYP) =  -864.291167628     A.U. after   13 cycles
 SCF Done:  E(RB3LYP) =  -864.292702135     A.U. after   12 cycles
 SCF Done:  E(RB3LYP) =  -864.293586840     A.U. after   12 cycles
 SCF Done:  E(RB3LYP) =  -864.295791578     A.U. after    9 cycles
 SCF Done:  E(RB3LYP) =  -864.295792566     A.U. after   10 cycles
 SCF Done:  E(RB3LYP) =  -864.295792654     A.U. after    8 cycles
 SCF Done:  E(RB3LYP) =  -864.295792734     A.U. after    8 cycles
 SCF Done:  E(RB3LYP) =  -864.295792818     A.U. after    7 cycles
 SCF Done:  E(RB3LYP) =  -864.295792879     A.U. after    7 cycles
 Optimization completed.
    -- Stationary point found.
 Normal termination of Gaussian 16 at Tue Dec  8 20:30:41 2020.

 --------------------------------------------------------------------
 #N Geom=AllCheck Guess=TCheck SCRF=Check GenChk RB3LYP/6-31G(d) Freq
 --------------------------------------------------------------------

 Structure from the checkpoint file:  "JID_1531.chk"
 -------------------------------
 CID_123761020_JID_1531_neutraal
 -------------------------------
 Charge =  0 Multiplicity = 1

 SCF Done:  E(RB3LYP) =  -864.295792879     A.U. after    1 cycles

  Exact polarizability: 168.378 -19.125 117.716  -3.946   0.079 102.986
 Approx polarizability: 241.926 -51.014 187.729 -11.218   6.702 165.974

                      1                      2                      3
                      A                      A                      A
 Frequencies --     10.5825                40.1697                90.3208
 Red. masses --      2.8478                 2.4845                 3.1714
 Frc consts  --      0.0002                 0.0024                 0.0152
 IR Inten    --      1.1497                 1.0185                 2.5917

                      4                      5                      6
                      A                      A                      A
 Frequencies --    106.0811               124.8700               138.3759
 Red. masses --      2.8359                 4.2773                 3.0206
 Frc consts  --      0.0188                 0.0393                 0.0341
 IR Inten    --      0.8177                 5.4212                 2.1994

                      7                      8                      9
                      A                      A                      A
 Frequencies --    142.9220               159.9449               180.8382
 Red. masses --      1.3108                 2.5035                 1.3248
 Frc consts  --      0.0158                 0.0377                 0.0255
 IR Inten    --      0.6967                25.2541                 0.6246

                     10                     11                     12
                      A                      A                      A
 Frequencies --    194.0464               212.2150               236.7673
 Red. masses --      2.6890                 3.0151                 1.1457
 Frc consts  --      0.0597                 0.0800                 0.0378
 IR Inten    --     22.1014                 3.0441                 0.5994

                     13                     14                     15
                      A                      A                      A
 Frequencies --    243.9681               280.7447               305.9648
 Red. masses --      1.7830                 2.2236                 2.7025
 Frc consts  --      0.0625                 0.1033                 0.1491
 IR Inten    --      1.5542                34.8890                 7.4199

                     16                     17                     18
                      A                      A                      A
 Frequencies --    329.4251               337.1994               366.9219
 Red. masses --      2.5062                 2.4765                 2.5130
 Frc consts  --      0.1602                 0.1659                 0.1993
 IR Inten    --      7.4346                86.4527                 1.7557

                     19                     20                     21
                      A                      A                      A
 Frequencies --    464.6945               495.2661               517.6741
 Red. masses --      3.3894                 4.8073                 2.8088
 Frc consts  --      0.4312                 0.6948                 0.4435
 IR Inten    --     79.0346               205.6528                10.6641

                     22                     23                     24
                      A                      A                      A
 Frequencies --    576.9283               615.9031               662.5025
 Red. masses --      1.1547                 4.2204                 4.7298
 Frc consts  --      0.2264                 0.9433                 1.2231
 IR Inten    --     61.5278                 3.5418                 2.5469

                     25                     26                     27
                      A                      A                      A
 Frequencies --    723.9821               757.5661               781.2959
 Red. masses --      5.4665                 1.6193                 2.9596
 Frc consts  --      1.6882                 0.5475                 1.0644
 IR Inten    --      0.5494                11.5913                13.6103

                     28                     29                     30
                      A                      A                      A
 Frequencies --    832.9245               851.6354               879.0414
 Red. masses --      1.5616                 1.5756                 1.7511
 Frc consts  --      0.6383                 0.6733                 0.7972
 IR Inten    --    104.7549                24.6047                34.1739

                     31                     32                     33
                      A                      A                      A
 Frequencies --    895.1239               900.3626               967.9386
 Red. masses --      1.2414                 1.3943                 1.1710
 Frc consts  --      0.5861                 0.6659                 0.6464
 IR Inten    --      7.3891                 3.6783                 1.0264

                     34                     35                     36
                      A                      A                      A
 Frequencies --    970.8481              1017.4196              1044.9597
 Red. masses --      1.7645                 2.0849                 1.2104
 Frc consts  --      0.9799                 1.2716                 0.7787
 IR Inten    --     14.1403                65.0890                12.4155

                     37                     38                     39
                      A                      A                      A
 Frequencies --   1064.2864              1075.1353              1085.8591
 Red. masses --      1.3514                 1.3080                 2.5322
 Frc consts  --      0.9019                 0.8908                 1.7592
 IR Inten    --     74.6097                52.6550                22.5941

                     40                     41                     42
                      A                      A                      A
 Frequencies --   1108.8787              1137.5254              1177.9909
 Red. masses --      1.8004                 1.5681                 1.9510
 Frc consts  --      1.3043                 1.1955                 1.5951
 IR Inten    --    126.8113                 7.5462               140.6368

                     43                     44                     45
                      A                      A                      A
 Frequencies --   1269.6311              1296.7954              1315.9866
 Red. masses --      1.4089                 1.3435                 1.1681
 Frc consts  --      1.3381                 1.3312                 1.1919
 IR Inten    --     28.3079                 1.2123                 0.6613

                     46                     47                     48
                      A                      A                      A
 Frequencies --   1317.2840              1385.1396              1389.8163
 Red. masses --      1.2823                 1.3259                 1.3169
 Frc consts  --      1.3110                 1.4988                 1.4987
 IR Inten    --     11.7158                23.9597                13.7409

                     49                     50                     51
                      A                      A                      A
 Frequencies --   1392.2463              1416.3485              1437.1643
 Red. masses --      1.2277                 1.1514                 1.2791
 Frc consts  --      1.4021                 1.3609                 1.5566
 IR Inten    --      4.5056                 3.2871                14.7064

                     52                     53                     54
                      A                      A                      A
 Frequencies --   1471.0427              1482.0071              1488.1591
 Red. masses --      1.5990                 1.2769                 1.0581
 Frc consts  --      2.0387                 1.6523                 1.3806
 IR Inten    --     68.7877                24.6784                13.3361

                     55                     56                     57
                      A                      A                      A
 Frequencies --   1493.3229              1495.6736              1500.7479
 Red. masses --      1.0562                 1.0661                 1.0836
 Frc consts  --      1.3877                 1.4051                 1.4379
 IR Inten    --      2.3480                 5.7079                 1.1446

                     58                     59                     60
                      A                      A                      A
 Frequencies --   1519.7009              1520.5777              1529.6675
 Red. masses --      1.0582                 1.0674                 1.0497
 Frc consts  --      1.4399                 1.4541                 1.4471
 IR Inten    --     10.8077                 3.7022                 6.8835

                     61                     62                     63
                      A                      A                      A
 Frequencies --   1531.8978              1540.5996              1721.5056
 Red. masses --      1.0493                 1.0623                 6.5480
 Frc consts  --      1.4508                 1.4856                11.4334
 IR Inten    --     11.3224                 6.2419               419.6321

                     64                     65                     66
                      A                      A                      A
 Frequencies --   2993.4036              3021.9341              3037.3215
 Red. masses --      1.0652                 1.0671                 1.0394
 Frc consts  --      5.6238                 5.7413                 5.6496
 IR Inten    --     23.6203                58.8764                38.2047

                     67                     68                     69
                      A                      A                      A
 Frequencies --   3048.6620              3055.2093              3058.9906
 Red. masses --      1.0921                 1.0291                 1.0319
 Frc consts  --      5.9802                 5.6595                 5.6892
 IR Inten    --     27.1992                10.1362                45.3536

                     70                     71                     72
                      A                      A                      A
 Frequencies --   3073.0100              3074.0669              3100.9066
 Red. masses --      1.0294                 1.0953                 1.1000
 Frc consts  --      5.7273                 6.0981                 6.2320
 IR Inten    --     23.0325                18.0380                53.8911

                     73                     74                     75
                      A                      A                      A
 Frequencies --   3116.6417              3145.1636              3156.8710
 Red. masses --      1.1014                 1.0866                 1.1069
 Frc consts  --      6.3035                 6.3329                 6.4993
 IR Inten    --     48.0938                21.6609                 9.2596

                     76                     77                     78
                      A                      A                      A
 Frequencies --   3162.8294              3166.8314              3169.2214
 Red. masses --      1.1105                 1.1061                 1.1063
 Frc consts  --      6.5453                 6.5356                 6.5468
 IR Inten    --     16.8980                 7.7003                 5.8607

                     79                     80                     81
                      A                      A                      A
 Frequencies --   3172.8806              3191.7855              3696.6583
 Red. masses --      1.1062                 1.1097                 1.0640
 Frc consts  --      6.5610                 6.6608                 8.5670
 IR Inten    --      6.5040                13.2041                45.1374

 - Thermochemistry -
 -------------------
 Temperature   298.150 Kelvin.  Pressure   1.00000 Atm.
 Atom     1 has atomic number  6 and mass  12.00000

 Molecular mass:   178.10275 amu.
 Principal axes and moments of inertia in atomic units:
                           1         2         3
     Eigenvalues --  1515.232823177.642393729.63614
           X            0.99959   0.02731   0.00814
           Y           -0.02717   0.99949  -0.01680
           Z           -0.00860   0.01657   0.99983
 This molecule is an asymmetric top.
 Rotational symmetry number  1.
 Warning -- assumption of classical behavior for rotation
           may cause significant error
 Rotational temperatures (Kelvin)      0.05716     0.02726     0.02322
 Rotational constants (GHZ):           1.19107     0.56795     0.48389
 Zero-point vibrational energy     664315.0 (Joules/Mol)
                                  158.77511 (Kcal/Mol)
 Warning -- explicit consideration of  23 degrees of freedom as
           vibrations may cause significant error
 Vibrational temperatures:     15.23    57.80   129.95   152.63   179.66
          (Kelvin)            199.09   205.63   230.13   260.19   279.19
                              305.33   340.66   351.02   403.93   440.22
                              473.97   485.15   527.92   668.59   712.58
                              744.82   830.07   886.15   953.19  1041.65
                             1089.97  1124.11  1198.39  1225.31  1264.74
                             1287.88  1295.42  1392.65  1396.83  1463.84
                             1503.46  1531.27  1546.88  1562.31  1595.43
                             1636.65  1694.87  1826.72  1865.80  1893.41
                             1895.28  1992.91  1999.64  2003.13  2037.81
                             2067.76  2116.50  2132.28  2141.13  2148.56
                             2151.94  2159.24  2186.51  2187.77  2200.85
                             2204.06  2216.58  2476.86  4306.84  4347.89
                             4370.03  4386.34  4395.76  4401.21  4421.38
                             4422.90  4461.51  4484.15  4525.19  4542.03
                             4550.61  4556.36  4559.80  4565.07  4592.27
                             5318.67

 Zero-point correction=                           0.253024 (Hartree/Particle)
 Thermal correction to Energy=                    0.268563
 Thermal correction to Enthalpy=                  0.269507
 Thermal correction to Gibbs Free Energy=         0.209381
 Sum of electronic and zero-point Energies=           -864.042769
 Sum of electronic and thermal Energies=              -864.027230
 Sum of electronic and thermal Enthalpies=            -864.026286
 Sum of electronic and thermal Free Energies=         -864.086412

                     E (Thermal)             CV                S
                      KCal/Mol        Cal/Mol-Kelvin    Cal/Mol-Kelvin
 Total                  168.526             55.492            126.546
 Electronic               0.000              0.000              0.000
 Translational            0.889              2.981             41.438
 Rotational               0.889              2.981             31.263
 Vibrational            166.748             49.531             53.844
 Vibration     1          0.593              1.987              7.899
 Vibration     2          0.594              1.981              5.251
 Vibration     3          0.602              1.956              3.653
 Vibration     4          0.605              1.944              3.339
 Vibration     5          0.610              1.928              3.024
 Vibration     6          0.614              1.915              2.826
 Vibration     7          0.616              1.910              2.764
 Vibration     8          0.622              1.891              2.550
 Vibration     9          0.630              1.866              2.320
 Vibration    10          0.635              1.848              2.189
 Vibration    11          0.643              1.822              2.025
 Vibration    12          0.656              1.784              1.827
 Vibration    13          0.659              1.773              1.774
 Vibration    14          0.680              1.709              1.529
 Vibration    15          0.696              1.662              1.384
 Vibration    16          0.712              1.617              1.263
 Vibration    17          0.718              1.601              1.225
 Vibration    18          0.740              1.540              1.093
 Vibration    19          0.822              1.328              0.753
 Vibration    20          0.851              1.261              0.670
 Vibration    21          0.873              1.211              0.615
 Vibration    22          0.933              1.081              0.491
 Vibration    23          0.975              0.998              0.423

                           ! Non-Optimized Parameters !
 Normal termination of Gaussian 16 at Tue Dec  8 20:37:26 2020.

 ----------------------------------------------------------------------
 # B3LYP/6-311++G(d,p) empiricaldispersion=gd3bj scf=xqc pop=npa geom=c
 heck
 ----------------------------------------------------------------------

 ---------------------------------------
 CID_123761020_JID_1531_Energie_neutraal
 ---------------------------------------
 Structure from the checkpoint file:  "JID_1531.chk"
 Charge =  0 Multiplicity = 1

 SCF Done:  E(RB3LYP) =  -864.477125893     A.U. after   16 cycles
 Normal termination of Gaussian 16 at Tue Dec  8 20:41:27 2020.

 ----------------------------------------------------------------------
 # B3LYP/6-311++G(d,p) empiricaldispersion=gd3bj scf=xqc pop=npa geom=c
 heck
 ----------------------------------------------------------------------

 -------------------------------------
 CID_123761020_JID_1531_Energie_kation
 -------------------------------------
 Structure from the checkpoint file:  "JID_1531.chk"
 Charge =  1 Multiplicity = 2

 SCF Done:  E(UB3LYP) =  -864.238500831     A.U. after   20 cycles
 Normal termination of Gaussian 16 at Tue Dec  8 20:48:55 2020.
 Gaussian 16:  ES64L-G16RevA.03 25-Dec-2016

 ----------------------------------------------------------------------
 # B3LYP/6-311++G(d,p) empiricaldispersion=gd3bj scf=xqc pop=npa geom=c
 heck
 ----------------------------------------------------------------------

 ------------------------------------
 CID_123761020_JID_1531_Energie_anion
 ------------------------------------
 Structure from the checkpoint file:  "JID_1531.chk"
 Charge = -1 Multiplicity = 2

                         Standard orientation:
 ---------------------------------------------------------------------
 Center     Atomic      Atomic             Coordinates (Angstroms)
 Number     Number       Type             X           Y           Z
 ---------------------------------------------------------------------
      1          6           0       -3.556585   -1.276746   -0.903952
      2          6           0       -2.927271   -1.078952    0.476308
      3          6           0       -1.386361   -1.051669    0.452748
      4          6           0       -0.776434    0.063172   -0.363790
      5          6           0       -0.849154    1.382068    0.150557
      6          8           0       -0.960634    1.733874    1.336458
      7          8           0       -0.631414    2.377459   -0.805980
      8         16           0        1.592981   -0.656889   -0.177690
      9          6           0        3.389321   -1.364953   -0.096768
     10          6           0        2.074903    0.725346   -1.269594
     11          6           0        1.667344    0.037273    1.508753
     12          1           0       -3.286471   -0.458164   -1.579803
     13          1           0       -4.650478   -1.314127   -0.843314
     14          1           0       -3.215411   -2.214181   -1.362954
     15          1           0       -3.278939   -0.136427    0.913912
     16          1           0       -3.262259   -1.882334    1.148515
     17          1           0       -1.040771   -0.969892    1.492444
     18          1           0       -1.019935   -2.020379    0.076242
     19          1           0       -0.872275   -0.015807   -1.445824
     20          1           0       -0.635052    3.198229   -0.281161
     21          1           0        3.642630   -1.719777   -1.099298
     22          1           0        4.126007   -0.629607    0.241245
     23          1           0        3.361726   -2.214704    0.590118
     24          1           0        1.282053    1.473779   -1.266606
     25          1           0        3.026515    1.142965   -0.933383
     26          1           0        2.189182    0.302299   -2.270848
     27          1           0        0.757448    0.607809    1.713690
     28          1           0        1.755179   -0.811913    2.189766
     29          1           0        2.554965    0.668553    1.590913
 ---------------------------------------------------------------------

 SCF Done:  E(UB3LYP) =  -864.471310374     A.U. after   30 cycles

 The electronic state is 2-A.
 Alpha  occ. eigenvalues --  -88.83301 -19.03401 -18.96381 -10.15155 -10.10285
 Alpha  occ. eigenvalues --  -10.10212 -10.07940 -10.06253 -10.06140 -10.05519
 Alpha  occ. eigenvalues --  -10.02312  -7.91219  -5.87366  -5.87336  -5.86871
 Alpha  occ. eigenvalues --   -0.96129  -0.86665  -0.75784  -0.68894  -0.62801
 Alpha  occ. eigenvalues --   -0.62328  -0.59909  -0.55835  -0.52313  -0.48951
 Alpha  occ. eigenvalues --   -0.42683  -0.37968  -0.37455  -0.36871  -0.36009
 Alpha  occ. eigenvalues --   -0.34945  -0.34481  -0.33206  -0.32842  -0.31260
 Alpha  occ. eigenvalues --   -0.30627  -0.29864  -0.29228  -0.28499  -0.27472
 Alpha  occ. eigenvalues --   -0.26271  -0.25731  -0.24877  -0.22745  -0.22046
 Alpha  occ. eigenvalues --   -0.21958  -0.18924  -0.14684  -0.07261   0.04178
 Alpha virt. eigenvalues --    0.07269   0.07366   0.07713   0.08994   0.09266
 Alpha virt. eigenvalues --    0.09693   0.10004   0.10692   0.11211   0.11724
 Alpha virt. eigenvalues --    0.12123   0.12335   0.12728   0.13306   0.13525

  Beta  occ. eigenvalues --  -88.83290 -19.03391 -18.96365 -10.15149 -10.10252
  Beta  occ. eigenvalues --  -10.10156 -10.07832 -10.06252 -10.06140 -10.05515
  Beta  occ. eigenvalues --  -10.02308  -7.91208  -5.87358  -5.87318  -5.86850
  Beta  occ. eigenvalues --   -0.96110  -0.86638  -0.75732  -0.68887  -0.62718
  Beta  occ. eigenvalues --   -0.62308  -0.59761  -0.55818  -0.52174  -0.48940
  Beta  occ. eigenvalues --   -0.42668  -0.37902  -0.37430  -0.36812  -0.35952
  Beta  occ. eigenvalues --   -0.34932  -0.34463  -0.33137  -0.32827  -0.31175
  Beta  occ. eigenvalues --   -0.30551  -0.29814  -0.29202  -0.28436  -0.27463
  Beta  occ. eigenvalues --   -0.26255  -0.25669  -0.24841  -0.22727  -0.22039
  Beta  occ. eigenvalues --   -0.21887  -0.18863  -0.14668  -0.07201
  Beta virt. eigenvalues --    0.06980   0.07620   0.08029   0.08188   0.09417
  Beta virt. eigenvalues --    0.09588   0.09787   0.10574   0.11341   0.11821
  Beta virt. eigenvalues --    0.11979   0.12343   0.12594   0.12961   0.13530

 Mulliken charges and spin densities:
               1          2
     1  C   -0.516273  -0.039712
     2  C   -0.223947  -0.055243
     3  C   -0.268990  -0.091042
     4  C    0.301106  -0.126097
     5  C   -0.640991  -0.051886
     6  O   -0.345074  -0.003220
     7  O   -0.159459  -0.004330
     8  S   -0.767239   1.781040
     9  C    1.201406  -1.734172
    10  C    1.194430  -1.900580
    11  C    0.549057  -1.318892
    12  H    0.148646   0.004981
    13  H    0.102367   0.012639
    14  H    0.111594   0.010862
    15  H    0.150952   0.001409
    16  H    0.088681   0.015331
    17  H    0.128294   0.026271
    18  H    0.004411   0.095935
    19  H    0.146846   0.077968
    20  H    0.224350   0.023780
    21  H   -0.910932   1.094213
    22  H   -0.583350   0.761455
    23  H   -0.729606   0.897703
    24  H    0.230892   0.033888
    25  H   -0.219939   0.400377
    26  H   -0.384938   0.603501
    27  H    0.316182  -0.077308
    28  H   -0.076879   0.303370
    29  H   -0.071597   0.257758
 Sum of Mulliken charges =  -1.00000   1.00000

 Dipole moment (field-independent basis, Debye):
    X=             -8.8162    Y=              1.9985    Z=              0.6461  Tot=              9.0629
 Quadrupole moment (field-independent basis, Debye-Ang):
   XX=           -159.6413   YY=           -113.6060   ZZ=           -114.2177
   XY=             16.1021   XZ=              7.3230   YZ=             -3.0833

 Summary of Natural Population Analysis:

                                       Natural Population
                Natural  -----------------------------------------------
    Atom  No    Charge         Core      Valence    Rydberg      Total
 -----------------------------------------------------------------------
      C    1   -0.28773      0.99967     2.28370    0.00436     3.28773
      C    2   -0.18655      0.99964     2.17975    0.00716     3.18655
      C    3   -0.20357      0.99962     2.19115    0.01281     3.20357
      C    4   -0.28937      0.99952     2.27187    0.01798     3.28937
      C    5    0.34519      0.99952     1.63005    0.02524     2.65481
      O    6   -0.37296      0.99988     3.36672    0.00637     4.37296
      O    7   -0.37136      0.99989     3.36449    0.00698     4.37136
      S    8    0.40988      4.99952     2.55988    0.03072     7.59012
      C    9   -0.37083      0.99963     2.36195    0.00925     3.37083
      C   10   -0.34905      0.99961     2.34196    0.00748     3.34905
      C   11   -0.35203      0.99960     2.34490    0.00752     3.35203
      H   12    0.10009      0.00000     0.39893    0.00097     0.39991
      H   13    0.09213      0.00000     0.40701    0.00087     0.40787
      H   14    0.09208      0.00000     0.40682    0.00109     0.40792
      H   15    0.09738      0.00000     0.40140    0.00122     0.40262
      H   16    0.08665      0.00000     0.41212    0.00123     0.41335
      H   17    0.09978      0.00000     0.39866    0.00156     0.40022
      H   18    0.09001      0.00000     0.40775    0.00224     0.40999
      H   19    0.09904      0.00000     0.39945    0.00151     0.40096
      H   20    0.23339      0.00000     0.26333    0.00328     0.26661
      H   21    0.11155      0.00000     0.38202    0.00644     0.38845
      H   22    0.10860      0.00000     0.38346    0.00794     0.39140
      H   23    0.10780      0.00000     0.38760    0.00461     0.39220
      H   24    0.12728      0.00000     0.37046    0.00227     0.37272
      H   25    0.11108      0.00000     0.38676    0.00216     0.38892
      H   26    0.11540      0.00000     0.38261    0.00199     0.38460
      H   27    0.13384      0.00000     0.36423    0.00192     0.36616
      H   28    0.11226      0.00000     0.38654    0.00120     0.38774
      H   29    0.11003      0.00000     0.38864    0.00133     0.38997
 =======================================================================
   * Total *    0.00000     14.99610    33.82421    0.17969    49.00000

 Normal termination of Gaussian 16 at Tue Dec  8 21:01:43 2020.
