 Gaussian 16, Revision A.03,

 -----------------------------------------------------------
 # opt freq B3LYP/6-31G(d) empiricaldispersion=gd3bj scf=xqc
 -----------------------------------------------------------

 -----------------------------
 CID_4175763_JID_8555_neutraal
 -----------------------------
 Symbolic Z-matrix:
 Charge =  0 Multiplicity = 1

 SCF Done:  E(RB3LYP) =  -846.458711737     A.U. after   15 cycles
 SCF Done:  E(RB3LYP) =  -846.464287947     A.U. after   13 cycles
 SCF Done:  E(RB3LYP) =  -846.462906732     A.U. after   14 cycles
 SCF Done:  E(RB3LYP) =  -846.465921082     A.U. after   13 cycles
 SCF Done:  E(RB3LYP) =  -846.466991458     A.U. after   11 cycles
 SCF Done:  E(RB3LYP) =  -846.467239108     A.U. after   13 cycles
 SCF Done:  E(RB3LYP) =  -846.468219774     A.U. after   12 cycles
 SCF Done:  E(RB3LYP) =  -846.468557896     A.U. after   12 cycles
 SCF Done:  E(RB3LYP) =  -846.468824689     A.U. after   12 cycles
 SCF Done:  E(RB3LYP) =  -846.469001193     A.U. after   12 cycles
 SCF Done:  E(RB3LYP) =  -846.469173436     A.U. after   11 cycles
 SCF Done:  E(RB3LYP) =  -846.469174032     A.U. after    9 cycles
 SCF Done:  E(RB3LYP) =  -846.469174135     A.U. after    9 cycles
 SCF Done:  E(RB3LYP) =  -846.469174179     A.U. after    7 cycles
 SCF Done:  E(RB3LYP) =  -846.469174189     A.U. after    7 cycles
 Optimization completed.
    -- Stationary point found.
 Normal termination of Gaussian 16 at Fri Dec 11 21:22:30 2020.

 --------------------------------------------------------------------
 #N Geom=AllCheck Guess=TCheck SCRF=Check GenChk RB3LYP/6-31G(d) Freq
 --------------------------------------------------------------------

 Structure from the checkpoint file:  "JID_8555.chk"
 -----------------------------
 CID_4175763_JID_8555_neutraal
 -----------------------------
 Charge =  0 Multiplicity = 1

 SCF Done:  E(RB3LYP) =  -846.469174189     A.U. after    1 cycles

  Exact polarizability: 203.223   6.653 176.215   2.596 -11.623 107.568
 Approx polarizability: 282.867  20.494 266.916   9.178 -34.767 167.853

                      1                      2                      3
                      A                      A                      A
 Frequencies --     24.5929                34.8812                52.0210
 Red. masses --      2.9650                 3.5356                 3.4598
 Frc consts  --      0.0011                 0.0025                 0.0055
 IR Inten    --      2.1750                 0.6173                 0.5223

                      4                      5                      6
                      A                      A                      A
 Frequencies --     54.6043                76.2183                84.5801
 Red. masses --      2.5455                 2.5934                 2.7678
 Frc consts  --      0.0045                 0.0089                 0.0117
 IR Inten    --      0.1245                 0.3811                 0.4023

                      7                      8                      9
                      A                      A                      A
 Frequencies --     93.0085               101.2116               109.6799
 Red. masses --      2.7676                 2.8920                 3.5233
 Frc consts  --      0.0141                 0.0175                 0.0250
 IR Inten    --      2.7601                 0.5862                 2.7016

                     10                     11                     12
                      A                      A                      A
 Frequencies --    163.2966               167.1950               215.4883
 Red. masses --      3.0815                 2.2048                 2.1497
 Frc consts  --      0.0484                 0.0363                 0.0588
 IR Inten    --      0.0356                 0.7659                 0.5143

                     13                     14                     15
                      A                      A                      A
 Frequencies --    215.5684               238.6795               251.4493
 Red. masses --      2.4381                 1.0502                 1.2503
 Frc consts  --      0.0668                 0.0352                 0.0466
 IR Inten    --      9.8093                 0.3326                 0.0688

                     16                     17                     18
                      A                      A                      A
 Frequencies --    254.0813               282.1368               303.0725
 Red. masses --      1.4370                 1.8175                 4.2751
 Frc consts  --      0.0547                 0.0852                 0.2314
 IR Inten    --      0.1043                 5.9297                 1.3292

                     19                     20                     21
                      A                      A                      A
 Frequencies --    306.8643               330.0510               347.5268
 Red. masses --      3.4970                 4.0883                 5.4569
 Frc consts  --      0.1940                 0.2624                 0.3883
 IR Inten    --      4.1863                 4.6264                 1.1914

                     22                     23                     24
                      A                      A                      A
 Frequencies --    356.2389               391.2557               413.2842
 Red. masses --      3.9057                 4.2320                 5.4560
 Frc consts  --      0.2920                 0.3817                 0.5491
 IR Inten    --      3.7229                 1.5768                 5.4613

                     25                     26                     27
                      A                      A                      A
 Frequencies --    446.8145               479.8106               521.3410
 Red. masses --      3.2990                 3.8042                 4.7831
 Frc consts  --      0.3881                 0.5160                 0.7660
 IR Inten    --      1.9961                 0.9016                 7.5219

                     28                     29                     30
                      A                      A                      A
 Frequencies --    541.7238               571.0275               633.5781
 Red. masses --      3.5813                 4.9072                 3.8520
 Frc consts  --      0.6192                 0.9428                 0.9110
 IR Inten    --      0.2264                15.5506                19.8421

                     31                     32                     33
                      A                      A                      A
 Frequencies --    645.0540               658.0672               708.7152
 Red. masses --      4.1024                 4.1476                 4.6556
 Frc consts  --      1.0057                 1.0582                 1.3778
 IR Inten    --      0.9978                 3.1244                17.1746

                     34                     35                     36
                      A                      A                      A
 Frequencies --    727.9548               764.7194               813.1936
 Red. masses --      4.3452                 6.2636                 1.1803
 Frc consts  --      1.3566                 2.1581                 0.4598
 IR Inten    --      2.9495                 3.3974                 1.8045

                     37                     38                     39
                      A                      A                      A
 Frequencies --    825.1181               831.2368               846.3498
 Red. masses --      1.1436                 1.0972                 3.4697
 Frc consts  --      0.4587                 0.4467                 1.4643
 IR Inten    --      3.6239                 0.8033                 3.4591

                     40                     41                     42
                      A                      A                      A
 Frequencies --    853.1906               883.2391               913.9954
 Red. masses --      1.5773                 2.5339                 2.4454
 Frc consts  --      0.6765                 1.1647                 1.2036
 IR Inten    --      9.4365                29.3023                11.1951

                     43                     44                     45
                      A                      A                      A
 Frequencies --    940.5251               978.2214               987.0075
 Red. masses --      3.1563                 1.2727                 2.0488
 Frc consts  --      1.6450                 0.7176                 1.1759
 IR Inten    --     18.0348                 1.7935                26.6903

                     46                     47                     48
                      A                      A                      A
 Frequencies --   1026.4353              1060.6263              1062.6408
 Red. masses --      2.9858                 1.8659                 3.8228
 Frc consts  --      1.8534                 1.2367                 2.5433
 IR Inten    --     21.6968                 3.8590                31.8242

                     49                     50                     51
                      A                      A                      A
 Frequencies --   1069.2798              1094.5010              1121.8704
 Red. masses --      4.2464                 3.6926                 1.9903
 Frc consts  --      2.8606                 2.6062                 1.4759
 IR Inten    --     59.7129               249.6415                49.3811

                     52                     53                     54
                      A                      A                      A
 Frequencies --   1127.1679              1143.7580              1153.4661
 Red. masses --      1.9997                 1.9041                 1.9470
 Frc consts  --      1.4969                 1.4676                 1.5262
 IR Inten    --     45.9897                 9.7959                27.3017

                     55                     56                     57
                      A                      A                      A
 Frequencies --   1189.8804              1193.5869              1205.5061
 Red. masses --      1.4758                 1.6186                 1.6957
 Frc consts  --      1.2311                 1.3586                 1.4519
 IR Inten    --      6.0032                 3.3830                23.4295

                     58                     59                     60
                      A                      A                      A
 Frequencies --   1222.2596              1250.0794              1298.6483
 Red. masses --      2.0694                 2.6853                 3.0929
 Frc consts  --      1.8215                 2.4724                 3.0732
 IR Inten    --    112.1994                28.3921               246.9468

                     61                     62                     63
                      A                      A                      A
 Frequencies --   1301.9027              1307.3624              1336.5799
 Red. masses --      3.1627                 1.2902                 1.7524
 Frc consts  --      3.1584                 1.2993                 1.8444
 IR Inten    --    108.0408                54.7327                16.8585

                     64                     65                     66
                      A                      A                      A
 Frequencies --   1337.6480              1352.8519              1407.3687
 Red. masses --      1.1366                 2.2586                 1.3310
 Frc consts  --      1.1982                 2.4355                 1.5533
 IR Inten    --      6.5625               126.3147                35.4436

                     67                     68                     69
                      A                      A                      A
 Frequencies --   1416.4094              1421.1521              1424.1784
 Red. masses --      1.2622                 1.3278                 1.2802
 Frc consts  --      1.4919                 1.5801                 1.5299
 IR Inten    --     33.5973                42.1617                 1.2108

                     70                     71                     72
                      A                      A                      A
 Frequencies --   1441.2362              1444.4120              1448.0973
 Red. masses --      1.3342                 1.3267                 1.3202
 Frc consts  --      1.6328                 1.6308                 1.6311
 IR Inten    --     66.2906                 8.9432                22.9003

                     73                     74                     75
                      A                      A                      A
 Frequencies --   1476.6392              1487.9093              1504.5660
 Red. masses --      2.3568                 1.2878                 1.0575
 Frc consts  --      3.0278                 1.6797                 1.4104
 IR Inten    --     56.2259                58.8155                 7.4907

                     76                     77                     78
                      A                      A                      A
 Frequencies --   1513.3108              1514.8822              1516.4044
 Red. masses --      1.5433                 1.0445                 1.0597
 Frc consts  --      2.0824                 1.4123                 1.4357
 IR Inten    --     21.4318                 6.4297                 3.8865

                     79                     80                     81
                      A                      A                      A
 Frequencies --   1518.1506              1525.4636              1527.7834
 Red. masses --      1.3210                 1.0742                 1.1087
 Frc consts  --      1.7938                 1.4728                 1.5248
 IR Inten    --      7.7738                 2.1299                 1.0272

                     82                     83                     84
                      A                      A                      A
 Frequencies --   1533.0651              1540.8419              1543.6724
 Red. masses --      1.0483                 1.1442                 1.1461
 Frc consts  --      1.4516                 1.6006                 1.6092
 IR Inten    --      1.6708                13.7634                 3.4101

                     85                     86                     87
                      A                      A                      A
 Frequencies --   1553.8470              1615.2780              1642.9684
 Red. masses --      1.1061                 7.4699                 6.7950
 Frc consts  --      1.5735                11.4831                10.8068
 IR Inten    --      1.7528                32.8387               111.3806

                     88                     89                     90
                      A                      A                      A
 Frequencies --   1763.5287              3025.1826              3058.1726
 Red. masses --     10.4486                 1.0705                 1.0355
 Frc consts  --     19.1458                 5.7721                 5.7059
 IR Inten    --    179.3082                34.5862                15.5673

                     91                     92                     93
                      A                      A                      A
 Frequencies --   3062.9619              3064.9194              3066.2176
 Red. masses --      1.0353                 1.0374                 1.0603
 Frc consts  --      5.7228                 5.7419                 5.8731
 IR Inten    --     17.6135                11.6852                27.0837

                     94                     95                     96
                      A                      A                      A
 Frequencies --   3069.7244              3086.5848              3116.5398
 Red. masses --      1.0366                 1.0588                 1.1049
 Frc consts  --      5.7555                 5.9432                 6.3231
 IR Inten    --      5.8643                48.1684                 7.5952

                     97                     98                     99
                      A                      A                      A
 Frequencies --   3117.9896              3123.4958              3127.6737
 Red. masses --      1.0955                 1.1047                 1.1012
 Frc consts  --      6.2747                 6.3502                 6.3469
 IR Inten    --     12.5972                 4.3507                27.0610

                    100                    101                    102
                      A                      A                      A
 Frequencies --   3132.9715              3134.6746              3138.6921
 Red. masses --      1.1004                 1.1010                 1.0967
 Frc consts  --      6.3639                 6.3740                 6.3653
 IR Inten    --     43.8168                23.9619                10.5066

                    103                    104                    105
                      A                      A                      A
 Frequencies --   3143.3742              3145.1497              3154.2989
 Red. masses --      1.1053                 1.1027                 1.1040
 Frc consts  --      6.4343                 6.4267                 6.4719
 IR Inten    --     43.4993                31.6339                32.4907

                    106                    107                    108
                      A                      A                      A
 Frequencies --   3170.5061              3214.8682              3237.6548
 Red. masses --      1.1059                 1.0896                 1.0925
 Frc consts  --      6.5497                 6.6353                 6.7473
 IR Inten    --     15.6880                 4.9407                 4.0453

 - Thermochemistry -
 -------------------
 Temperature   298.150 Kelvin.  Pressure   1.00000 Atm.
 Atom     1 has atomic number  6 and mass  12.00000

 Molecular mass:   252.13616 amu.
 Principal axes and moments of inertia in atomic units:
                           1         2         3
     Eigenvalues --  3369.888985423.110637647.82289
           X            0.99871  -0.05077  -0.00144
           Y            0.05079   0.99850   0.02061
           Z            0.00039  -0.02066   0.99979
 This molecule is an asymmetric top.
 Rotational symmetry number  1.
 Warning -- assumption of classical behavior for rotation
           may cause significant error
 Rotational temperatures (Kelvin)      0.02570     0.01597     0.01133
 Rotational constants (GHZ):           0.53555     0.33279     0.23598
 Zero-point vibrational energy     846159.0 (Joules/Mol)
                                  202.23685 (Kcal/Mol)
 Warning -- explicit consideration of  29 degrees of freedom as
           vibrations may cause significant error
 Vibrational temperatures:     35.38    50.19    74.85    78.56   109.66
          (Kelvin)            121.69   133.82   145.62   157.80   234.95
                              240.56   310.04   310.15   343.41   361.78
                              365.57   405.93   436.05   441.51   474.87
                              500.01   512.55   562.93   594.62   642.87
                              690.34   750.09   779.42   821.58   911.58
                              928.09   946.81  1019.68  1047.36  1100.26
                             1170.00  1187.16  1195.96  1217.71  1227.55
                             1270.78  1315.04  1353.21  1407.44  1420.08
                             1476.81  1526.00  1528.90  1538.46  1574.74
                             1614.12  1621.74  1645.61  1659.58  1711.97
                             1717.31  1734.45  1758.56  1798.59  1868.47
                             1873.15  1881.00  1923.04  1924.58  1946.45
                             2024.89  2037.90  2044.72  2049.07  2073.62
                             2078.19  2083.49  2124.55  2140.77  2164.73
                             2177.32  2179.58  2181.77  2184.28  2194.80
                             2198.14  2205.74  2216.93  2221.00  2235.64
                             2324.02  2363.87  2537.32  4352.56  4400.03
                             4406.92  4409.74  4411.60  4416.65  4440.91
                             4484.01  4486.09  4494.01  4500.02  4507.65
                             4510.10  4515.88  4522.61  4525.17  4538.33
                             4561.65  4625.48  4658.26

 Zero-point correction=                           0.322285 (Hartree/Particle)
 Thermal correction to Energy=                    0.341898
 Thermal correction to Enthalpy=                  0.342842
 Thermal correction to Gibbs Free Energy=         0.273089
 Sum of electronic and zero-point Energies=           -846.146889
 Sum of electronic and thermal Energies=              -846.127276
 Sum of electronic and thermal Enthalpies=            -846.126332
 Sum of electronic and thermal Free Energies=         -846.196085

                     E (Thermal)             CV                S
                      KCal/Mol        Cal/Mol-Kelvin    Cal/Mol-Kelvin
 Total                  214.544             71.628            146.809
 Electronic               0.000              0.000              0.000
 Translational            0.889              2.981             42.475
 Rotational               0.889              2.981             33.302
 Vibrational            212.767             65.666             71.032
 Vibration     1          0.593              1.985              6.224
 Vibration     2          0.594              1.983              5.530
 Vibration     3          0.596              1.977              4.739
 Vibration     4          0.596              1.976              4.643
 Vibration     5          0.599              1.965              3.986
 Vibration     6          0.601              1.960              3.782
 Vibration     7          0.602              1.954              3.596
 Vibration     8          0.604              1.948              3.431
 Vibration     9          0.606              1.941              3.275
 Vibration    10          0.623              1.887              2.511
 Vibration    11          0.624              1.883              2.467
 Vibration    12          0.645              1.817              1.997
 Vibration    13          0.645              1.817              1.996
 Vibration    14          0.657              1.781              1.813
 Vibration    15          0.663              1.760              1.720
 Vibration    16          0.665              1.756              1.702
 Vibration    17          0.681              1.707              1.521
 Vibration    18          0.695              1.668              1.400
 Vibration    19          0.697              1.661              1.379
 Vibration    20          0.713              1.615              1.260
 Vibration    21          0.725              1.580              1.177
 Vibration    22          0.732              1.562              1.138
 Vibration    23          0.759              1.489              0.995
 Vibration    24          0.777              1.441              0.915
 Vibration    25          0.806              1.368              0.805
 Vibration    26          0.836              1.295              0.711
 Vibration    27          0.876              1.203              0.607
 Vibration    28          0.897              1.158              0.562
 Vibration    29          0.927              1.094              0.502

 Optimization completed.
    -- Stationary point found.
 Normal termination of Gaussian 16 at Fri Dec 11 21:42:25 2020.

 ----------------------------------------------------------------------
 # B3LYP/6-311++G(d,p) empiricaldispersion=gd3bj scf=xqc pop=npa geom=c
 heck
 ----------------------------------------------------------------------

 -------------------------------------
 CID_4175763_JID_8555_Energie_neutraal
 -------------------------------------
 Structure from the checkpoint file:  "JID_8555.chk"
 Charge =  0 Multiplicity = 1

 SCF Done:  E(RB3LYP) =  -846.705471949     A.U. after   15 cycles
 Normal termination of Gaussian 16 at Fri Dec 11 21:51:23 2020.

 ----------------------------------------------------------------------
 # B3LYP/6-311++G(d,p) empiricaldispersion=gd3bj scf=xqc pop=npa geom=c
 heck
 ----------------------------------------------------------------------

 -----------------------------------
 CID_4175763_JID_8555_Energie_kation
 -----------------------------------
 Structure from the checkpoint file:  "JID_8555.chk"
 Charge =  1 Multiplicity = 2

 SCF Done:  E(UB3LYP) =  -846.404235783     A.U. after   30 cycles
 Normal termination of Gaussian 16 at Fri Dec 11 22:16:43 2020.
 Gaussian 16:  ES64L-G16RevA.03 25-Dec-2016

 ----------------------------------------------------------------------
 # B3LYP/6-311++G(d,p) empiricaldispersion=gd3bj scf=xqc pop=npa geom=c
 heck
 ----------------------------------------------------------------------

 ----------------------------------
 CID_4175763_JID_8555_Energie_anion
 ----------------------------------
 Structure from the checkpoint file:  "JID_8555.chk"
 Charge = -1 Multiplicity = 2

                         Standard orientation:
 ---------------------------------------------------------------------
 Center     Atomic      Atomic             Coordinates (Angstroms)
 Number     Number       Type             X           Y           Z
 ---------------------------------------------------------------------
      1          6           0        3.658538   -1.733933   -1.478462
      2          6           0        3.525617   -0.362703   -0.834458
      3          8           0        2.865717   -0.428095    0.449893
      4          6           0        1.517114   -0.684236    0.384721
      5          6           0        0.621132    0.293676   -0.075863
      6          6           0       -0.749436   -0.020138   -0.188801
      7          6           0       -1.226630   -1.285683    0.206721
      8          6           0       -0.308710   -2.218650    0.718764
      9          6           0        1.041510   -1.928373    0.807005
     10          6           0       -2.657286   -1.743098    0.133571
     11          8           0       -2.946252   -2.863054    0.533856
     12          6           0       -3.748050   -0.849672   -0.421650
     13          8           0       -1.597887    0.891475   -0.760228
     14          6           0       -1.896167    2.074745   -0.002293
     15          6           0       -2.897273    2.885990   -0.802095
     16          8           0        1.021083    1.535958   -0.496534
     17          6           0        1.887102    2.318570    0.356875
     18          6           0        1.481624    2.328110    1.822812
     19          1           0        4.202894   -2.418186   -0.819721
     20          1           0        4.205976   -1.651512   -2.424291
     21          1           0        2.675607   -2.166013   -1.690198
     22          1           0        4.507964    0.063822   -0.613433
     23          1           0        2.984461    0.330994   -1.488027
     24          1           0       -0.696939   -3.183299    1.023757
     25          1           0        1.758805   -2.653260    1.177154
     26          1           0       -3.502710   -0.492713   -1.424700
     27          1           0       -4.676948   -1.423378   -0.431241
     28          1           0       -3.875754    0.039103    0.205587
     29          1           0       -2.306906    1.781722    0.974563
     30          1           0       -0.978950    2.644361    0.164753
     31          1           0       -3.820320    2.321414   -0.965161
     32          1           0       -3.143848    3.810612   -0.269121
     33          1           0       -2.476749    3.147944   -1.777841
     34          1           0        2.919097    1.972583    0.257750
     35          1           0        1.817717    3.322241   -0.071717
     36          1           0        1.578011    1.335114    2.269344
     37          1           0        2.141996    3.009135    2.371172
     38          1           0        0.450794    2.671425    1.954396
 ---------------------------------------------------------------------

 SCF Done:  E(UB3LYP) =  -846.708538685     A.U. after   33 cycles
 SCF Done:  E(UB3LYP) =  -846.708538685     a.u. after    1 cycles

 The electronic state is 2-A.
 Alpha  occ. eigenvalues --  -19.02926 -19.02270 -19.01811 -18.93476 -10.11878
 Alpha  occ. eigenvalues --  -10.11594 -10.11477 -10.09838 -10.09507 -10.08660
 Alpha  occ. eigenvalues --  -10.08564 -10.06894 -10.06549 -10.06465 -10.03939
 Alpha  occ. eigenvalues --  -10.03133 -10.03064 -10.02992  -0.95412  -0.93634
 Alpha  occ. eigenvalues --   -0.92429  -0.87551  -0.72101  -0.66980  -0.66266
 Alpha  occ. eigenvalues --   -0.65681  -0.61624  -0.60416  -0.58966  -0.54083
 Alpha  occ. eigenvalues --   -0.52756  -0.52024  -0.48248  -0.46291  -0.41981
 Alpha  occ. eigenvalues --   -0.41150  -0.39531  -0.38304  -0.37639  -0.36516
 Alpha  occ. eigenvalues --   -0.35938  -0.34948  -0.34096  -0.33049  -0.32299
 Alpha  occ. eigenvalues --   -0.32051  -0.29811  -0.29657  -0.29505  -0.28536
 Alpha  occ. eigenvalues --   -0.28326  -0.28183  -0.27174  -0.26997  -0.26794
 Alpha  occ. eigenvalues --   -0.25627  -0.24615  -0.23922  -0.23753  -0.22452
 Alpha  occ. eigenvalues --   -0.22210  -0.20737  -0.18339  -0.17009  -0.15193
 Alpha  occ. eigenvalues --   -0.11184  -0.10405  -0.09781   0.04370
 Alpha virt. eigenvalues --    0.06366   0.06920   0.07784   0.08671   0.09345
 Alpha virt. eigenvalues --    0.09903   0.10018   0.10481   0.11064   0.11532
 Alpha virt. eigenvalues --    0.12266   0.12484   0.12787   0.13145   0.13355

  Beta  occ. eigenvalues --  -19.02929 -19.02261 -19.01810 -18.93069 -10.11864
  Beta  occ. eigenvalues --  -10.11538 -10.11452 -10.09888 -10.09355 -10.08352
  Beta  occ. eigenvalues --  -10.08283 -10.06888 -10.06544 -10.06455 -10.04007
  Beta  occ. eigenvalues --  -10.03156 -10.02963 -10.02859  -0.95360  -0.93541
  Beta  occ. eigenvalues --   -0.92389  -0.86799  -0.71871  -0.66883  -0.66211
  Beta  occ. eigenvalues --   -0.65618  -0.61260  -0.60278  -0.58799  -0.53962
  Beta  occ. eigenvalues --   -0.52608  -0.51955  -0.48027  -0.46036  -0.41852
  Beta  occ. eigenvalues --   -0.40873  -0.39470  -0.38161  -0.37464  -0.36464
  Beta  occ. eigenvalues --   -0.35809  -0.34831  -0.34006  -0.32944  -0.32172
  Beta  occ. eigenvalues --   -0.31877  -0.29714  -0.29506  -0.29079  -0.28486
  Beta  occ. eigenvalues --   -0.28274  -0.28086  -0.27102  -0.26951  -0.26539
  Beta  occ. eigenvalues --   -0.25431  -0.24484  -0.23758  -0.23476  -0.22287
  Beta  occ. eigenvalues --   -0.21560  -0.20024  -0.17652  -0.16870  -0.15142
  Beta  occ. eigenvalues --   -0.10307  -0.09480  -0.09376
  Beta virt. eigenvalues --    0.06464   0.07114   0.07831   0.08677   0.09348
  Beta virt. eigenvalues --    0.09765   0.09919   0.10106   0.10615   0.11021
  Beta virt. eigenvalues --    0.11528   0.12353   0.12548   0.12787   0.13072

 Mulliken charges and spin densities:
               1          2
     1  C   -0.460668  -0.236974
     2  C    0.327706  -0.243438
     3  O   -0.073414   0.015439
     4  C   -0.554212   0.263884
     5  C    0.013444  -0.104381
     6  C   -0.409246   0.097284
     7  C    0.850677   0.047392
     8  C   -0.217668   0.078705
     9  C   -0.205349  -0.034769
    10  C    0.022940   0.133138
    11  O   -0.376348   0.147613
    12  C   -0.492556  -0.031567
    13  O   -0.125025  -0.001296
    14  C   -0.152089   0.071620
    15  C   -0.338364  -0.214790
    16  O   -0.140233   0.012103
    17  C   -0.018438  -0.115703
    18  C   -0.256121  -0.247333
    19  H    0.135658   0.011811
    20  H    0.055033   0.057774
    21  H    0.160530   0.010597
    22  H   -0.280061   0.441609
    23  H    0.143015   0.028653
    24  H    0.201911  -0.014696
    25  H    0.116894   0.029002
    26  H    0.158837   0.002909
    27  H    0.149050  -0.002059
    28  H    0.068949   0.065544
    29  H    0.073327   0.062976
    30  H    0.265440  -0.141256
    31  H    0.127031   0.010427
    32  H    0.029841   0.089298
    33  H    0.116105   0.033456
    34  H    0.068029   0.082646
    35  H   -0.133392   0.297711
    36  H    0.137958   0.037425
    37  H   -0.054445   0.184846
    38  H    0.065256   0.074400
 Sum of Mulliken charges =  -1.00000   1.00000

 Dipole moment (field-independent basis, Debye):
    X=              1.9632    Y=              4.3365    Z=             -1.0802  Tot=              4.8812
 Quadrupole moment (field-independent basis, Debye-Ang):
   XX=           -162.5359   YY=           -147.4223   ZZ=           -125.1807
   XY=            -20.8041   XZ=              0.9854   YZ=              5.0147

 Summary of Natural Population Analysis:

                                       Natural Population
                Natural  -----------------------------------------------
    Atom  No    Charge         Core      Valence    Rydberg      Total
 -----------------------------------------------------------------------
      C    1   -0.30198      0.99966     2.29635    0.00596     3.30198
      C    2   -0.01014      0.99957     1.99827    0.01229     3.01014
      O    3   -0.29778      0.99987     3.28729    0.01062     4.29778
      C    4    0.17521      0.99933     1.81125    0.01421     2.82479
      C    5    0.09548      0.99930     1.89195    0.01327     2.90452
      C    6    0.17778      0.99933     1.80966    0.01322     2.82222
      C    7   -0.07483      0.99944     2.06404    0.01135     3.07483
      C    8   -0.05224      0.99955     2.04463    0.00806     3.05224
      C    9   -0.14356      0.99952     2.13548    0.00856     3.14356
      C   10    0.30666      0.99966     1.67294    0.02074     2.69334
      O   11   -0.26835      0.99988     3.26227    0.00620     4.26835
      C   12   -0.32742      0.99964     2.32227    0.00551     3.32742
      O   13   -0.29433      0.99985     3.28388    0.01059     4.29433
      C   14   -0.00732      0.99958     1.99762    0.01013     3.00732
      C   15   -0.29300      0.99966     2.28869    0.00464     3.29300
      O   16   -0.29279      0.99986     3.28276    0.01017     4.29279
      C   17   -0.01118      0.99957     1.99887    0.01274     3.01118
      C   18   -0.30359      0.99966     2.29872    0.00521     3.30359
      H   19    0.09762      0.00000     0.40149    0.00089     0.40238
      H   20    0.09641      0.00000     0.40289    0.00071     0.40359
      H   21    0.10655      0.00000     0.39253    0.00091     0.39345
      H   22    0.08509      0.00000     0.41300    0.00191     0.41491
      H   23    0.08666      0.00000     0.41178    0.00156     0.41334
      H   24    0.10947      0.00000     0.38939    0.00113     0.39053
      H   25    0.09908      0.00000     0.39985    0.00107     0.40092
      H   26    0.10823      0.00000     0.39050    0.00127     0.39177
      H   27    0.09867      0.00000     0.40013    0.00121     0.40133
      H   28    0.09981      0.00000     0.39827    0.00193     0.40019
      H   29    0.07823      0.00000     0.42030    0.00147     0.42177
      H   30    0.08633      0.00000     0.41126    0.00241     0.41367
      H   31    0.10013      0.00000     0.39862    0.00125     0.39987
      H   32    0.09508      0.00000     0.40396    0.00096     0.40492
      H   33    0.09982      0.00000     0.39899    0.00120     0.40018
      H   34    0.08658      0.00000     0.41170    0.00173     0.41342
      H   35    0.08373      0.00000     0.41513    0.00114     0.41627
      H   36    0.10918      0.00000     0.38983    0.00100     0.39082
      H   37    0.09911      0.00000     0.40010    0.00079     0.40089
      H   38    0.09759      0.00000     0.40146    0.00095     0.40241
 =======================================================================
   * Total *    0.00000     17.99293    49.79811    0.20896    68.00000

 Normal termination of Gaussian 16 at Fri Dec 11 22:44:39 2020.
