 Gaussian 16, Revision A.03,

 -----------------------------------------------------------
 # opt freq B3LYP/6-31G(d) empiricaldispersion=gd3bj scf=xqc
 -----------------------------------------------------------

 ---------------------------
 CID_542241_JID_538_neutraal
 ---------------------------
 Symbolic Z-matrix:
 Charge =  0 Multiplicity = 1

 SCF Done:  E(RB3LYP) =  -749.621196878     A.U. after   15 cycles
 SCF Done:  E(RB3LYP) =  -749.625835100     A.U. after   12 cycles
 SCF Done:  E(RB3LYP) =  -749.626144872     A.U. after   11 cycles
 SCF Done:  E(RB3LYP) =  -749.626154988     A.U. after    9 cycles
 SCF Done:  E(RB3LYP) =  -749.626153471     A.U. after    9 cycles
 SCF Done:  E(RB3LYP) =  -749.626157434     A.U. after    9 cycles
 SCF Done:  E(RB3LYP) =  -749.626157793     A.U. after    7 cycles
 SCF Done:  E(RB3LYP) =  -749.626158184     A.U. after    8 cycles
 SCF Done:  E(RB3LYP) =  -749.626160055     A.U. after   11 cycles
 SCF Done:  E(RB3LYP) =  -749.626164157     A.U. after   12 cycles
 SCF Done:  E(RB3LYP) =  -749.626173146     A.U. after    9 cycles
 SCF Done:  E(RB3LYP) =  -749.626174595     A.U. after    9 cycles
 SCF Done:  E(RB3LYP) =  -749.626174660     A.U. after    9 cycles
 SCF Done:  E(RB3LYP) =  -749.626174708     A.U. after    7 cycles
 SCF Done:  E(RB3LYP) =  -749.626174737     A.U. after    8 cycles
 SCF Done:  E(RB3LYP) =  -749.626174743     A.U. after    6 cycles
 Optimization completed.
    -- Stationary point found.

 1\1\GINC-NODE370\FOpt\RB3LYP\6-31G(d)\C9H14S1\VSC10255\08-Dec-2020\0\\
 # opt freq B3LYP/6-31G(d) empiricaldispersion=gd3bj scf=xqc\\CID_54224
 1_JID_538_neutraal\\0,1\C,0.9691544145,-0.0634601643,-0.0038163871\C,0
 .5705786331,0.7935961779,1.1568019625\C,0.8321945759,2.1133412811,1.36
 11584794\C,0.2915869742,2.6198782133,2.6935443259\C,-0.4893247169,1.39
 28617084,3.2290033282\C,-0.1903492495,0.2565314212,2.275852705\S,-0.66
 60057373,-1.3083677932,2.4743156112\C,-0.6226978874,3.8441755557,2.508
 5294573\C,1.4554623589,2.9799942035,3.6406484739\C,1.5714041321,3.0314

 Normal termination of Gaussian 16 at Tue Dec  8 12:24:59 2020.

 --------------------------------------------------------------------
 #N Geom=AllCheck Guess=TCheck SCRF=Check GenChk RB3LYP/6-31G(d) Freq
 --------------------------------------------------------------------

 Structure from the checkpoint file:  "JID_538.chk"
 ---------------------------
 CID_542241_JID_538_neutraal
 ---------------------------
 Charge =  0 Multiplicity = 1

 SCF Done:  E(RB3LYP) =  -749.626174743     A.U. after    1 cycles

  Exact polarizability: 163.239 -11.404 106.990   0.543   0.058  76.020
 Approx polarizability: 279.089 -35.256 152.542   1.862  -0.219 113.415

                      1                      2                      3
                      A                      A                      A
 Frequencies --     28.9524                80.9994                96.7202
 Red. masses --      2.8228                 1.4052                 1.7388
 Frc consts  --      0.0014                 0.0054                 0.0096
 IR Inten    --      1.3653                 0.0619                 1.0621

                      4                      5                      6
                      A                      A                      A
 Frequencies --    116.2176               202.9203               234.1940
 Red. masses --      1.0966                 1.8520                 4.5845
 Frc consts  --      0.0087                 0.0449                 0.1481
 IR Inten    --      0.1552                 0.4284                 1.4897

                      7                      8                      9
                      A                      A                      A
 Frequencies --    270.0199               285.8099               293.2633
 Red. masses --      1.1620                 1.1773                 2.2499
 Frc consts  --      0.0499                 0.0567                 0.1140
 IR Inten    --      0.0174                 0.2058                 1.4089

                     10                     11                     12
                      A                      A                      A
 Frequencies --    311.6053               320.8225               340.5417
 Red. masses --      2.6625                 2.3719                 2.4330
 Frc consts  --      0.1523                 0.1438                 0.1662
 IR Inten    --      0.7033                 1.2872                 0.0792

                     13                     14                     15
                      A                      A                      A
 Frequencies --    383.4302               472.2723               507.9592
 Red. masses --      2.6064                 6.0198                 2.8842
 Frc consts  --      0.2258                 0.7911                 0.4385
 IR Inten    --      0.0334                 2.0307                 0.5660

                     16                     17                     18
                      A                      A                      A
 Frequencies --    529.0498               552.7473               638.6962
 Red. masses --      2.6283                 3.5647                 3.1676
 Frc consts  --      0.4334                 0.6417                 0.7613
 IR Inten    --      0.5102                 1.2091                 1.8761

                     19                     20                     21
                      A                      A                      A
 Frequencies --    658.2234               768.4589               889.9868
 Red. masses --      3.9276                 3.0033                 2.1691
 Frc consts  --      1.0026                 1.0449                 1.0123
 IR Inten    --      3.0929                 0.4919                 0.6619

                     22                     23                     24
                      A                      A                      A
 Frequencies --    910.8897               957.0320               964.2036
 Red. masses --      2.1003                 1.7330                 1.5303
 Frc consts  --      1.0268                 0.9352                 0.8382
 IR Inten    --      2.7295                 0.2192                 0.0456

                     25                     26                     27
                      A                      A                      A
 Frequencies --    979.5036              1026.9419              1058.0275
 Red. masses --      1.8821                 1.3242                 1.4072
 Frc consts  --      1.0639                 0.8228                 0.9281
 IR Inten    --      0.3382                 1.4169                 0.9691

                     28                     29                     30
                      A                      A                      A
 Frequencies --   1081.2029              1082.0690              1111.0275
 Red. masses --      2.4269                 1.6490                 2.6755
 Frc consts  --      1.6715                 1.1375                 1.9458
 IR Inten    --     29.5479                 1.3448                52.7027

                     31                     32                     33
                      A                      A                      A
 Frequencies --   1127.7916              1152.3125              1196.6479
 Red. masses --      1.5506                 2.1963                 2.0683
 Frc consts  --      1.1620                 1.7182                 1.7450
 IR Inten    --      1.4143                13.9676                48.4412

                     34                     35                     36
                      A                      A                      A
 Frequencies --   1253.2606              1265.6202              1310.9947
 Red. masses --      2.9000                 1.8558                 4.3730
 Frc consts  --      2.6837                 1.7514                 4.4282
 IR Inten    --      5.1928                 1.8699                58.9660

                     37                     38                     39
                      A                      A                      A
 Frequencies --   1340.8647              1374.4260              1423.5051
 Red. masses --      2.5911                 3.0439                 1.2168
 Frc consts  --      2.7448                 3.3879                 1.4527
 IR Inten    --      4.4536               117.9866                 4.6405

                     40                     41                     42
                      A                      A                      A
 Frequencies --   1440.0284              1444.4976              1450.2700
 Red. masses --      1.4218                 1.2315                 1.2526
 Frc consts  --      1.7371                 1.5140                 1.5523
 IR Inten    --      8.9448                 1.3250                 3.3686

                     43                     44                     45
                      A                      A                      A
 Frequencies --   1487.3744              1501.5603              1505.3787
 Red. masses --      1.0851                 1.0437                 1.0519
 Frc consts  --      1.4144                 1.3864                 1.4045
 IR Inten    --      7.7511                 1.3932                13.2946

                     46                     47                     48
                      A                      A                      A
 Frequencies --   1508.1456              1514.3001              1516.5640
 Red. masses --      1.0513                 1.1010                 1.0520
 Frc consts  --      1.4088                 1.4875                 1.4256
 IR Inten    --     12.3442                 4.8296                 0.3491

                     49                     50                     51
                      A                      A                      A
 Frequencies --   1527.0219              1536.7691              1540.1054
 Red. masses --      1.0492                 1.0565                 1.0574
 Frc consts  --      1.4414                 1.4700                 1.4777
 IR Inten    --      0.3811                 3.8523                 5.5358

                     52                     53                     54
                      A                      A                      A
 Frequencies --   1674.6988              3043.2765              3045.7879
 Red. masses --      6.4422                 1.0404                 1.0344
 Frc consts  --     10.6452                 5.6771                 5.6538
 IR Inten    --     88.8221                 6.0703                23.5083

                     55                     56                     57
                      A                      A                      A
 Frequencies --   3050.7784              3061.0146              3065.1760
 Red. masses --      1.0359                 1.0372                 1.0642
 Frc consts  --      5.6805                 5.7257                 5.8912
 IR Inten    --     39.1442                13.6506                 4.8131

                     58                     59                     60
                      A                      A                      A
 Frequencies --   3089.2487              3108.1923              3114.2136
 Red. masses --      1.0977                 1.0995                 1.0998
 Frc consts  --      6.1722                 6.2585                 6.2845
 IR Inten    --     14.5454                 3.7902                 7.9417

                     61                     62                     63
                      A                      A                      A
 Frequencies --   3115.8035              3118.5714              3120.0852
 Red. masses --      1.1026                 1.1028                 1.1019
 Frc consts  --      6.3068                 6.3193                 6.3200
 IR Inten    --      1.8123                24.7347                46.4996

                     64                     65                     66
                      A                      A                      A
 Frequencies --   3123.8893              3143.4850              3153.4280
 Red. masses --      1.1030                 1.1019                 1.0969
 Frc consts  --      6.3421                 6.4151                 6.4264
 IR Inten    --     30.5943                10.6338                26.5348

 - Thermochemistry -
 -------------------
 Temperature   298.150 Kelvin.  Pressure   1.00000 Atm.
 Atom     1 has atomic number  6 and mass  12.00000

 Molecular mass:   154.08162 amu.
 Principal axes and moments of inertia in atomic units:
                           1         2         3
     Eigenvalues --  1074.189592058.251242712.28268
           X            0.99916   0.04097   0.00014
           Y           -0.04097   0.99916   0.00023
           Z           -0.00013  -0.00023   1.00000
 This molecule is an asymmetric top.
 Rotational symmetry number  1.
 Warning -- assumption of classical behavior for rotation
           may cause significant error
 Rotational temperatures (Kelvin)      0.08063     0.04208     0.03193
 Rotational constants (GHZ):           1.68010     0.87683     0.66540
 Zero-point vibrational energy     547882.9 (Joules/Mol)
                                  130.94717 (Kcal/Mol)
 Warning -- explicit consideration of  17 degrees of freedom as
           vibrations may cause significant error
 Vibrational temperatures:     41.66   116.54   139.16   167.21   291.96
          (Kelvin)            336.95   388.50   411.22   421.94   448.33
                              461.59   489.96   551.67   679.49   730.84
                              761.18   795.28   918.94   947.04  1105.64
                             1280.49  1310.57  1376.96  1387.27  1409.29
                             1477.54  1522.27  1555.61  1556.86  1598.52
                             1622.64  1657.92  1721.71  1803.16  1820.95
                             1886.23  1929.21  1977.49  2048.11  2071.88
                             2078.31  2086.62  2140.00  2160.41  2165.90
                             2169.89  2178.74  2182.00  2197.04  2211.07
                             2215.87  2409.52  4378.60  4382.21  4389.39
                             4404.12  4410.10  4444.74  4472.00  4480.66
                             4482.95  4486.93  4489.11  4494.58  4522.77
                             4537.08

 Zero-point correction=                           0.208678 (Hartree/Particle)
 Thermal correction to Energy=                    0.220267
 Thermal correction to Enthalpy=                  0.221211
 Thermal correction to Gibbs Free Energy=         0.170892
 Sum of electronic and zero-point Energies=           -749.417497
 Sum of electronic and thermal Energies=              -749.405908
 Sum of electronic and thermal Enthalpies=            -749.404964
 Sum of electronic and thermal Free Energies=         -749.455282

                     E (Thermal)             CV                S
                      KCal/Mol        Cal/Mol-Kelvin    Cal/Mol-Kelvin
 Total                  138.220             42.603            105.905
 Electronic               0.000              0.000              0.000
 Translational            0.889              2.981             41.007
 Rotational               0.889              2.981             30.173
 Vibrational            136.442             36.641             34.725
 Vibration     1          0.593              1.984              5.900
 Vibration     2          0.600              1.962              3.867
 Vibration     3          0.603              1.952              3.519
 Vibration     4          0.608              1.936              3.162
 Vibration     5          0.639              1.836              2.106
 Vibration     6          0.654              1.789              1.847
 Vibration     7          0.674              1.728              1.596
 Vibration     8          0.684              1.700              1.499
 Vibration     9          0.688              1.686              1.455
 Vibration    10          0.700              1.652              1.354
 Vibration    11          0.706              1.634              1.306
 Vibration    12          0.720              1.594              1.210
 Vibration    13          0.753              1.506              1.026
 Vibration    14          0.829              1.312              0.731
 Vibration    15          0.863              1.232              0.639
 Vibration    16          0.884              1.186              0.589
 Vibration    17          0.908              1.134              0.539

                           ! Non-Optimized Parameters !

 1\1\GINC-NODE370\Freq\RB3LYP\6-31G(d)\C9H14S1\VSC10255\08-Dec-2020\0\\
 #N Geom=AllCheck Guess=TCheck SCRF=Check GenChk RB3LYP/6-31G(d) Freq\\
 CID_542241_JID_538_neutraal\\0,1\C,0.9691544145,-0.0634601643,-0.00381
 63871\C,0.5705786331,0.7935961779,1.1568019625\C,0.8321945759,2.113341
 2811,1.3611584794\C,0.2915869742,2.6198782133,2.6935443259\C,-0.489324
 7169,1.3928617084,3.2290033282\C,-0.1903492495,0.2565314212,2.27585270
 5\S,-0.6660057373,-1.3083677932,2.4743156112\C,-0.6226978874,3.8441755
 557,2.5085294573\C,1.4554623589,2.9799942035,3.6406484739\C,1.57140413

 Normal termination of Gaussian 16 at Tue Dec  8 12:31:07 2020.

 ----------------------------------------------------------------------
 # B3LYP/6-311++G(d,p) empiricaldispersion=gd3bj scf=xqc pop=npa geom=c
 heck
 ----------------------------------------------------------------------

 -----------------------------------
 CID_542241_JID_538_Energie_neutraal
 -----------------------------------
 Structure from the checkpoint file:  "JID_538.chk"
 Charge =  0 Multiplicity = 1

 SCF Done:  E(RB3LYP) =  -749.744974685     A.U. after   15 cycles
 Normal termination of Gaussian 16 at Tue Dec  8 12:40:12 2020.

 ----------------------------------------------------------------------
 # B3LYP/6-311++G(d,p) empiricaldispersion=gd3bj scf=xqc pop=npa geom=c
 heck
 ----------------------------------------------------------------------

 ---------------------------------
 CID_542241_JID_538_Energie_kation
 ---------------------------------
 Structure from the checkpoint file:  "JID_538.chk"
 Charge =  1 Multiplicity = 2

 SCF Done:  E(UB3LYP) =  -749.459503499     A.U. after   23 cycles
 Normal termination of Gaussian 16 at Tue Dec  8 12:50:15 2020.
 Gaussian 16:  ES64L-G16RevA.03 25-Dec-2016

 --------------------------------
 CID_542241_JID_538_Energie_anion
 --------------------------------
 Structure from the checkpoint file:  "JID_538.chk"
 Charge = -1 Multiplicity = 2

                         Standard orientation:
 ---------------------------------------------------------------------
 Center     Atomic      Atomic             Coordinates (Angstroms)
 Number     Number       Type             X           Y           Z
 ---------------------------------------------------------------------
      1          6           0        1.397848    2.148883    0.010503
      2          6           0        0.559535    0.909158   -0.017011
      3          6           0       -0.797485    0.807114   -0.012975
      4          6           0       -1.277705   -0.639736   -0.002952
      5          6           0        0.044900   -1.435013   -0.145646
      6          6           0        1.159667   -0.417035   -0.044928
      7         16           0        2.769608   -0.763663    0.004898
      8          6           0       -2.246162   -0.926206   -1.164450
      9          6           0       -1.966469   -0.965210    1.339049
     10          6           0       -1.779265    1.933505   -0.004334
     11          1           0        0.795873    3.058979    0.066781
     12          1           0        2.029786    2.202171   -0.883115
     13          1           0        2.080917    2.124337    0.866462
     14          1           0        0.161802   -2.216016    0.612062
     15          1           0        0.109067   -1.936130   -1.119035
     16          1           0       -2.510121   -1.989524   -1.183186
     17          1           0       -3.175854   -0.355369   -1.064060
     18          1           0       -1.790868   -0.672436   -2.128399
     19          1           0       -1.289367   -0.781142    2.180127
     20          1           0       -2.868392   -0.361195    1.486552
     21          1           0       -2.264752   -2.019261    1.363899
     22          1           0       -1.296061    2.908094    0.089070
     23          1           0       -2.370347    1.937302   -0.929599
     24          1           0       -2.494598    1.826040    0.820544
 ---------------------------------------------------------------------

 SCF Done:  E(UB3LYP) =  -749.763465214     A.U. after   22 cycles

 The electronic state is 2-A.
 Alpha  occ. eigenvalues --  -88.60584 -10.04746 -10.04001 -10.03788 -10.03786
 Alpha  occ. eigenvalues --  -10.02187 -10.01363 -10.01037 -10.00998 -10.00676
 Alpha  occ. eigenvalues --   -7.69362  -5.65631  -5.65400  -5.64934  -0.71792
 Alpha  occ. eigenvalues --   -0.64206  -0.61538  -0.57478  -0.56613  -0.53434
 Alpha  occ. eigenvalues --   -0.50602  -0.43770  -0.38070  -0.35357  -0.31892
 Alpha  occ. eigenvalues --   -0.31762  -0.30303  -0.29690  -0.28226  -0.26898
 Alpha  occ. eigenvalues --   -0.26649  -0.26068  -0.25096  -0.24315  -0.21054
 Alpha  occ. eigenvalues --   -0.20224  -0.19731  -0.18001  -0.16153  -0.13599
 Alpha  occ. eigenvalues --   -0.07216  -0.02717   0.04309
 Alpha virt. eigenvalues --    0.08018   0.09498   0.10224   0.10795   0.12386
 Alpha virt. eigenvalues --    0.12417   0.12737   0.13711   0.13865   0.15055
 Alpha virt. eigenvalues --    0.15202   0.16040   0.16237   0.16474   0.17045

  Beta  occ. eigenvalues --  -88.60468 -10.04778 -10.03974 -10.03836 -10.03752
  Beta  occ. eigenvalues --  -10.02181 -10.01410 -10.01172 -10.00330 -10.00087
  Beta  occ. eigenvalues --   -7.69258  -5.65589  -5.65019  -5.64868  -0.71311
  Beta  occ. eigenvalues --   -0.63978  -0.60935  -0.57357  -0.56546  -0.52982
  Beta  occ. eigenvalues --   -0.50392  -0.43455  -0.37320  -0.35169  -0.31822
  Beta  occ. eigenvalues --   -0.31355  -0.30152  -0.29340  -0.28107  -0.26868
  Beta  occ. eigenvalues --   -0.26180  -0.25959  -0.24984  -0.24082  -0.20747
  Beta  occ. eigenvalues --   -0.20096  -0.19433  -0.17749  -0.15593  -0.11612
  Beta  occ. eigenvalues --   -0.04982  -0.02452
  Beta virt. eigenvalues --    0.07964   0.09443   0.10084   0.10744   0.11440
  Beta virt. eigenvalues --    0.12290   0.12362   0.13029   0.13661   0.14146
  Beta virt. eigenvalues --    0.15062   0.15280   0.16019   0.16189   0.16442

 Mulliken charges and spin densities:
               1          2
     1  C   -0.462469   0.010801
     2  C   -0.048496  -0.215728
     3  C    0.017354   0.406461
     4  C    1.085860   0.031947
     5  C   -0.703486  -0.045317
     6  C    0.954372   0.425516
     7  S   -1.410054   0.289054
     8  C   -0.745060  -0.052315
     9  C   -0.790342  -0.015415
    10  C   -0.465995  -0.042185
    11  H    0.078502  -0.002382
    12  H    0.116602   0.004732
    13  H    0.125529  -0.000638
    14  H    0.100461   0.032093
    15  H    0.073010   0.080464
    16  H    0.116595   0.014687
    17  H    0.106519  -0.000164
    18  H    0.138119   0.005277
    19  H    0.148904   0.007713
    20  H    0.099998  -0.001340
    21  H    0.113822   0.011508
    22  H    0.102613   0.001309
    23  H    0.130107   0.028707
    24  H    0.117538   0.025215
 Sum of Mulliken charges =  -1.00000   1.00000

 Dipole moment (field-independent basis, Debye):
    X=             -7.6693    Y=              2.2473    Z=              0.0652  Tot=              7.9921
 Quadrupole moment (field-independent basis, Debye-Ang):
   XX=           -111.1777   YY=            -85.6107   ZZ=            -80.6095
   XY=              7.8396   XZ=              0.0784   YZ=             -0.1087

 Summary of Natural Population Analysis:

                                       Natural Population
                Natural  -----------------------------------------------
    Atom  No    Charge         Core      Valence    Rydberg      Total
 -----------------------------------------------------------------------
      C    1   -0.29202      0.99963     2.28649    0.00589     3.29202
      C    2   -0.08480      0.99935     2.07480    0.01066     3.08480
      C    3    0.13936      0.99941     1.85204    0.00920     2.86064
      C    4   -0.05800      0.99955     2.04822    0.01024     3.05800
      C    5   -0.20912      0.99956     2.19872    0.01084     3.20912
      C    6    0.06920      0.99953     1.91717    0.01409     2.93080
      S    7   -0.07744      4.99949     3.06123    0.01672     8.07744
      C    8   -0.27760      0.99963     2.27239    0.00557     3.27760
      C    9   -0.27506      0.99963     2.26991    0.00552     3.27506
      C   10   -0.30630      0.99964     2.30177    0.00489     3.30630
      H   11    0.08700      0.00000     0.41197    0.00103     0.41300
      H   12    0.10311      0.00000     0.39554    0.00135     0.39689
      H   13    0.10543      0.00000     0.39320    0.00137     0.39457
      H   14    0.10484      0.00000     0.39413    0.00103     0.39516
      H   15    0.10655      0.00000     0.39177    0.00169     0.39345
      H   16    0.09274      0.00000     0.40638    0.00088     0.40726
      H   17    0.09092      0.00000     0.40817    0.00091     0.40908
      H   18    0.09979      0.00000     0.39942    0.00079     0.40021
      H   19    0.10215      0.00000     0.39708    0.00077     0.39785
      H   20    0.08967      0.00000     0.40933    0.00100     0.41033
      H   21    0.09164      0.00000     0.40743    0.00093     0.40836
      H   22    0.09783      0.00000     0.40111    0.00105     0.40217
      H   23    0.10140      0.00000     0.39732    0.00128     0.39860
      H   24    0.09870      0.00000     0.40003    0.00127     0.40130
 =======================================================================
   * Total *   -0.00000     13.99543    27.89562    0.10895    42.00000

 Normal termination of Gaussian 16 at Tue Dec  8 13:04:47 2020.
