 Gaussian 16, Revision A.03,

 -----------------------------------------------------------
 # opt freq B3LYP/6-31G(d) empiricaldispersion=gd3bj scf=xqc
 -----------------------------------------------------------

 ------------------------------
 CID_42656918_JID_4818_neutraal
 ------------------------------
 Symbolic Z-matrix:
 Charge =  0 Multiplicity = 1

 SCF Done:  E(RB3LYP) =  -612.337538776     A.U. after   14 cycles
 SCF Done:  E(RB3LYP) =  -612.341663840     A.U. after   12 cycles
 SCF Done:  E(RB3LYP) =  -612.342064352     A.U. after   11 cycles
 SCF Done:  E(RB3LYP) =  -612.342210201     A.U. after   10 cycles
 SCF Done:  E(RB3LYP) =  -612.342224219     A.U. after    9 cycles
 SCF Done:  E(RB3LYP) =  -612.342229380     A.U. after    9 cycles
 SCF Done:  E(RB3LYP) =  -612.342230650     A.U. after    9 cycles
 SCF Done:  E(RB3LYP) =  -612.342230983     A.U. after    8 cycles
 SCF Done:  E(RB3LYP) =  -612.342231065     A.U. after    7 cycles
 SCF Done:  E(RB3LYP) =  -612.342231089     A.U. after    7 cycles
 Optimization completed.
    -- Stationary point found.
 Normal termination of Gaussian 16 at Thu Dec 10 10:35:46 2020.

 --------------------------------------------------------------------
 #N Geom=AllCheck Guess=TCheck SCRF=Check GenChk RB3LYP/6-31G(d) Freq
 --------------------------------------------------------------------

 Structure from the checkpoint file:  "JID_4818.chk"
 ------------------------------
 CID_42656918_JID_4818_neutraal
 ------------------------------
 Charge =  0 Multiplicity = 1

 SCF Done:  E(RB3LYP) =  -612.342231089     A.U. after    1 cycles

  Exact polarizability: 199.000  -1.196 124.812  -3.787   4.415  76.856
 Approx polarizability: 261.262   4.788 212.442  -3.673  17.501 119.016

                      1                      2                      3
                      A                      A                      A
 Frequencies --     27.3252                44.2663                76.6835
 Red. masses --      5.0498                 3.6804                 3.1330
 Frc consts  --      0.0022                 0.0042                 0.0109
 IR Inten    --      0.1745                 1.2434                 0.1651

                      4                      5                      6
                      A                      A                      A
 Frequencies --     85.7995               104.1242               123.1573
 Red. masses --      3.7454                 2.9051                 4.5430
 Frc consts  --      0.0162                 0.0186                 0.0406
 IR Inten    --      1.3239                 0.4120                 2.2144

                      7                      8                      9
                      A                      A                      A
 Frequencies --    158.3656               223.4105               239.5076
 Red. masses --      3.9588                 3.9817                 2.7787
 Frc consts  --      0.0585                 0.1171                 0.0939
 IR Inten    --      2.4681                 1.2554                 1.2915

                     10                     11                     12
                      A                      A                      A
 Frequencies --    280.6603               330.4522               392.5114
 Red. masses --      5.0796                 2.5880                 2.7575
 Frc consts  --      0.2357                 0.1665                 0.2503
 IR Inten    --      3.4893                 4.2506                 1.6361

                     13                     14                     15
                      A                      A                      A
 Frequencies --    427.3440               434.2281               451.1516
 Red. masses --      3.0144                 3.3006                 1.4393
 Frc consts  --      0.3243                 0.3667                 0.1726
 IR Inten    --      3.0091                 5.1677                25.0161

                     16                     17                     18
                      A                      A                      A
 Frequencies --    483.0163               493.1487               544.8880
 Red. masses --      1.8667                 3.1286                 2.8406
 Frc consts  --      0.2566                 0.4483                 0.4969
 IR Inten    --      6.5088                 6.5066                18.2531

                     19                     20                     21
                      A                      A                      A
 Frequencies --    592.7903               622.8334               649.6886
 Red. masses --      3.0771                 1.6524                 5.8973
 Frc consts  --      0.6371                 0.3777                 1.4666
 IR Inten    --     20.9123               128.4753                16.2352

                     22                     23                     24
                      A                      A                      A
 Frequencies --    680.1339               719.3706               736.7714
 Red. masses --      1.8593                 2.7580                 3.2672
 Frc consts  --      0.5067                 0.8409                 1.0450
 IR Inten    --     12.2921                63.1919                22.0951

                     25                     26                     27
                      A                      A                      A
 Frequencies --    769.6125               825.0598               832.8277
 Red. masses --      3.6780                 1.8825                 1.7693
 Frc consts  --      1.2835                 0.7550                 0.7230
 IR Inten    --     85.0386                10.8066                 4.8611

                     28                     29                     30
                      A                      A                      A
 Frequencies --    853.9138               869.3107               877.0717
 Red. masses --      1.4242                 1.4799                 1.9082
 Frc consts  --      0.6118                 0.6589                 0.8648
 IR Inten    --     46.8415                 1.9271                 2.4348

                     31                     32                     33
                      A                      A                      A
 Frequencies --    907.8909               944.9452               957.6299
 Red. masses --      2.2160                 1.3501                 1.3153
 Frc consts  --      1.0762                 0.7103                 0.7107
 IR Inten    --      6.6352                37.1458                 0.9466

                     34                     35                     36
                      A                      A                      A
 Frequencies --    979.7581              1004.1706              1033.0467
 Red. masses --      1.2856                 1.7305                 2.7637
 Frc consts  --      0.7271                 1.0281                 1.7378
 IR Inten    --      0.5179                14.7820                 1.8550

                     37                     38                     39
                      A                      A                      A
 Frequencies --   1040.8595              1074.0383              1100.1720
 Red. masses --      1.0900                 2.6717                 2.2209
 Frc consts  --      0.6958                 1.8158                 1.5838
 IR Inten    --     11.5056                82.8165                44.2407

                     40                     41                     42
                      A                      A                      A
 Frequencies --   1107.6802              1147.8658              1171.9390
 Red. masses --      2.0985                 1.3108                 1.6709
 Frc consts  --      1.5170                 1.0176                 1.3521
 IR Inten    --      7.3625                 5.1138                25.8658

                     43                     44                     45
                      A                      A                      A
 Frequencies --   1173.0445              1211.6157              1221.6097
 Red. masses --      1.7494                 1.1769                 1.8684
 Frc consts  --      1.4183                 1.0179                 1.6428
 IR Inten    --      6.7941                57.0772                66.0790

                     46                     47                     48
                      A                      A                      A
 Frequencies --   1255.9738              1298.0076              1303.0335
 Red. masses --      1.1715                 1.2851                 4.1077
 Frc consts  --      1.0888                 1.2756                 4.1092
 IR Inten    --      2.3093                 8.5162               401.4994

                     49                     50                     51
                      A                      A                      A
 Frequencies --   1331.8876              1343.3983              1357.8399
 Red. masses --      1.2224                 1.3260                 6.8267
 Frc consts  --      1.2776                 1.4100                 7.4158
 IR Inten    --      3.2487                 3.0845                37.1588

                     52                     53                     54
                      A                      A                      A
 Frequencies --   1381.8388              1430.8182              1443.1475
 Red. masses --      1.3938                 1.3784                 2.6201
 Frc consts  --      1.5681                 1.6626                 3.2150
 IR Inten    --      3.6081                58.5302               202.7734

                     55                     56                     57
                      A                      A                      A
 Frequencies --   1466.8866              1477.2082              1501.9038
 Red. masses --      3.1426                 1.1789                 1.1283
 Frc consts  --      3.9842                 1.5157                 1.4996
 IR Inten    --     16.8699                 2.1006                11.3309

                     58                     59                     60
                      A                      A                      A
 Frequencies --   1542.0898              1567.3469              1626.8087
 Red. masses --      1.1749                 2.2693                 6.7088
 Frc consts  --      1.6462                 3.2845                10.4609
 IR Inten    --     51.5859                56.1084                 4.6163

                     61                     62                     63
                      A                      A                      A
 Frequencies --   1647.3323              1673.9975              1717.8701
 Red. masses --      1.4107                 5.4360                 3.9333
 Frc consts  --      2.2556                 8.9752                 6.8389
 IR Inten    --    107.8318               125.0786               177.0796

                     64                     65                     66
                      A                      A                      A
 Frequencies --   1736.6584              3021.0645              3038.5328
 Red. masses --      4.5191                 1.0554                 1.0654
 Frc consts  --      8.0303                 5.6753                 5.7956
 IR Inten    --      5.4292                27.0619                10.6620

                     67                     68                     69
                      A                      A                      A
 Frequencies --   3068.2472              3090.1548              3154.3567
 Red. masses --      1.1052                 1.1011                 1.0594
 Frc consts  --      6.1302                 6.1948                 6.2104
 IR Inten    --     50.3006                24.3927                14.4363

                     70                     71                     72
                      A                      A                      A
 Frequencies --   3175.1333              3194.9878              3206.5960
 Red. masses --      1.0917                 1.0889                 1.0875
 Frc consts  --      6.4845                 6.5493                 6.5881
 IR Inten    --      6.2753                 8.4752                 4.3755

                     73                     74                     75
                      A                      A                      A
 Frequencies --   3221.2041              3233.2756              3236.5001
 Red. masses --      1.0947                 1.0915                 1.1150
 Frc consts  --      6.6922                 6.7231                 6.8816
 IR Inten    --      6.8364                10.4220                20.0695

                     76                     77                     78
                      A                      A                      A
 Frequencies --   3475.5214              3542.6203              3652.3217
 Red. masses --      1.0745                 1.0468                 1.0992
 Frc consts  --      7.6468                 7.7405                 8.6387
 IR Inten    --      3.5921                17.7941                11.1865

 - Thermochemistry -
 -------------------
 Temperature   298.150 Kelvin.  Pressure   1.00000 Atm.
 Atom     1 has atomic number  6 and mass  12.00000

 Molecular mass:   190.11061 amu.
 Principal axes and moments of inertia in atomic units:
                           1         2         3
     Eigenvalues --   752.034167466.732917828.26353
           X            0.99999  -0.00444  -0.00122
           Y            0.00443   0.99994  -0.00962
           Z            0.00127   0.00962   0.99995
 This molecule is an asymmetric top.
 Rotational symmetry number  1.
 Warning -- assumption of classical behavior for rotation
           may cause significant error
 Rotational temperatures (Kelvin)      0.11517     0.01160     0.01106
 Rotational constants (GHZ):           2.39981     0.24170     0.23054
 Zero-point vibrational energy     618710.1 (Joules/Mol)
                                  147.87527 (Kcal/Mol)
 Warning -- explicit consideration of  19 degrees of freedom as
           vibrations may cause significant error
 Vibrational temperatures:     39.31    63.69   110.33   123.45   149.81
          (Kelvin)            177.20   227.85   321.44   344.60   403.81
                              475.45   564.74   614.85   624.76   649.11
                              694.95   709.53   783.97   852.89   896.12
                              934.76   978.56  1035.01  1060.05  1107.30
                             1187.08  1198.25  1228.59  1250.74  1261.91
                             1306.25  1359.57  1377.82  1409.65  1444.78
                             1486.32  1497.56  1545.30  1582.90  1593.70
                             1651.52  1686.16  1687.75  1743.24  1757.62
                             1807.07  1867.54  1874.77  1916.29  1932.85
                             1953.63  1988.16  2058.63  2076.37  2110.52
                             2125.37  2160.90  2218.72  2255.06  2340.61
                             2370.14  2408.51  2471.63  2498.66  4346.64
                             4371.77  4414.52  4446.04  4538.42  4568.31
                             4596.87  4613.58  4634.59  4651.96  4656.60
                             5000.50  5097.04  5254.88

 Zero-point correction=                           0.235654 (Hartree/Particle)
 Thermal correction to Energy=                    0.249212
 Thermal correction to Enthalpy=                  0.250156
 Thermal correction to Gibbs Free Energy=         0.194013
 Sum of electronic and zero-point Energies=           -612.106577
 Sum of electronic and thermal Energies=              -612.093019
 Sum of electronic and thermal Enthalpies=            -612.092075
 Sum of electronic and thermal Free Energies=         -612.148218

                     E (Thermal)             CV                S
                      KCal/Mol        Cal/Mol-Kelvin    Cal/Mol-Kelvin
 Total                  156.383             51.267            118.163
 Electronic               0.000              0.000              0.000
 Translational            0.889              2.981             41.633
 Rotational               0.889              2.981             32.153
 Vibrational            154.605             45.305             44.377
 Vibration     1          0.593              1.984              6.015
 Vibration     2          0.595              1.980              5.058
 Vibration     3          0.599              1.965              3.974
 Vibration     4          0.601              1.959              3.754
 Vibration     5          0.605              1.946              3.376
 Vibration     6          0.610              1.930              3.050
 Vibration     7          0.621              1.893              2.569
 Vibration     8          0.649              1.805              1.931
 Vibration     9          0.657              1.780              1.807
 Vibration    10          0.680              1.709              1.530
 Vibration    11          0.713              1.615              1.258
 Vibration    12          0.760              1.486              0.991
 Vibration    13          0.789              1.411              0.867
 Vibration    14          0.795              1.396              0.845
 Vibration    15          0.810              1.358              0.792
 Vibration    16          0.839              1.288              0.702
 Vibration    17          0.849              1.265              0.675
 Vibration    18          0.900              1.151              0.555
 Vibration    19          0.950              1.047              0.462

                           ! Non-Optimized Parameters !
 Normal termination of Gaussian 16 at Thu Dec 10 10:42:20 2020.

 ----------------------------------------------------------------------
 # B3LYP/6-311++G(d,p) empiricaldispersion=gd3bj scf=xqc pop=npa geom=c
 heck
 ----------------------------------------------------------------------

 --------------------------------------
 CID_42656918_JID_4818_Energie_neutraal
 --------------------------------------
 Structure from the checkpoint file:  "JID_4818.chk"
 Charge =  0 Multiplicity = 1

 SCF Done:  E(RB3LYP) =  -612.522057834     A.U. after   15 cycles
 Normal termination of Gaussian 16 at Thu Dec 10 10:45:04 2020.

 ----------------------------------------------------------------------
 # B3LYP/6-311++G(d,p) empiricaldispersion=gd3bj scf=xqc pop=npa geom=c
 heck
 ----------------------------------------------------------------------

 ------------------------------------
 CID_42656918_JID_4818_Energie_kation
 ------------------------------------
 Structure from the checkpoint file:  "JID_4818.chk"
 Charge =  1 Multiplicity = 2

 SCF Done:  E(UB3LYP) =  -612.226100552     A.U. after   28 cycles
 Normal termination of Gaussian 16 at Thu Dec 10 10:51:35 2020.
 Gaussian 16:  ES64L-G16RevA.03 25-Dec-2016

 ----------------------------------------------------------------------
 # B3LYP/6-311++G(d,p) empiricaldispersion=gd3bj scf=xqc pop=npa geom=c
 heck
 ----------------------------------------------------------------------

 -----------------------------------
 CID_42656918_JID_4818_Energie_anion
 -----------------------------------
 Structure from the checkpoint file:  "JID_4818.chk"
 Charge = -1 Multiplicity = 2

                         Standard orientation:
 ---------------------------------------------------------------------
 Center     Atomic      Atomic             Coordinates (Angstroms)
 Number     Number       Type             X           Y           Z
 ---------------------------------------------------------------------
      1          6           0       -5.502005   -0.602806    1.096762
      2          6           0       -4.448395   -0.631573    0.281478
      3          6           0       -3.986758    0.527923   -0.557446
      4          6           0       -2.552448    0.947196   -0.246274
      5          8           0       -1.704950   -0.150804   -0.580638
      6          6           0       -0.367224   -0.034722   -0.359184
      7          6           0        0.254087    1.103675    0.169503
      8          6           0        1.636030    1.109777    0.349790
      9          6           0        2.421464    0.002592    0.015400
     10          6           0        1.781017   -1.134052   -0.507153
     11          6           0        0.407351   -1.153856   -0.697243
     12          6           0        3.898455    0.043702    0.209049
     13          7           0        4.652388    1.078323    0.097171
     14          7           0        4.482319   -1.186511    0.492572
     15          1           0       -6.119781    0.287180    1.201803
     16          1           0       -5.792814   -1.467242    1.687231
     17          1           0       -3.849478   -1.537321    0.201820
     18          1           0       -4.036113    0.267992   -1.623847
     19          1           0       -4.641348    1.394063   -0.401941
     20          1           0       -2.268051    1.829705   -0.836042
     21          1           0       -2.445833    1.191091    0.819301
     22          1           0       -0.323867    1.976140    0.448804
     23          1           0        2.110248    1.987145    0.780518
     24          1           0        2.377360   -1.996144   -0.788395
     25          1           0       -0.092845   -2.022472   -1.113083
     26          1           0        4.108465    1.871259   -0.247569
     27          1           0        3.960075   -1.787530    1.118211
     28          1           0        5.461185   -1.097254    0.742001
 ---------------------------------------------------------------------

 SCF Done:  E(UB3LYP) =  -612.511086007     A.U. after   33 cycles
 SCF Done:  E(UB3LYP) =  -612.511086007     a.u. after    1 cycles

 The electronic state is 2-A.
 Alpha  occ. eigenvalues --  -19.05428 -14.21771 -14.16595 -10.13355 -10.13236
 Alpha  occ. eigenvalues --  -10.12924 -10.08346 -10.08144 -10.07811 -10.07569
 Alpha  occ. eigenvalues --  -10.07372 -10.07275 -10.07251 -10.07227  -0.97208
 Alpha  occ. eigenvalues --   -0.84242  -0.75697  -0.74225  -0.71340  -0.66242
 Alpha  occ. eigenvalues --   -0.65199  -0.62657  -0.55486  -0.52662  -0.50337
 Alpha  occ. eigenvalues --   -0.47467  -0.46359  -0.44754  -0.43052  -0.39187
 Alpha  occ. eigenvalues --   -0.38888  -0.37381  -0.36335  -0.34982  -0.34112
 Alpha  occ. eigenvalues --   -0.32901  -0.32599  -0.31153  -0.29658  -0.28837
 Alpha  occ. eigenvalues --   -0.27591  -0.26580  -0.26371  -0.25035  -0.23122
 Alpha  occ. eigenvalues --   -0.21852  -0.17351  -0.16450  -0.15985  -0.15002
 Alpha  occ. eigenvalues --   -0.12374   0.04430
 Alpha virt. eigenvalues --    0.06014   0.06671   0.07328   0.07955   0.08134
 Alpha virt. eigenvalues --    0.08359   0.08786   0.09489   0.09954   0.10553
 Alpha virt. eigenvalues --    0.10935   0.11511   0.12118   0.12367   0.13049

  Beta  occ. eigenvalues --  -19.05402 -14.21745 -14.16514 -10.13290 -10.13125
  Beta  occ. eigenvalues --  -10.12896 -10.08333 -10.08122 -10.07790 -10.07499
  Beta  occ. eigenvalues --  -10.07387 -10.07261 -10.07201 -10.07192  -0.97136
  Beta  occ. eigenvalues --   -0.84127  -0.75595  -0.74105  -0.71280  -0.66127
  Beta  occ. eigenvalues --   -0.65116  -0.62555  -0.55395  -0.52484  -0.50254
  Beta  occ. eigenvalues --   -0.47351  -0.46268  -0.44692  -0.42989  -0.39114
  Beta  occ. eigenvalues --   -0.38817  -0.37311  -0.36253  -0.34899  -0.34037
  Beta  occ. eigenvalues --   -0.32851  -0.32544  -0.31053  -0.29459  -0.28741
  Beta  occ. eigenvalues --   -0.27437  -0.26419  -0.26284  -0.24918  -0.23060
  Beta  occ. eigenvalues --   -0.21649  -0.17231  -0.16315  -0.15803  -0.14710
  Beta  occ. eigenvalues --   -0.11970
  Beta virt. eigenvalues --    0.06645   0.06989   0.07505   0.07838   0.08102
  Beta virt. eigenvalues --    0.08387   0.08568   0.09054   0.09735   0.10246
  Beta virt. eigenvalues --    0.10844   0.11216   0.11875   0.12316   0.12448

 Mulliken charges and spin densities:
               1          2
     1  C    0.525310  -1.130160
     2  C   -1.144364   1.566103
     3  C    1.186924  -1.857792
     4  C    0.398342  -0.579759
     5  O   -0.105982   0.049609
     6  C    0.303201  -0.708081
     7  C    0.355278  -0.246936
     8  C   -1.285051   0.897471
     9  C    1.585315  -0.326532
    10  C   -0.074013  -0.498240
    11  C   -0.831201   0.590685
    12  C   -0.216157  -0.258806
    13  N   -0.306053   0.022256
    14  N   -0.294268  -0.000240
    15  H   -0.248411   0.374271
    16  H    0.031337   0.072965
    17  H   -0.075465   0.247617
    18  H    0.064428   0.097759
    19  H   -0.616585   0.779176
    20  H   -0.297536   0.467564
    21  H    0.196002  -0.052684
    22  H   -0.506422   0.686244
    23  H   -0.101063   0.258610
    24  H    0.104068   0.063220
    25  H    0.041524   0.117952
    26  H    0.198624  -0.025040
    27  H   -0.064662   0.290743
    28  H    0.176878   0.102023
 Sum of Mulliken charges =  -1.00000   1.00000

 Dipole moment (field-independent basis, Debye):
    X=              1.1522    Y=             -3.5440    Z=             -0.5984  Tot=              3.7743
 Quadrupole moment (field-independent basis, Debye-Ang):
   XX=           -194.6049   YY=           -115.9576   ZZ=           -107.4145
   XY=              7.0908   XZ=             -3.5914   YZ=              1.7648

 Summary of Natural Population Analysis:

                                       Natural Population
                Natural  -----------------------------------------------
    Atom  No    Charge         Core      Valence    Rydberg      Total
 -----------------------------------------------------------------------
      C    1   -0.19078      0.99956     2.18476    0.00646     3.19078
      C    2   -0.08102      0.99956     2.07047    0.01098     3.08102
      C    3   -0.21708      0.99960     2.20565    0.01182     3.21708
      C    4   -0.00691      0.99956     1.99496    0.01239     3.00691
      O    5   -0.27759      0.99985     3.26835    0.00939     4.27759
      C    6    0.18446      0.99939     1.80417    0.01198     2.81554
      C    7   -0.14939      0.99952     2.14100    0.00887     3.14939
      C    8   -0.06681      0.99954     2.05747    0.00980     3.06681
      C    9   -0.06672      0.99946     2.05693    0.01033     3.06672
      C   10   -0.08441      0.99954     2.07508    0.00979     3.08441
      C   11   -0.12459      0.99953     2.11574    0.00931     3.12459
      C   12    0.22599      0.99962     1.75611    0.01828     2.77401
      N   13   -0.35831      0.99971     2.85095    0.00765     3.85831
      N   14   -0.40634      0.99971     2.89670    0.00993     3.90634
      H   15    0.09049      0.00000     0.40811    0.00140     0.40951
      H   16    0.09086      0.00000     0.40819    0.00095     0.40914
      H   17    0.09632      0.00000     0.40232    0.00136     0.40368
      H   18    0.10493      0.00000     0.39361    0.00146     0.39507
      H   19    0.10566      0.00000     0.39197    0.00238     0.39434
      H   20    0.09113      0.00000     0.40612    0.00275     0.40887
      H   21    0.08469      0.00000     0.41360    0.00172     0.41531
      H   22    0.10743      0.00000     0.39111    0.00145     0.39257
      H   23    0.10176      0.00000     0.39710    0.00114     0.39824
      H   24    0.10454      0.00000     0.39440    0.00106     0.39546
      H   25    0.10407      0.00000     0.39489    0.00104     0.39593
      H   26    0.16244      0.00000     0.33542    0.00214     0.33756
      H   27    0.18743      0.00000     0.30982    0.00275     0.31257
      H   28    0.18775      0.00000     0.31033    0.00192     0.31225
 =======================================================================
   * Total *    0.00000     13.99417    36.83533    0.17050    51.00000

 Normal termination of Gaussian 16 at Thu Dec 10 10:59:58 2020.
