 Gaussian 16, Revision A.03,

 -----------------------------------------------------------
 # opt freq B3LYP/6-31G(d) empiricaldispersion=gd3bj scf=xqc
 -----------------------------------------------------------

 ------------------------------
 CID_15021928_JID_6548_neutraal
 ------------------------------
 Symbolic Z-matrix:
 Charge =  0 Multiplicity = 1

 SCF Done:  E(RB3LYP) =  -696.050085978     A.U. after   13 cycles
 SCF Done:  E(RB3LYP) =  -696.055166091     A.U. after   12 cycles
 SCF Done:  E(RB3LYP) =  -696.055695902     A.U. after   11 cycles
 SCF Done:  E(RB3LYP) =  -696.055783877     A.U. after   11 cycles
 SCF Done:  E(RB3LYP) =  -696.055798593     A.U. after   10 cycles
 SCF Done:  E(RB3LYP) =  -696.055805093     A.U. after   10 cycles
 SCF Done:  E(RB3LYP) =  -696.055806290     A.U. after    8 cycles
 SCF Done:  E(RB3LYP) =  -696.055806864     A.U. after    7 cycles
 SCF Done:  E(RB3LYP) =  -696.055807460     A.U. after    8 cycles
 SCF Done:  E(RB3LYP) =  -696.055807772     A.U. after    8 cycles
 SCF Done:  E(RB3LYP) =  -696.055807965     A.U. after    8 cycles
 SCF Done:  E(RB3LYP) =  -696.055808072     A.U. after    7 cycles
 SCF Done:  E(RB3LYP) =  -696.055808105     A.U. after    7 cycles
 Optimization completed.
    -- Stationary point found.
 Normal termination of Gaussian 16 at Thu Dec 10 23:30:27 2020.

 --------------------------------------------------------------------
 #N Geom=AllCheck Guess=TCheck SCRF=Check GenChk RB3LYP/6-31G(d) Freq
 --------------------------------------------------------------------

 Structure from the checkpoint file:  "JID_6548.chk"
 ------------------------------
 CID_15021928_JID_6548_neutraal
 ------------------------------
 Charge =  0 Multiplicity = 1

 SCF Done:  E(RB3LYP) =  -696.055808105     A.U. after    1 cycles

  Exact polarizability: 208.608   2.806 122.188   3.091 -15.704 124.149
 Approx polarizability: 263.620   9.162 187.366   5.511 -43.003 207.761

                      1                      2                      3
                      A                      A                      A
 Frequencies --     24.3397                46.2580                59.6513
 Red. masses --      3.6547                 3.5872                 2.9004
 Frc consts  --      0.0013                 0.0045                 0.0061
 IR Inten    --      0.1913                 0.5479                 0.2092

                      4                      5                      6
                      A                      A                      A
 Frequencies --     79.7468               145.9979               159.4956
 Red. masses --      2.9827                 3.6438                 3.0939
 Frc consts  --      0.0112                 0.0458                 0.0464
 IR Inten    --      0.2023                 5.5326                13.9810

                      7                      8                      9
                      A                      A                      A
 Frequencies --    180.3830               211.4820               225.7982
 Red. masses --      1.1900                 2.3759                 1.2994
 Frc consts  --      0.0228                 0.0626                 0.0390
 IR Inten    --     92.4753                11.5709                 0.2404

                     10                     11                     12
                      A                      A                      A
 Frequencies --    233.1625               240.0711               256.6869
 Red. masses --      1.1396                 1.1035                 3.5425
 Frc consts  --      0.0365                 0.0375                 0.1375
 IR Inten    --      0.7204                 0.7054                17.4713

                     13                     14                     15
                      A                      A                      A
 Frequencies --    271.6296               283.4597               306.9490
 Red. masses --      1.1845                 3.2916                 1.9415
 Frc consts  --      0.0515                 0.1558                 0.1078
 IR Inten    --      1.3287                 2.7493                 1.9742

                     16                     17                     18
                      A                      A                      A
 Frequencies --    328.2013               350.3693               352.3049
 Red. masses --      2.6431                 3.6769                 2.3150
 Frc consts  --      0.1677                 0.2659                 0.1693
 IR Inten    --      0.6467                 6.4313                 1.2031

                     19                     20                     21
                      A                      A                      A
 Frequencies --    404.6495               407.4909               453.6662
 Red. masses --      2.8213                 2.4113                 2.9101
 Frc consts  --      0.2722                 0.2359                 0.3529
 IR Inten    --      0.9772                 2.1666                 5.3110

                     22                     23                     24
                      A                      A                      A
 Frequencies --    471.6666               487.9579               503.3467
 Red. masses --      3.3450                 2.8855                 3.8330
 Frc consts  --      0.4384                 0.4048                 0.5722
 IR Inten    --      0.6370                 0.8684                 3.7886

                     25                     26                     27
                      A                      A                      A
 Frequencies --    539.0932               640.5009               665.2271
 Red. masses --      4.2295                 4.8587                 5.1530
 Frc consts  --      0.7242                 1.1744                 1.3435
 IR Inten    --      0.3366                 0.2661                 9.5450

                     28                     29                     30
                      A                      A                      A
 Frequencies --    670.5984               726.5558               784.4453
 Red. masses --      6.0910                 3.1269                 3.4327
 Frc consts  --      1.6138                 0.9725                 1.2445
 IR Inten    --      3.8363                 2.1533                 6.0155

                     31                     32                     33
                      A                      A                      A
 Frequencies --    792.6459               815.9231               822.0789
 Red. masses --      4.6474                 1.5683                 3.7180
 Frc consts  --      1.7204                 0.6151                 1.4804
 IR Inten    --     16.7913                21.9767                 2.0168

                     34                     35                     36
                      A                      A                      A
 Frequencies --    862.4250               881.8205               891.9529
 Red. masses --      2.0938                 1.6909                 2.6967
 Frc consts  --      0.9175                 0.7747                 1.2641
 IR Inten    --     21.0723                13.1161                23.9590

                     37                     38                     39
                      A                      A                      A
 Frequencies --    927.2521               931.4419               937.6757
 Red. masses --      1.5700                 2.2105                 1.4990
 Frc consts  --      0.7953                 1.1299                 0.7765
 IR Inten    --      7.7864                51.7265                 0.3428

                     40                     41                     42
                      A                      A                      A
 Frequencies --    946.0599               965.3667               977.2018
 Red. masses --      1.2437                 1.3990                 1.5301
 Frc consts  --      0.6559                 0.7682                 0.8609
 IR Inten    --     18.0088                 2.7738                 3.6922

                     43                     44                     45
                      A                      A                      A
 Frequencies --    991.7582               997.6499              1041.6688
 Red. masses --      1.9556                 1.9277                 1.3807
 Frc consts  --      1.1333                 1.1305                 0.8827
 IR Inten    --      9.9173                27.6462                 0.2199

                     46                     47                     48
                      A                      A                      A
 Frequencies --   1054.6877              1122.5209              1140.6563
 Red. masses --      4.4825                 2.0708                 2.1562
 Frc consts  --      2.9378                 1.5373                 1.6529
 IR Inten    --    102.8050                31.5095                 1.9165

                     49                     50                     51
                      A                      A                      A
 Frequencies --   1145.1068              1156.8248              1177.4484
 Red. masses --      1.5080                 1.6502                 1.6532
 Frc consts  --      1.1650                 1.3012                 1.3504
 IR Inten    --      4.8982                 2.8703                19.7685

                     52                     53                     54
                      A                      A                      A
 Frequencies --   1195.9865              1207.9292              1221.6500
 Red. masses --      1.8930                 1.6820                 1.8317
 Frc consts  --      1.5953                 1.4460                 1.6106
 IR Inten    --     41.5873                 1.5653                16.9651

                     55                     56                     57
                      A                      A                      A
 Frequencies --   1260.7730              1262.5123              1285.3060
 Red. masses --      1.7553                 1.9312                 2.0515
 Frc consts  --      1.6439                 1.8137                 1.9968
 IR Inten    --     61.0532                 0.3185                21.1017

                     58                     59                     60
                      A                      A                      A
 Frequencies --   1303.5786              1315.0667              1323.6738
 Red. masses --      1.9090                 1.7806                 3.3799
 Frc consts  --      1.9113                 1.8143                 3.4892
 IR Inten    --      9.9597                 7.8927               130.9319

                     61                     62                     63
                      A                      A                      A
 Frequencies --   1345.2071              1359.2649              1392.8237
 Red. masses --      1.6431                 1.4108                 3.7702
 Frc consts  --      1.7518                 1.5358                 4.3093
 IR Inten    --     21.4307                 4.2125                11.5282

                     64                     65                     66
                      A                      A                      A
 Frequencies --   1406.6457              1424.6198              1430.4638
 Red. masses --      1.3651                 1.2473                 1.3186
 Frc consts  --      1.5914                 1.4915                 1.5897
 IR Inten    --      0.5171                12.0278                17.9292

                     67                     68                     69
                      A                      A                      A
 Frequencies --   1435.3896              1445.8275              1446.9519
 Red. masses --      1.3223                 1.2595                 1.2305
 Frc consts  --      1.6052                 1.5513                 1.5179
 IR Inten    --     38.9250                 6.5023                16.9701

                     70                     71                     72
                      A                      A                      A
 Frequencies --   1491.1053              1507.6787              1514.6776
 Red. masses --      3.1555                 1.0568                 1.0587
 Frc consts  --      4.1336                 1.4153                 1.4311
 IR Inten    --    111.6199                 0.4999                 1.7994

                     73                     74                     75
                      A                      A                      A
 Frequencies --   1518.5876              1519.8461              1522.1803
 Red. masses --      1.0857                 1.0516                 1.0464
 Frc consts  --      1.4751                 1.4313                 1.4284
 IR Inten    --      2.8173                 1.3086                 0.7688

                     76                     77                     78
                      A                      A                      A
 Frequencies --   1526.6809              1532.8844              1536.8623
 Red. masses --      1.0723                 1.0481                 1.0674
 Frc consts  --      1.4726                 1.4510                 1.4854
 IR Inten    --      2.4190                 4.3712                 4.1299

                     79                     80                     81
                      A                      A                      A
 Frequencies --   1543.8720              1548.9964              1646.3371
 Red. masses --      1.0522                 2.8280                 6.9784
 Frc consts  --      1.4776                 3.9980                11.1440
 IR Inten    --      9.2034                51.1292                35.0179

                     82                     83                     84
                      A                      A                      A
 Frequencies --   1676.0375              3010.0382              3039.8737
 Red. masses --      7.0615                 1.0819                 1.0651
 Frc consts  --     11.6873                 5.7754                 5.7988
 IR Inten    --     41.7009                14.7827                31.7417

                     85                     86                     87
                      A                      A                      A
 Frequencies --   3040.7990              3045.0222              3053.3017
 Red. masses --      1.0391                 1.0421                 1.0349
 Frc consts  --      5.6608                 5.6927                 5.6845
 IR Inten    --     18.3346                27.9818                14.0858

                     88                     89                     90
                      A                      A                      A
 Frequencies --   3059.5585              3059.7677              3089.1617
 Red. masses --      1.0608                 1.0575                 1.0982
 Frc consts  --      5.8505                 5.8334                 6.1748
 IR Inten    --     41.5549                25.9680                18.1439

                     91                     92                     93
                      A                      A                      A
 Frequencies --   3101.0981              3107.8233              3123.6354
 Red. masses --      1.1002                 1.0994                 1.1025
 Frc consts  --      6.2336                 6.2562                 6.3378
 IR Inten    --      4.5323                68.4472                14.1842

                     94                     95                     96
                      A                      A                      A
 Frequencies --   3129.3027              3130.3297              3135.3619
 Red. masses --      1.1026                 1.1010                 1.1036
 Frc consts  --      6.3613                 6.3566                 6.3922
 IR Inten    --     29.0577                35.4564                14.2311

                     97                     98                     99
                      A                      A                      A
 Frequencies --   3138.1866              3145.8523              3174.0074
 Red. masses --      1.1029                 1.0992                 1.0865
 Frc consts  --      6.3995                 6.4092                 6.4492
 IR Inten    --     34.4791                17.2631                11.6773

                    100                    101                    102
                      A                      A                      A
 Frequencies --   3193.7899              3211.8830              3739.7727
 Red. masses --      1.0940                 1.0911                 1.0659
 Frc consts  --      6.5746                 6.6321                 8.7836
 IR Inten    --     22.5110                 4.3981                 9.7771

 - Thermochemistry -
 -------------------
 Temperature   298.150 Kelvin.  Pressure   1.00000 Atm.
 Atom     1 has atomic number  6 and mass  12.00000

 Molecular mass:   220.14633 amu.
 Principal axes and moments of inertia in atomic units:
                           1         2         3
     Eigenvalues --  1361.325837346.085237529.52215
           X            0.99997  -0.00680  -0.00248
           Y            0.00680   0.99997  -0.00243
           Z            0.00250   0.00241   0.99999
 This molecule is an asymmetric top.
 Rotational symmetry number  1.
 Warning -- assumption of classical behavior for rotation
           may cause significant error
 Rotational temperatures (Kelvin)      0.06362     0.01179     0.01150
 Rotational constants (GHZ):           1.32572     0.24567     0.23969
 Zero-point vibrational energy     825239.9 (Joules/Mol)
                                  197.23706 (Kcal/Mol)
 Warning -- explicit consideration of  25 degrees of freedom as
           vibrations may cause significant error
 Vibrational temperatures:     35.02    66.55    85.82   114.74   210.06
          (Kelvin)            229.48   259.53   304.28   324.87   335.47
                              345.41   369.32   390.81   407.84   441.63
                              472.21   504.10   506.89   582.20   586.29
                              652.72   678.62   702.06   724.20   775.63
                              921.54   957.11   964.84  1045.35  1128.64
                             1140.44  1173.93  1182.79  1240.84  1268.74
                             1283.32  1334.11  1340.14  1349.11  1361.17
                             1388.95  1405.98  1426.92  1435.40  1498.73
                             1517.46  1615.06  1641.15  1647.55  1664.41
                             1694.09  1720.76  1737.94  1757.68  1813.97
                             1816.47  1849.27  1875.56  1892.09  1904.47
                             1935.45  1955.68  2003.96  2023.85  2049.71
                             2058.12  2065.21  2080.22  2081.84  2145.37
                             2169.21  2179.28  2184.91  2186.72  2190.08
                             2196.55  2205.48  2211.20  2221.29  2228.66
                             2368.71  2411.44  4330.77  4373.70  4375.03
                             4381.11  4393.02  4402.02  4402.32  4444.61
                             4461.79  4471.46  4494.21  4502.37  4503.85
                             4511.09  4515.15  4526.18  4566.69  4595.15
                             4621.18  5380.70

 Zero-point correction=                           0.314317 (Hartree/Particle)
 Thermal correction to Energy=                    0.330801
 Thermal correction to Enthalpy=                  0.331745
 Thermal correction to Gibbs Free Energy=         0.270406
 Sum of electronic and zero-point Energies=           -695.741491
 Sum of electronic and thermal Energies=              -695.725007
 Sum of electronic and thermal Enthalpies=            -695.724063
 Sum of electronic and thermal Free Energies=         -695.785402

                     E (Thermal)             CV                S
                      KCal/Mol        Cal/Mol-Kelvin    Cal/Mol-Kelvin
 Total                  207.581             63.817            129.100
 Electronic               0.000              0.000              0.000
 Translational            0.889              2.981             42.070
 Rotational               0.889              2.981             32.687
 Vibrational            205.803             57.856             54.342
 Vibration     1          0.593              1.985              6.244
 Vibration     2          0.595              1.979              4.971
 Vibration     3          0.597              1.974              4.469
 Vibration     4          0.600              1.963              3.897
 Vibration     5          0.617              1.907              2.724
 Vibration     6          0.621              1.892              2.556
 Vibration     7          0.629              1.866              2.324
 Vibration     8          0.643              1.823              2.031
 Vibration     9          0.650              1.802              1.912
 Vibration    10          0.654              1.790              1.854
 Vibration    11          0.657              1.779              1.802
 Vibration    12          0.666              1.751              1.684
 Vibration    13          0.675              1.726              1.586
 Vibration    14          0.682              1.704              1.513
 Vibration    15          0.697              1.661              1.379
 Vibration    16          0.711              1.619              1.269
 Vibration    17          0.727              1.574              1.165
 Vibration    18          0.729              1.571              1.156
 Vibration    19          0.770              1.460              0.946
 Vibration    20          0.772              1.454              0.936
 Vibration    21          0.812              1.353              0.785
 Vibration    22          0.829              1.313              0.733
 Vibration    23          0.844              1.277              0.689
 Vibration    24          0.859              1.243              0.650
 Vibration    25          0.894              1.164              0.567

                           ! Non-Optimized Parameters !
 Normal termination of Gaussian 16 at Thu Dec 10 23:41:37 2020.

 ----------------------------------------------------------------------
 # B3LYP/6-311++G(d,p) empiricaldispersion=gd3bj scf=xqc pop=npa geom=c
 heck
 ----------------------------------------------------------------------

 --------------------------------------
 CID_15021928_JID_6548_Energie_neutraal
 --------------------------------------
 Structure from the checkpoint file:  "JID_6548.chk"
 Charge =  0 Multiplicity = 1

 SCF Done:  E(RB3LYP) =  -696.252687242     A.U. after   15 cycles
 Normal termination of Gaussian 16 at Thu Dec 10 23:46:46 2020.

 ----------------------------------------------------------------------
 # B3LYP/6-311++G(d,p) empiricaldispersion=gd3bj scf=xqc pop=npa geom=c
 heck
 ----------------------------------------------------------------------

 ------------------------------------
 CID_15021928_JID_6548_Energie_kation
 ------------------------------------
 Structure from the checkpoint file:  "JID_6548.chk"
 Charge =  1 Multiplicity = 2

 SCF Done:  E(UB3LYP) =  -695.966572547     A.U. after   25 cycles
 Normal termination of Gaussian 16 at Thu Dec 10 23:58:19 2020.
 Gaussian 16:  ES64L-G16RevA.03 25-Dec-2016

 ----------------------------------------------------------------------
 # B3LYP/6-311++G(d,p) empiricaldispersion=gd3bj scf=xqc pop=npa geom=c
 heck
 ----------------------------------------------------------------------

 -----------------------------------
 CID_15021928_JID_6548_Energie_anion
 -----------------------------------
 Structure from the checkpoint file:  "JID_6548.chk"
 Charge = -1 Multiplicity = 2

                         Standard orientation:
 ---------------------------------------------------------------------
 Center     Atomic      Atomic             Coordinates (Angstroms)
 Number     Number       Type             X           Y           Z
 ---------------------------------------------------------------------
      1          6           0       -2.973996    1.777227    0.893816
      2          6           0       -3.527068    0.437948    0.392261
      3          6           0       -4.949529    0.594284   -0.154810
      4          6           0       -2.602650   -0.178210   -0.680103
      5          6           0       -1.173609   -0.369894   -0.204467
      6          6           0       -0.117763    0.243621   -0.889800
      7          6           0        1.178023    0.028245   -0.434943
      8          6           0        1.453892   -0.779734    0.670700
      9          6           0        2.949541   -0.829056    0.848993
     10          6           0        3.437633    0.288177   -0.120926
     11          8           0        2.292104    0.561186   -1.006188
     12          6           0        3.732050    1.587418    0.626145
     13          6           0        4.592281   -0.142873   -1.012310
     14          6           0        0.407639   -1.387611    1.350810
     15          6           0       -0.904379   -1.175253    0.913442
     16          8           0       -3.139133   -1.405918   -1.192215
     17          1           0       -2.879950    2.491511    0.065447
     18          1           0       -1.986613    1.663163    1.350993
     19          1           0       -3.646927    2.219640    1.636743
     20          1           0       -3.560282   -0.261557    1.241533
     21          1           0       -4.967861    1.319218   -0.979200
     22          1           0       -5.327180   -0.357382   -0.536450
     23          1           0       -5.629408    0.958449    0.623858
     24          1           0       -2.595824    0.498598   -1.543190
     25          1           0       -0.301886    0.872319   -1.754926
     26          1           0        3.354691   -1.808281    0.561189
     27          1           0        3.273793   -0.631969    1.876571
     28          1           0        3.937845    2.395959   -0.081793
     29          1           0        2.872187    1.875268    1.240312
     30          1           0        4.601122    1.465553    1.282408
     31          1           0        4.323392   -1.041015   -1.576839
     32          1           0        4.847897    0.649397   -1.722988
     33          1           0        5.478020   -0.363526   -0.406425
     34          1           0        0.600313   -2.017071    2.215784
     35          1           0       -1.724449   -1.632629    1.461512
     36          1           0       -2.905037   -2.103533   -0.560165
 ---------------------------------------------------------------------

 SCF Done:  E(UB3LYP) =  -696.239688266     A.U. after   33 cycles
 SCF Done:  E(UB3LYP) =  -696.239688266     a.u. after    1 cycles

 The electronic state is 2-A.
 Alpha  occ. eigenvalues --  -19.05214 -19.03256 -10.14679 -10.13495 -10.13358
 Alpha  occ. eigenvalues --  -10.09068 -10.08681 -10.08428 -10.08412 -10.08283
 Alpha  occ. eigenvalues --  -10.07992 -10.07715 -10.07073 -10.07054 -10.06983
 Alpha  occ. eigenvalues --  -10.06707  -0.97513  -0.93473  -0.76622  -0.72168
 Alpha  occ. eigenvalues --   -0.71633  -0.67821  -0.64873  -0.61293  -0.60411
 Alpha  occ. eigenvalues --   -0.59644  -0.56576  -0.52142  -0.50858  -0.48779
 Alpha  occ. eigenvalues --   -0.46935  -0.42267  -0.40073  -0.39525  -0.39152
 Alpha  occ. eigenvalues --   -0.37882  -0.36071  -0.35166  -0.34542  -0.34358
 Alpha  occ. eigenvalues --   -0.32608  -0.32308  -0.31289  -0.30750  -0.29840
 Alpha  occ. eigenvalues --   -0.29484  -0.28635  -0.28055  -0.27667  -0.27243
 Alpha  occ. eigenvalues --   -0.26676  -0.26182  -0.25328  -0.24690  -0.23936
 Alpha  occ. eigenvalues --   -0.23043  -0.21816  -0.18553  -0.15867  -0.12450
 Alpha  occ. eigenvalues --    0.04176
 Alpha virt. eigenvalues --    0.05732   0.06703   0.07128   0.07748   0.08079
 Alpha virt. eigenvalues --    0.08270   0.08482   0.08868   0.09509   0.09661
 Alpha virt. eigenvalues --    0.10461   0.10810   0.10931   0.11309   0.11948

  Beta  occ. eigenvalues --  -19.05206 -19.03243 -10.14676 -10.13494 -10.13355
  Beta  occ. eigenvalues --  -10.09067 -10.08672 -10.08400 -10.08392 -10.08278
  Beta  occ. eigenvalues --  -10.07984 -10.07701 -10.07061 -10.07022 -10.06970
  Beta  occ. eigenvalues --  -10.06671  -0.97501  -0.93445  -0.76602  -0.72144
  Beta  occ. eigenvalues --   -0.71613  -0.67798  -0.64841  -0.61260  -0.60349
  Beta  occ. eigenvalues --   -0.59618  -0.56540  -0.52104  -0.50815  -0.48741
  Beta  occ. eigenvalues --   -0.46903  -0.42230  -0.40044  -0.39497  -0.39124
  Beta  occ. eigenvalues --   -0.37841  -0.36050  -0.35137  -0.34508  -0.34326
  Beta  occ. eigenvalues --   -0.32583  -0.32274  -0.31260  -0.30717  -0.29825
  Beta  occ. eigenvalues --   -0.29449  -0.28605  -0.28021  -0.27637  -0.27214
  Beta  occ. eigenvalues --   -0.26653  -0.26157  -0.25301  -0.24664  -0.23910
  Beta  occ. eigenvalues --   -0.23021  -0.21792  -0.18540  -0.15824  -0.12424
  Beta virt. eigenvalues --    0.06105   0.06663   0.07245   0.07315   0.08085
  Beta virt. eigenvalues --    0.08258   0.08781   0.08859   0.08996   0.09909
  Beta virt. eigenvalues --    0.10187   0.10549   0.11054   0.11353   0.11528

 Mulliken charges and spin densities:
               1          2
     1  C   -0.228559  -0.481380
     2  C   -0.337990   0.979903
     3  C   -0.006151  -0.655990
     4  C    0.893340  -1.749458
     5  C    0.921358   0.013251
     6  C   -1.824031   1.034679
     7  C   -0.290667  -0.774249
     8  C    0.549968   0.595013
     9  C    1.857347  -2.362393
    10  C   -2.281787   2.778311
    11  O    0.028303  -0.000470
    12  C    1.174957  -1.712221
    13  C    0.384238  -0.877763
    14  C    0.002442  -0.296710
    15  C    0.214732  -0.642433
    16  O   -0.159828  -0.005392
    17  H    0.015160   0.122801
    18  H    0.207131  -0.057324
    19  H    0.025553   0.105263
    20  H   -0.119795   0.289180
    21  H    0.080581   0.028472
    22  H    0.007856   0.157431
    23  H   -0.062429   0.198628
    24  H    0.255366  -0.048820
    25  H    0.023573   0.129694
    26  H   -0.046299   0.232021
    27  H   -0.339417   0.540499
    28  H    0.009467   0.140330
    29  H   -0.158721   0.309306
    30  H   -0.367619   0.528923
    31  H   -0.099692   0.255865
    32  H   -0.093912   0.241909
    33  H   -0.288661   0.453506
    34  H   -0.635528   0.824990
    35  H   -0.456707   0.608967
    36  H    0.146421   0.095661
 Sum of Mulliken charges =  -1.00000   1.00000

 Dipole moment (field-independent basis, Debye):
    X=             -4.5351    Y=              1.6322    Z=             -3.4949  Tot=              5.9537
 Quadrupole moment (field-independent basis, Debye-Ang):
   XX=           -203.7217   YY=           -134.0964   ZZ=           -140.8453
   XY=             -5.7652   XZ=             -5.8973   YZ=              0.1930

 Summary of Natural Population Analysis:

                                       Natural Population
                Natural  -----------------------------------------------
    Atom  No    Charge         Core      Valence    Rydberg      Total
 -----------------------------------------------------------------------
      C    1   -0.28588      0.99965     2.28136    0.00487     3.28588
      C    2   -0.12227      0.99960     2.11164    0.01104     3.12227
      C    3   -0.28438      0.99965     2.27974    0.00499     3.28438
      C    4    0.06137      0.99948     1.92372    0.01544     2.93863
      C    5   -0.02099      0.99950     2.01036    0.01113     3.02099
      C    6   -0.12130      0.99946     2.11382    0.00802     3.12130
      C    7    0.16691      0.99933     1.81936    0.01440     2.83309
      C    8   -0.04260      0.99947     2.03290    0.01024     3.04260
      C    9   -0.20385      0.99956     2.19448    0.00981     3.20385
      C   10    0.13691      0.99955     1.84823    0.01532     2.86309
      O   11   -0.28335      0.99986     3.27465    0.00884     4.28335
      C   12   -0.29460      0.99959     2.28801    0.00699     3.29460
      C   13   -0.29112      0.99959     2.28451    0.00702     3.29112
      C   14   -0.08361      0.99952     2.07399    0.01011     3.08361
      C   15   -0.12171      0.99951     2.11162    0.01058     3.12171
      O   16   -0.37054      0.99990     3.36456    0.00609     4.37054
      H   17    0.09442      0.00000     0.40465    0.00093     0.40558
      H   18    0.10771      0.00000     0.39130    0.00099     0.39229
      H   19    0.09869      0.00000     0.40044    0.00087     0.40131
      H   20    0.09497      0.00000     0.40273    0.00230     0.40503
      H   21    0.09303      0.00000     0.40608    0.00089     0.40697
      H   22    0.10779      0.00000     0.39114    0.00107     0.39221
      H   23    0.09714      0.00000     0.40197    0.00089     0.40286
      H   24    0.08540      0.00000     0.41284    0.00175     0.41460
      H   25    0.10431      0.00000     0.39438    0.00132     0.39569
      H   26    0.10661      0.00000     0.39205    0.00134     0.39339
      H   27    0.11305      0.00000     0.38456    0.00239     0.38695
      H   28    0.10275      0.00000     0.39624    0.00101     0.39725
      H   29    0.10438      0.00000     0.39431    0.00131     0.39562
      H   30    0.10530      0.00000     0.39296    0.00173     0.39470
      H   31    0.10322      0.00000     0.39570    0.00107     0.39678
      H   32    0.10309      0.00000     0.39588    0.00103     0.39691
      H   33    0.10582      0.00000     0.39270    0.00148     0.39418
      H   34    0.10343      0.00000     0.39470    0.00187     0.39657
      H   35    0.10058      0.00000     0.39756    0.00186     0.39942
      H   36    0.22931      0.00000     0.26783    0.00286     0.27069
 =======================================================================
   * Total *   -0.00000     15.99321    43.82296    0.18382    60.00000

 Normal termination of Gaussian 16 at Fri Dec 11 00:13:46 2020.
