 Gaussian 16, Revision A.03,

 -----------------------------------------------------------
 # opt freq B3LYP/6-31G(d) empiricaldispersion=gd3bj scf=xqc
 -----------------------------------------------------------

 -------------------------------
 CID_123912772_JID_7238_neutraal
 -------------------------------
 Symbolic Z-matrix:
 Charge =  0 Multiplicity = 1

 SCF Done:  E(RB3LYP) =  -893.722529812     A.U. after   15 cycles
 SCF Done:  E(RB3LYP) =  -893.709490788     A.U. after   15 cycles
 SCF Done:  E(RB3LYP) =  -893.726188606     A.U. after   13 cycles
 SCF Done:  E(RB3LYP) =  -893.729119188     A.U. after   15 cycles
 SCF Done:  E(RB3LYP) =  -893.728910425     A.U. after   14 cycles
 SCF Done:  E(RB3LYP) =  -893.730933383     A.U. after   13 cycles
 SCF Done:  E(RB3LYP) =  -893.731810023     A.U. after   12 cycles
 SCF Done:  E(RB3LYP) =  -893.732163291     A.U. after   12 cycles
 SCF Done:  E(RB3LYP) =  -893.732275742     A.U. after   12 cycles
 SCF Done:  E(RB3LYP) =  -893.732399563     A.U. after   11 cycles
 SCF Done:  E(RB3LYP) =  -893.740801388     A.U. after    9 cycles
 SCF Done:  E(RB3LYP) =  -893.740801673     A.U. after    8 cycles
 SCF Done:  E(RB3LYP) =  -893.740802051     A.U. after    8 cycles
 SCF Done:  E(RB3LYP) =  -893.740802359     A.U. after    8 cycles
 SCF Done:  E(RB3LYP) =  -893.740802485     A.U. after    8 cycles
 SCF Done:  E(RB3LYP) =  -893.740802522     A.U. after    7 cycles
 Optimization completed.
    -- Stationary point found.
 Normal termination of Gaussian 16 at Sun Dec 13 20:41:20 2020.

 --------------------------------------------------------------------
 #N Geom=AllCheck Guess=TCheck SCRF=Check GenChk RB3LYP/6-31G(d) Freq
 --------------------------------------------------------------------

 Structure from the checkpoint file:  "JID_7238.chk"
 -------------------------------
 CID_123912772_JID_7238_neutraal
 -------------------------------
 Charge =  0 Multiplicity = 1

 SCF Done:  E(RB3LYP) =  -893.740802522     A.U. after    1 cycles

  Exact polarizability: 171.876  22.181 132.104  -5.656   8.939  81.204
 Approx polarizability: 240.570  34.220 203.954  -6.897  24.528 129.478

                      1                      2                      3
                      A                      A                      A
 Frequencies --     21.8616                45.7497                55.9716
 Red. masses --      7.6021                 8.4188                 4.0650
 Frc consts  --      0.0021                 0.0104                 0.0075
 IR Inten    --      0.0655                 1.3672                 0.5118

                      4                      5                      6
                      A                      A                      A
 Frequencies --     70.0873                84.3070               109.5122
 Red. masses --      5.0408                 8.4033                 8.7559
 Frc consts  --      0.0146                 0.0352                 0.0619
 IR Inten    --      4.9061                 0.0685                 1.8253

                      7                      8                      9
                      A                      A                      A
 Frequencies --    129.1492               168.2321               199.8257
 Red. masses --      6.4836                 7.3133                 5.3109
 Frc consts  --      0.0637                 0.1220                 0.1249
 IR Inten    --      0.5858                 0.4581                 4.5411

                     10                     11                     12
                      A                      A                      A
 Frequencies --    214.8181               256.6365               268.3419
 Red. masses --      4.0440                 6.7870                 4.9740
 Frc consts  --      0.1100                 0.2634                 0.2110
 IR Inten    --      1.3143                 0.3806                 0.3293

                     13                     14                     15
                      A                      A                      A
 Frequencies --    289.1897               344.9858               364.7503
 Red. masses --      5.6923                 5.2168                 5.5805
 Frc consts  --      0.2805                 0.3658                 0.4374
 IR Inten    --      7.7164                12.8468                 2.7290

                     16                     17                     18
                      A                      A                      A
 Frequencies --    380.1019               413.8483               450.5405
 Red. masses --      3.0534                 3.7085                 3.6344
 Frc consts  --      0.2599                 0.3742                 0.4347
 IR Inten    --      3.6815                11.4108                 4.7414

                     19                     20                     21
                      A                      A                      A
 Frequencies --    468.4616               521.6744               534.4836
 Red. masses --      1.1436                 2.5626                 2.1892
 Frc consts  --      0.1479                 0.4109                 0.3685
 IR Inten    --     67.2471                21.7932                48.2763

                     22                     23                     24
                      A                      A                      A
 Frequencies --    558.8286               574.6420               590.4834
 Red. masses --      3.6105                 2.7686                 1.6404
 Frc consts  --      0.6643                 0.5386                 0.3370
 IR Inten    --     12.2472                52.0412                52.7697

                     25                     26                     27
                      A                      A                      A
 Frequencies --    600.9214               618.9034               639.2958
 Red. masses --      3.4481                 3.6239                 4.5028
 Frc consts  --      0.7336                 0.8179                 1.0843
 IR Inten    --     22.2322                21.0289                22.4006

                     28                     29                     30
                      A                      A                      A
 Frequencies --    658.0762               701.1941               721.5916
 Red. masses --      3.6196                 1.3901                 1.7842
 Frc consts  --      0.9236                 0.4027                 0.5474
 IR Inten    --    103.8127                75.1734                44.3714

                     31                     32                     33
                      A                      A                      A
 Frequencies --    729.4439               762.4142               783.6224
 Red. masses --      6.3139                 1.2827                 2.7520
 Frc consts  --      1.9794                 0.4393                 0.9956
 IR Inten    --     13.8217                50.7992                27.5332

                     34                     35                     36
                      A                      A                      A
 Frequencies --    793.1623               820.2937               829.5319
 Red. masses --      1.6581                 3.3711                 2.9475
 Frc consts  --      0.6146                 1.3365                 1.1950
 IR Inten    --      4.7415                 1.4894                29.7609

                     37                     38                     39
                      A                      A                      A
 Frequencies --    861.8203               933.2491               968.7247
 Red. masses --      3.8978                 3.1365                 1.8104
 Frc consts  --      1.7057                 1.6095                 1.0010
 IR Inten    --      9.4706                 2.2110                25.1616

                     40                     41                     42
                      A                      A                      A
 Frequencies --    993.5242              1017.4416              1027.5027
 Red. masses --      1.4759                 1.4144                 1.9613
 Frc consts  --      0.8584                 0.8627                 1.2200
 IR Inten    --     14.2657                11.1625                 7.0512

                     43                     44                     45
                      A                      A                      A
 Frequencies --   1048.7925              1053.6641              1144.3760
 Red. masses --      4.0005                 2.7838                 7.7857
 Frc consts  --      2.5926                 1.8209                 6.0073
 IR Inten    --     11.0706                23.2823                 6.3510

                     46                     47                     48
                      A                      A                      A
 Frequencies --   1171.7727              1198.5998              1226.4080
 Red. masses --      2.2330                 2.9581                 1.5122
 Frc consts  --      1.8064                 2.5039                 1.3400
 IR Inten    --    229.4793               189.4764                42.3192

                     49                     50                     51
                      A                      A                      A
 Frequencies --   1233.3847              1258.9596              1262.5022
 Red. masses --      1.4213                 1.5120                 2.9186
 Frc consts  --      1.2739                 1.4120                 2.7409
 IR Inten    --    130.2103                83.6884                 2.9772

                     52                     53                     54
                      A                      A                      A
 Frequencies --   1295.1744              1326.4950              1340.9837
 Red. masses --      2.1393                 2.3680                 1.6283
 Frc consts  --      2.1144                 2.4549                 1.7252
 IR Inten    --     14.9940                85.6759                12.1982

                     55                     56                     57
                      A                      A                      A
 Frequencies --   1343.5024              1397.4382              1408.3245
 Red. masses --      1.7997                 1.5115                 2.3211
 Frc consts  --      1.9139                 1.7391                 2.7123
 IR Inten    --     16.6308                 0.5472               419.3431

                     58                     59                     60
                      A                      A                      A
 Frequencies --   1443.2231              1456.9509              1459.2747
 Red. masses --      1.8737                 2.2269                 1.3096
 Frc consts  --      2.2994                 2.7851                 1.6431
 IR Inten    --     39.2579                 5.3289                47.8618

                     61                     62                     63
                      A                      A                      A
 Frequencies --   1488.1500              1522.5067              1698.0597
 Red. masses --      1.1167                 1.0967                 6.6331
 Frc consts  --      1.4571                 1.4978                11.2686
 IR Inten    --     18.3532                15.4798               123.5750

                     64                     65                     66
                      A                      A                      A
 Frequencies --   1709.1381              1714.4922              1799.2909
 Red. masses --      5.2942                 5.8912                10.9548
 Frc consts  --      9.1118                10.2029                20.8958
 IR Inten    --      6.6711                77.8010               170.8394

                     67                     68                     69
                      A                      A                      A
 Frequencies --   1817.8767              3056.1890              3086.7089
 Red. masses --      9.2790                 1.0665                 1.0685
 Frc consts  --     18.0668                 5.8692                 5.9979
 IR Inten    --    389.4716                 9.0451                17.6001

                     70                     71                     72
                      A                      A                      A
 Frequencies --   3112.9927              3159.1486              3176.3470
 Red. masses --      1.0960                 1.0963                 1.0609
 Frc consts  --      6.2580                 6.4465                 6.3061
 IR Inten    --      3.9311                 2.1134                 5.5166

                     73                     74                     75
                      A                      A                      A
 Frequencies --   3268.3613              3269.1268              3280.4126
 Red. masses --      1.1163                 1.0929                 1.0991
 Frc consts  --      7.0257                 6.8814                 6.9688
 IR Inten    --      1.3331                 8.7737                 0.7210

                     76                     77                     78
                      A                      A                      A
 Frequencies --   3557.7036              3608.7603              3674.4818
 Red. masses --      1.0654                 1.0661                 1.0640
 Frc consts  --      7.9454                 8.1799                 8.4638
 IR Inten    --    188.9672               637.5824                59.4560

 - Thermochemistry -
 -------------------
 Temperature   298.150 Kelvin.  Pressure   1.00000 Atm.
 Atom     1 has atomic number  6 and mass  12.00000

 Molecular mass:   241.05864 amu.
 Principal axes and moments of inertia in atomic units:
                           1         2         3
     Eigenvalues --  2327.954675220.879426656.86193
           X            0.99982   0.01681  -0.00934
           Y           -0.01684   0.99985  -0.00365
           Z            0.00928   0.00381   0.99995
 This molecule is an asymmetric top.
 Rotational symmetry number  1.
 Warning -- assumption of classical behavior for rotation
           may cause significant error
 Rotational temperatures (Kelvin)      0.03721     0.01659     0.01301
 Rotational constants (GHZ):           0.77525     0.34568     0.27111
 Zero-point vibrational energy     554150.7 (Joules/Mol)
                                  132.44521 (Kcal/Mol)
 Warning -- explicit consideration of  26 degrees of freedom as
           vibrations may cause significant error
 Vibrational temperatures:     31.45    65.82    80.53   100.84   121.30
          (Kelvin)            157.56   185.82   242.05   287.50   309.08
                              369.24   386.08   416.08   496.36   524.79
                              546.88   595.44   648.23   674.01   750.57
                              769.00   804.03   826.78   849.57   864.59
                              890.46   919.80   946.82  1008.86  1038.21
                             1049.51  1096.94  1127.46  1141.18  1180.22
                             1193.51  1239.97  1342.74  1393.78  1429.46
                             1463.87  1478.35  1508.98  1515.99  1646.50
                             1685.92  1724.52  1764.53  1774.57  1811.36
                             1816.46  1863.47  1908.53  1929.38  1933.00
                             2010.60  2026.26  2076.48  2096.23  2099.57
                             2141.12  2190.55  2443.13  2459.07  2466.77
                             2588.78  2615.52  4397.17  4441.09  4478.90
                             4545.31  4570.05  4702.44  4703.54  4719.78
                             5118.74  5192.20  5286.76

 Zero-point correction=                           0.211065 (Hartree/Particle)
 Thermal correction to Energy=                    0.227095
 Thermal correction to Enthalpy=                  0.228039
 Thermal correction to Gibbs Free Energy=         0.166290
 Sum of electronic and zero-point Energies=           -893.529738
 Sum of electronic and thermal Energies=              -893.513708
 Sum of electronic and thermal Enthalpies=            -893.512764
 Sum of electronic and thermal Free Energies=         -893.574513

                     E (Thermal)             CV                S
                      KCal/Mol        Cal/Mol-Kelvin    Cal/Mol-Kelvin
 Total                  142.504             60.225            129.962
 Electronic               0.000              0.000              0.000
 Translational            0.889              2.981             42.341
 Rotational               0.889              2.981             32.759
 Vibrational            140.727             54.264             54.863
 Vibration     1          0.593              1.985              6.457
 Vibration     2          0.595              1.979              4.993
 Vibration     3          0.596              1.975              4.594
 Vibration     4          0.598              1.968              4.151
 Vibration     5          0.601              1.960              3.788
 Vibration     6          0.606              1.942              3.278
 Vibration     7          0.612              1.924              2.959
 Vibration     8          0.625              1.882              2.455
 Vibration     9          0.638              1.840              2.135
 Vibration    10          0.645              1.818              2.002
 Vibration    11          0.666              1.752              1.685
 Vibration    12          0.673              1.731              1.607
 Vibration    13          0.686              1.694              1.479
 Vibration    14          0.723              1.585              1.189
 Vibration    15          0.738              1.545              1.102
 Vibration    16          0.750              1.513              1.039
 Vibration    17          0.777              1.440              0.913
 Vibration    18          0.809              1.360              0.794
 Vibration    19          0.826              1.320              0.742
 Vibration    20          0.877              1.202              0.606
 Vibration    21          0.889              1.174              0.577
 Vibration    22          0.914              1.120              0.526
 Vibration    23          0.931              1.086              0.495
 Vibration    24          0.948              1.052              0.466
 Vibration    25          0.959              1.030              0.448
 Vibration    26          0.979              0.992              0.418

                           ! Non-Optimized Parameters !
 Normal termination of Gaussian 16 at Sun Dec 13 20:52:04 2020.

 ----------------------------------------------------------------------
 # B3LYP/6-311++G(d,p) empiricaldispersion=gd3bj scf=xqc pop=npa geom=c
 heck
 ----------------------------------------------------------------------

 ---------------------------------------
 CID_123912772_JID_7238_Energie_neutraal
 ---------------------------------------
 Structure from the checkpoint file:  "JID_7238.chk"
 Charge =  0 Multiplicity = 1

 SCF Done:  E(RB3LYP) =  -894.022418831     A.U. after   15 cycles
 Normal termination of Gaussian 16 at Sun Dec 13 20:56:36 2020.

 ----------------------------------------------------------------------
 # B3LYP/6-311++G(d,p) empiricaldispersion=gd3bj scf=xqc pop=npa geom=c
 heck
 ----------------------------------------------------------------------

 -------------------------------------
 CID_123912772_JID_7238_Energie_kation
 -------------------------------------
 Structure from the checkpoint file:  "JID_7238.chk"
 Charge =  1 Multiplicity = 2

 SCF Done:  E(UB3LYP) =  -893.766667780     A.U. after   19 cycles
 Normal termination of Gaussian 16 at Sun Dec 13 21:04:58 2020.
 Gaussian 16:  ES64L-G16RevA.03 25-Dec-2016

 ----------------------------------------------------------------------
 # B3LYP/6-311++G(d,p) empiricaldispersion=gd3bj scf=xqc pop=npa geom=c
 heck
 ----------------------------------------------------------------------

 ------------------------------------
 CID_123912772_JID_7238_Energie_anion
 ------------------------------------
 Structure from the checkpoint file:  "JID_7238.chk"
 Charge = -1 Multiplicity = 2

                         Standard orientation:
 ---------------------------------------------------------------------
 Center     Atomic      Atomic             Coordinates (Angstroms)
 Number     Number       Type             X           Y           Z
 ---------------------------------------------------------------------
      1          6           0        2.159536    2.637750   -0.204616
      2          6           0        1.507614    1.512567   -0.521387
      3          6           0        2.078404    0.452623   -1.444909
      4          6           0        3.159418   -0.391549   -0.750905
      5          6           0        2.649982   -1.152604    0.450701
      6          8           0        1.491302   -1.455115    0.672357
      7          8           0        3.643659   -1.496280    1.287253
      8          6           0        0.181485    1.297862    0.125267
      9          8           0       -0.215539    1.856055    1.129086
     10          8           0       -0.563036    0.423148   -0.600478
     11          7           0       -1.658939   -0.142019    0.099036
     12          6           0       -2.888487    0.553455    0.175282
     13          6           0       -3.880516   -0.362772    0.039717
     14          6           0       -3.268434   -1.653750   -0.250292
     15          6           0       -1.922327   -1.478873   -0.266610
     16          8           0       -0.908855   -2.315938   -0.569926
     17          8           0       -2.903135    1.881235    0.419163
     18          1           0        3.132267    2.868334   -0.630683
     19          1           0        1.730256    3.353126    0.488624
     20          1           0        1.283354   -0.198804   -1.809473
     21          1           0        2.534578    0.932792   -2.316435
     22          1           0        3.567754   -1.133306   -1.450793
     23          1           0        4.002360    0.228206   -0.430040
     24          1           0        3.236963   -2.005091    2.015212
     25          1           0       -4.931135   -0.175185    0.207833
     26          1           0       -3.781751   -2.597202   -0.364961
     27          1           0       -0.088148   -2.000304   -0.141186
     28          1           0       -2.089151    2.088470    0.925520
 ---------------------------------------------------------------------

 SCF Done:  E(UB3LYP) =  -894.045543046     A.U. after   27 cycles

 The electronic state is 2-A.
 Alpha  occ. eigenvalues --  -19.09020 -19.06261 -19.03193 -19.02846 -19.02407
 Alpha  occ. eigenvalues --  -18.95735 -14.27438 -10.22038 -10.13485 -10.13142
 Alpha  occ. eigenvalues --  -10.12923 -10.08491 -10.05676 -10.04208 -10.04116
 Alpha  occ. eigenvalues --  -10.02762 -10.00368  -1.02994  -1.01042  -0.94595
 Alpha  occ. eigenvalues --   -0.93775  -0.93460  -0.89067  -0.80680  -0.70086
 Alpha  occ. eigenvalues --   -0.65738  -0.62997  -0.59464  -0.56451  -0.51998
 Alpha  occ. eigenvalues --   -0.49493  -0.47971  -0.47492  -0.43647  -0.42842
 Alpha  occ. eigenvalues --   -0.40787  -0.39754  -0.39228  -0.38680  -0.35341
 Alpha  occ. eigenvalues --   -0.34610  -0.33618  -0.32113  -0.31231  -0.30434
 Alpha  occ. eigenvalues --   -0.29891  -0.29159  -0.28560  -0.27867  -0.27484
 Alpha  occ. eigenvalues --   -0.26980  -0.26331  -0.24382  -0.24303  -0.23594
 Alpha  occ. eigenvalues --   -0.21884  -0.20745  -0.19679  -0.18197  -0.14452
 Alpha  occ. eigenvalues --   -0.13276  -0.12655  -0.06734   0.03577
 Alpha virt. eigenvalues --    0.06387   0.07581   0.08698   0.09005   0.10199
 Alpha virt. eigenvalues --    0.10716   0.11065   0.11546   0.12389   0.13187
 Alpha virt. eigenvalues --    0.13677   0.14250   0.15108   0.15822   0.16245

  Beta  occ. eigenvalues --  -19.09013 -19.06156 -19.03191 -19.02803 -19.02400
  Beta  occ. eigenvalues --  -18.95484 -14.27393 -10.22022 -10.13134 -10.13133
  Beta  occ. eigenvalues --  -10.12914 -10.08471 -10.05680 -10.04208 -10.04108
  Beta  occ. eigenvalues --  -10.02705  -9.99826  -1.02961  -1.00794  -0.94556
  Beta  occ. eigenvalues --   -0.93727  -0.93406  -0.88627  -0.80568  -0.69919
  Beta  occ. eigenvalues --   -0.65528  -0.62629  -0.59439  -0.56156  -0.51398
  Beta  occ. eigenvalues --   -0.49361  -0.47945  -0.47375  -0.43537  -0.42386
  Beta  occ. eigenvalues --   -0.40668  -0.39640  -0.39007  -0.38578  -0.35125
  Beta  occ. eigenvalues --   -0.34371  -0.33310  -0.32015  -0.30925  -0.30249
  Beta  occ. eigenvalues --   -0.29753  -0.29094  -0.28409  -0.27782  -0.27233
  Beta  occ. eigenvalues --   -0.26883  -0.25877  -0.24253  -0.24021  -0.23512
  Beta  occ. eigenvalues --   -0.21488  -0.20366  -0.19615  -0.17633  -0.14031
  Beta  occ. eigenvalues --   -0.13042  -0.10599  -0.06692
  Beta virt. eigenvalues --    0.06404   0.07698   0.08797   0.08974   0.10161
  Beta virt. eigenvalues --    0.10331   0.10692   0.11037   0.11731   0.12617
  Beta virt. eigenvalues --    0.13124   0.13662   0.14316   0.15081   0.15816

 Mulliken charges and spin densities:
               1          2
     1  C   -0.845797   0.611016
     2  C    1.370492   0.016707
     3  C   -0.109646  -0.177551
     4  C   -0.082610  -0.383087
     5  C   -0.051503   0.124055
     6  O   -0.396675   0.003927
     7  O   -0.133446   0.003335
     8  C   -1.206009   0.265611
     9  O   -0.324783   0.090802
    10  O    0.160790   0.022540
    11  N   -0.086940   0.001047
    12  C   -0.080249  -0.021135
    13  C   -0.056241   0.026323
    14  C   -0.113497  -0.048119
    15  C   -0.173266   0.041693
    16  O   -0.364982   0.001456
    17  O   -0.289176   0.001538
    18  H    0.048878  -0.001913
    19  H    0.169305  -0.025630
    20  H    0.235063  -0.040724
    21  H   -0.034809   0.212293
    22  H   -0.046843   0.209426
    23  H    0.245736  -0.030518
    24  H    0.205404   0.067723
    25  H    0.134983   0.000576
    26  H    0.131559   0.001786
    27  H    0.413145   0.019495
    28  H    0.281118   0.007328
 Sum of Mulliken charges =  -1.00000   1.00000

 Dipole moment (field-independent basis, Debye):
    X=              1.8104    Y=             -4.3735    Z=              0.8645  Tot=              4.8117
 Quadrupole moment (field-independent basis, Debye-Ang):
   XX=           -131.9022   YY=           -128.5665   ZZ=           -111.7615
   XY=             -5.4365   XZ=              2.4480   YZ=             -3.7672

 Summary of Natural Population Analysis:

                                       Natural Population
                Natural  -----------------------------------------------
    Atom  No    Charge         Core      Valence    Rydberg      Total
 -----------------------------------------------------------------------
      C    1   -0.03936      0.99953     2.03193    0.00790     3.03936
      C    2   -0.08849      0.99945     2.07594    0.01310     3.08849
      C    3   -0.20157      0.99960     2.19095    0.01103     3.20157
      C    4   -0.23342      0.99957     2.22551    0.00834     3.23342
      C    5    0.42033      0.99972     1.55349    0.02646     2.57967
      O    6   -0.32269      0.99983     3.31558    0.00728     4.32269
      O    7   -0.34096      0.99987     3.33518    0.00591     4.34096
      C    8    0.44882      0.99961     1.52577    0.02579     2.55118
      O    9   -0.31330      0.99985     3.30782    0.00562     4.31330
      O   10   -0.19552      0.99985     3.18639    0.00928     4.19552
      N   11   -0.09380      0.99954     2.58111    0.01315     3.59380
      C   12    0.23443      0.99939     1.75118    0.01500     2.76557
      C   13   -0.17559      0.99952     2.16725    0.00883     3.17559
      C   14   -0.17736      0.99952     2.16902    0.00883     3.17736
      C   15    0.23571      0.99940     1.74893    0.01596     2.76429
      O   16   -0.35354      0.99986     3.34729    0.00639     4.35354
      O   17   -0.35579      0.99987     3.34915    0.00678     4.35579
      H   18    0.07540      0.00000     0.42372    0.00088     0.42460
      H   19    0.09334      0.00000     0.40577    0.00089     0.40666
      H   20    0.11125      0.00000     0.38705    0.00170     0.38875
      H   21    0.10101      0.00000     0.39750    0.00149     0.39899
      H   22    0.11038      0.00000     0.38804    0.00158     0.38962
      H   23    0.11148      0.00000     0.38730    0.00122     0.38852
      H   24    0.23839      0.00000     0.25813    0.00349     0.26161
      H   25    0.10039      0.00000     0.39864    0.00097     0.39961
      H   26    0.10028      0.00000     0.39884    0.00088     0.39972
      H   27    0.25569      0.00000     0.24058    0.00373     0.24431
      H   28    0.25449      0.00000     0.24235    0.00316     0.24551
 =======================================================================
   * Total *    0.00000     16.99399    45.79039    0.21562    63.00000

 Normal termination of Gaussian 16 at Sun Dec 13 21:16:58 2020.
