 Gaussian 16, Revision A.03,

 -----------------------------------------------------------
 # opt freq B3LYP/6-31G(d) empiricaldispersion=gd3bj scf=xqc
 -----------------------------------------------------------

 ------------------------------
 CID_127006409_JID_543_neutraal
 ------------------------------
 Symbolic Z-matrix:
 Charge =  0 Multiplicity = 1

 SCF Done:  E(RB3LYP) =  -801.492181420     A.U. after   14 cycles
 SCF Done:  E(RB3LYP) =  -801.495268764     A.U. after   12 cycles
 SCF Done:  E(RB3LYP) =  -801.495953933     A.U. after   12 cycles
 SCF Done:  E(RB3LYP) =  -801.496293796     A.U. after   12 cycles
 SCF Done:  E(RB3LYP) =  -801.496827470     A.U. after   12 cycles
 SCF Done:  E(RB3LYP) =  -801.496779487     A.U. after   15 cycles
 SCF Done:  E(RB3LYP) =  -801.497966391     A.U. after   12 cycles
 SCF Done:  E(RB3LYP) =  -801.498298221     A.U. after   12 cycles
 SCF Done:  E(RB3LYP) =  -801.498346810     A.U. after   11 cycles
 SCF Done:  E(RB3LYP) =  -801.498352071     A.U. after   10 cycles
 SCF Done:  E(RB3LYP) =  -801.498352927     A.U. after    8 cycles
 SCF Done:  E(RB3LYP) =  -801.498352982     A.U. after    7 cycles
 Optimization completed.
    -- Stationary point found.
 Normal termination of Gaussian 16 at Tue Dec  8 14:20:05 2020.

 --------------------------------------------------------------------
 #N Geom=AllCheck Guess=TCheck SCRF=Check GenChk RB3LYP/6-31G(d) Freq
 --------------------------------------------------------------------

 Structure from the checkpoint file:  "JID_543.chk"
 ------------------------------
 CID_127006409_JID_543_neutraal
 ------------------------------
 Charge =  0 Multiplicity = 1

 SCF Done:  E(RB3LYP) =  -801.498352982     A.U. after    1 cycles

  Exact polarizability: 130.846   1.521 101.747   5.711   5.126  62.269
 Approx polarizability: 185.238  10.707 165.796  12.539  13.421  96.771

                      1                      2                      3
                      A                      A                      A
 Frequencies --     41.7544                94.7682               110.4900
 Red. masses --      3.8455                 2.0530                 1.5043
 Frc consts  --      0.0040                 0.0109                 0.0108
 IR Inten    --      0.1981                 0.0479                 0.1568

                      4                      5                      6
                      A                      A                      A
 Frequencies --    123.3211               196.7699               237.9201
 Red. masses --      4.1295                 3.1957                 3.1446
 Frc consts  --      0.0370                 0.0729                 0.1049
 IR Inten    --      0.2804                 2.6988                 0.9465

                      7                      8                      9
                      A                      A                      A
 Frequencies --    276.4206               287.2800               294.5511
 Red. masses --      1.1787                 2.3914                 3.0510
 Frc consts  --      0.0531                 0.1163                 0.1560
 IR Inten    --      0.7911                22.2669                 0.9771

                     10                     11                     12
                      A                      A                      A
 Frequencies --    323.3785               356.1013               407.1877
 Red. masses --      1.6366                 3.0198                 3.6652
 Frc consts  --      0.1008                 0.2256                 0.3580
 IR Inten    --     53.8581                14.8900                 3.5872

                     13                     14                     15
                      A                      A                      A
 Frequencies --    476.6650               496.7075               561.9619
 Red. masses --      3.5542                 3.0040                 5.6974
 Frc consts  --      0.4758                 0.4367                 1.0601
 IR Inten    --     14.2458                 4.2000                 2.2285

                     16                     17                     18
                      A                      A                      A
 Frequencies --    615.2859               676.0538               700.5962
 Red. masses --      3.3797                 4.6246                 2.8453
 Frc consts  --      0.7539                 1.2453                 0.8228
 IR Inten    --      7.8227                 5.8162                11.2507

                     19                     20                     21
                      A                      A                      A
 Frequencies --    755.3941               843.8291               861.2235
 Red. masses --      1.3646                 2.6380                 1.5880
 Frc consts  --      0.4588                 1.1067                 0.6940
 IR Inten    --     19.6404                29.0811                10.3611

                     22                     23                     24
                      A                      A                      A
 Frequencies --    873.1374               941.0184               959.9264
 Red. masses --      3.7151                 3.1350                 2.5730
 Frc consts  --      1.6687                 1.6356                 1.3969
 IR Inten    --      4.9273                38.1834                14.8406

                     25                     26                     27
                      A                      A                      A
 Frequencies --   1016.4666              1020.5494              1072.7045
 Red. masses --      1.6284                 1.6986                 1.4047
 Frc consts  --      0.9913                 1.0423                 0.9523
 IR Inten    --      2.9782                53.9982                 0.8063

                     28                     29                     30
                      A                      A                      A
 Frequencies --   1077.5928              1107.1241              1154.7575
 Red. masses --      1.7740                 2.0051                 2.0942
 Frc consts  --      1.2137                 1.4480                 1.6453
 IR Inten    --      1.1114                11.3059                10.6712

                     31                     32                     33
                      A                      A                      A
 Frequencies --   1191.9092              1213.6149              1237.1094
 Red. masses --      2.1586                 1.8588                 1.4263
 Frc consts  --      1.8068                 1.6130                 1.2861
 IR Inten    --     23.8497                16.6495                13.1354

                     34                     35                     36
                      A                      A                      A
 Frequencies --   1324.5448              1348.7801              1396.9197
 Red. masses --      1.4183                 1.3467                 1.4764
 Frc consts  --      1.4660                 1.4434                 1.6975
 IR Inten    --      2.8501                42.6064                34.8494

                     37                     38                     39
                      A                      A                      A
 Frequencies --   1421.1363              1432.0077              1444.3978
 Red. masses --      1.4937                 1.7096                 1.2723
 Frc consts  --      1.7774                 2.0655                 1.5639
 IR Inten    --      5.3971                11.8965                 1.0220

                     40                     41                     42
                      A                      A                      A
 Frequencies --   1502.7844              1508.7939              1515.4972
 Red. masses --      1.0836                 1.0423                 1.4891
 Frc consts  --      1.4418                 1.3980                 2.0151
 IR Inten    --      3.5610                 7.3561                14.4167

                     43                     44                     45
                      A                      A                      A
 Frequencies --   1526.1215              1534.5391              1542.5767
 Red. masses --      1.0591                 1.0545                 2.4564
 Frc consts  --      1.4533                 1.4630                 3.4438
 IR Inten    --      5.1460                 8.3747                 4.7887

                     46                     47                     48
                      A                      A                      A
 Frequencies --   1628.5209              3034.3770              3045.0976
 Red. masses --      6.0210                 1.0828                 1.0365
 Frc consts  --      9.4082                 5.8739                 5.6628
 IR Inten    --      3.2565                17.5469                36.9635

                     49                     50                     51
                      A                      A                      A
 Frequencies --   3051.4080              3096.6639              3115.8850
 Red. masses --      1.0402                 1.1018                 1.1007
 Frc consts  --      5.7067                 6.2248                 6.2963
 IR Inten    --     19.2612                17.1518                31.8770

                     52                     53                     54
                      A                      A                      A
 Frequencies --   3129.4279              3157.4756              3226.3675
 Red. masses --      1.1008                 1.0992                 1.0927
 Frc consts  --      6.3515                 6.4569                 6.7016
 IR Inten    --     12.9111                13.1552                 4.1096

                     55                     56                     57
                      A                      A                      A
 Frequencies --   3276.9767              3433.1560              3746.0901
 Red. masses --      1.0933                 1.0753                 1.0683
 Frc consts  --      6.9175                 7.4677                 8.8332
 IR Inten    --      0.4575                 1.3757                31.6162

 - Thermochemistry -
 -------------------
 Temperature   298.150 Kelvin.  Pressure   1.00000 Atm.
 Atom     1 has atomic number  6 and mass  12.00000

 Molecular mass:   157.05614 amu.
 Principal axes and moments of inertia in atomic units:
                           1         2         3
     Eigenvalues --   763.410102894.206033525.67153
           X            0.99928  -0.03795   0.00074
           Y            0.03795   0.99928   0.00138
           Z           -0.00079  -0.00135   1.00000
 This molecule is an asymmetric top.
 Rotational symmetry number  1.
 Warning -- assumption of classical behavior for rotation
           may cause significant error
 Rotational temperatures (Kelvin)      0.11346     0.02993     0.02457
 Rotational constants (GHZ):           2.36405     0.62357     0.51189
 Zero-point vibrational energy     454838.8 (Joules/Mol)
                                  108.70909 (Kcal/Mol)
 Warning -- explicit consideration of  16 degrees of freedom as
           vibrations may cause significant error
 Vibrational temperatures:     60.08   136.35   158.97   177.43   283.11
          (Kelvin)            342.31   397.71   413.33   423.79   465.27
                              512.35   585.85   685.81   714.65   808.54
                              885.26   972.69  1008.00  1086.84  1214.08
                             1239.11  1256.25  1353.92  1381.12  1462.47
                             1468.34  1543.38  1550.42  1592.90  1661.44
                             1714.89  1746.12  1779.92  1905.72  1940.59
                             2009.86  2044.70  2060.34  2078.17  2162.17
                             2170.82  2180.46  2195.75  2207.86  2219.42
                             2343.08  4365.79  4381.22  4390.30  4455.41
                             4483.06  4502.55  4542.90  4642.02  4714.84
                             4939.55  5389.79

 Zero-point correction=                           0.173239 (Hartree/Particle)
 Thermal correction to Energy=                    0.184206
 Thermal correction to Enthalpy=                  0.185150
 Thermal correction to Gibbs Free Energy=         0.136191
 Sum of electronic and zero-point Energies=           -801.325114
 Sum of electronic and thermal Energies=              -801.314147
 Sum of electronic and thermal Enthalpies=            -801.313203
 Sum of electronic and thermal Free Energies=         -801.362162

                     E (Thermal)             CV                S
                      KCal/Mol        Cal/Mol-Kelvin    Cal/Mol-Kelvin
 Total                  115.591             40.320            103.043
 Electronic               0.000              0.000              0.000
 Translational            0.889              2.981             41.064
 Rotational               0.889              2.981             30.433
 Vibrational            113.813             34.358             31.546
 Vibration     1          0.594              1.980              5.174
 Vibration     2          0.603              1.953              3.559
 Vibration     3          0.606              1.941              3.260
 Vibration     4          0.610              1.930              3.048
 Vibration     5          0.636              1.844              2.163
 Vibration     6          0.656              1.783              1.818
 Vibration     7          0.678              1.717              1.556
 Vibration     8          0.684              1.697              1.490
 Vibration     9          0.689              1.684              1.448
 Vibration    10          0.708              1.629              1.293
 Vibration    11          0.732              1.563              1.139
 Vibration    12          0.772              1.455              0.937
 Vibration    13          0.833              1.302              0.719
 Vibration    14          0.852              1.257              0.666
 Vibration    15          0.918              1.114              0.520
 Vibration    16          0.975              1.000              0.424

                           ! Non-Optimized Parameters !
 Normal termination of Gaussian 16 at Tue Dec  8 14:23:56 2020.

 ----------------------------------------------------------------------
 # B3LYP/6-311++G(d,p) empiricaldispersion=gd3bj scf=xqc pop=npa geom=c
 heck
 ----------------------------------------------------------------------

 --------------------------------------
 CID_127006409_JID_543_Energie_neutraal
 --------------------------------------
 Structure from the checkpoint file:  "JID_543.chk"
 Charge =  0 Multiplicity = 1

 SCF Done:  E(RB3LYP) =  -801.650248876     A.U. after   15 cycles
 Normal termination of Gaussian 16 at Tue Dec  8 14:25:57 2020.

 ----------------------------------------------------------------------
 # B3LYP/6-311++G(d,p) empiricaldispersion=gd3bj scf=xqc pop=npa geom=c
 heck
 ----------------------------------------------------------------------

 ------------------------------------
 CID_127006409_JID_543_Energie_kation
 ------------------------------------
 Structure from the checkpoint file:  "JID_543.chk"
 Charge =  1 Multiplicity = 2

 SCF Done:  E(UB3LYP) =  -801.345928278     A.U. after   26 cycles
 Normal termination of Gaussian 16 at Tue Dec  8 14:30:10 2020.
 Gaussian 16:  ES64L-G16RevA.03 25-Dec-2016

 ----------------------------------------------------------------------
 # B3LYP/6-311++G(d,p) empiricaldispersion=gd3bj scf=xqc pop=npa geom=c
 heck
 ----------------------------------------------------------------------

 -----------------------------------
 CID_127006409_JID_543_Energie_anion
 -----------------------------------
 Structure from the checkpoint file:  "JID_543.chk"
 Charge = -1 Multiplicity = 2

                         Standard orientation:
 ---------------------------------------------------------------------
 Center     Atomic      Atomic             Coordinates (Angstroms)
 Number     Number       Type             X           Y           Z
 ---------------------------------------------------------------------
      1          6           0       -3.175867    1.574677    0.087399
      2          6           0       -2.008620    0.635528    0.080739
      3          6           0       -0.690447    0.915478    0.304738
      4          6           0        0.176648   -0.227292    0.219631
      5          6           0       -0.515680   -1.368613   -0.080510
      6         16           0       -2.220198   -1.072301   -0.248827
      7          6           0        1.670186   -0.138977    0.439262
      8          6           0        2.408302   -1.466075    0.251268
      9          7           0        2.159632    0.946796   -0.439082
     10          8           0        3.590020    1.065174   -0.256720
     11          1           0       -3.685196    1.601452   -0.883470
     12          1           0       -3.921293    1.295503    0.841783
     13          1           0       -2.831449    2.588263    0.314131
     14          1           0       -0.324123    1.914367    0.513456
     15          1           0       -0.132060   -2.371319   -0.202090
     16          1           0        1.852829    0.219964    1.461415
     17          1           0        2.231251   -1.871190   -0.752729
     18          1           0        3.481653   -1.308950    0.375787
     19          1           0        2.075685   -2.208690    0.984486
     20          1           0        2.073842    0.617422   -1.403883
     21          1           0        3.677321    1.982684    0.044514
 ---------------------------------------------------------------------

 SCF Done:  E(UB3LYP) =  -801.632672311     A.U. after   33 cycles
 SCF Done:  E(UB3LYP) =  -801.632672311     a.u. after    1 cycles

 The electronic state is 2-A.
 Alpha  occ. eigenvalues --  -88.76989 -19.04293 -14.24819 -10.10683 -10.10301
 Alpha  occ. eigenvalues --  -10.09319 -10.08040 -10.07404 -10.06562 -10.05887
 Alpha  occ. eigenvalues --   -7.85628  -5.81912  -5.81552  -5.81220  -0.95454
 Alpha  occ. eigenvalues --   -0.78431  -0.74619  -0.66461  -0.63668  -0.62021
 Alpha  occ. eigenvalues --   -0.57298  -0.52246  -0.44532  -0.43532  -0.41763
 Alpha  occ. eigenvalues --   -0.37953  -0.36031  -0.35422  -0.32718  -0.32548
 Alpha  occ. eigenvalues --   -0.31285  -0.30511  -0.28246  -0.27464  -0.26594
 Alpha  occ. eigenvalues --   -0.25442  -0.25149  -0.23507  -0.19406  -0.15282
 Alpha  occ. eigenvalues --   -0.14146  -0.12900   0.04773
 Alpha virt. eigenvalues --    0.06543   0.07059   0.07893   0.08987   0.09176
 Alpha virt. eigenvalues --    0.09793   0.10356   0.10925   0.11614   0.11949
 Alpha virt. eigenvalues --    0.12479   0.13544   0.13965   0.14414   0.15088

  Beta  occ. eigenvalues --  -88.76983 -19.04250 -14.24802 -10.10672 -10.10299
  Beta  occ. eigenvalues --  -10.09304 -10.08040 -10.07358 -10.06546 -10.05863
  Beta  occ. eigenvalues --   -7.85620  -5.81903  -5.81546  -5.81215  -0.95377
  Beta  occ. eigenvalues --   -0.78412  -0.74561  -0.66419  -0.63629  -0.61984
  Beta  occ. eigenvalues --   -0.57240  -0.52197  -0.44493  -0.43487  -0.41693
  Beta  occ. eigenvalues --   -0.37897  -0.35985  -0.35382  -0.32676  -0.32504
  Beta  occ. eigenvalues --   -0.31248  -0.30471  -0.28212  -0.27419  -0.26564
  Beta  occ. eigenvalues --   -0.25409  -0.25120  -0.23481  -0.19359  -0.15263
  Beta  occ. eigenvalues --   -0.14120  -0.12878
  Beta virt. eigenvalues --    0.07042   0.07536   0.07898   0.08314   0.09326
  Beta virt. eigenvalues --    0.09570   0.10523   0.10730   0.11476   0.12014
  Beta virt. eigenvalues --    0.12264   0.12737   0.13805   0.14175   0.14578

 Mulliken charges and spin densities:
               1          2
     1  C    3.454071  -3.585188
     2  C   -1.397046   1.438448
     3  C   -1.221716   1.614155
     4  C    2.631736  -3.133707
     5  C   -1.630158   2.592481
     6  S    0.338662  -1.100274
     7  C   -0.761928  -0.369241
     8  C    0.527415  -1.164627
     9  N   -0.085879  -0.157024
    10  O   -0.181887   0.032809
    11  H   -0.291255   0.449882
    12  H   -0.357352   0.517954
    13  H   -0.518423   0.685393
    14  H   -0.536692   0.757330
    15  H   -0.717682   1.006011
    16  H   -0.121027   0.313095
    17  H   -0.044512   0.187308
    18  H   -0.061388   0.254014
    19  H   -0.038112   0.175484
    20  H    0.160963   0.058275
    21  H   -0.147790   0.427422
 Sum of Mulliken charges =  -1.00000   1.00000

 Dipole moment (field-independent basis, Debye):
    X=             -0.1075    Y=             -3.8884    Z=             -1.0902  Tot=              4.0398
 Quadrupole moment (field-independent basis, Debye-Ang):
   XX=           -139.1753   YY=           -116.1169   ZZ=            -92.8188
   XY=              5.1457   XZ=              0.6738   YZ=             -1.3128

 Summary of Natural Population Analysis:

                                       Natural Population
                Natural  -----------------------------------------------
    Atom  No    Charge         Core      Valence    Rydberg      Total
 -----------------------------------------------------------------------
      C    1   -0.29879      0.99961     2.29213    0.00705     3.29879
      C    2   -0.09310      0.99951     2.08024    0.01336     3.09310
      C    3   -0.12113      0.99941     2.10956    0.01216     3.12113
      C    4   -0.04631      0.99947     2.03452    0.01233     3.04631
      C    5   -0.19053      0.99945     2.18117    0.00991     3.19053
      S    6    0.19364      4.99941     2.78617    0.02078     7.80636
      C    7   -0.02177      0.99956     2.00702    0.01520     3.02177
      C    8   -0.29642      0.99965     2.29136    0.00541     3.29642
      N    9   -0.17825      0.99973     2.66328    0.01524     3.67825
      O   10   -0.30345      0.99991     3.29620    0.00734     4.30345
      H   11    0.10562      0.00000     0.39292    0.00147     0.39438
      H   12    0.10616      0.00000     0.39221    0.00163     0.39384
      H   13    0.11164      0.00000     0.38624    0.00211     0.38836
      H   14    0.11483      0.00000     0.38316    0.00201     0.38517
      H   15    0.11210      0.00000     0.38642    0.00148     0.38790
      H   16    0.10029      0.00000     0.39798    0.00173     0.39971
      H   17    0.09579      0.00000     0.40262    0.00159     0.40421
      H   18    0.11123      0.00000     0.38737    0.00140     0.38877
      H   19    0.10142      0.00000     0.39712    0.00146     0.39858
      H   20    0.16186      0.00000     0.33561    0.00253     0.33814
      H   21    0.23519      0.00000     0.25592    0.00889     0.26481
 =======================================================================
   * Total *    0.00000     13.99571    27.85922    0.14508    42.00000

 Normal termination of Gaussian 16 at Tue Dec  8 14:34:19 2020.
