 Gaussian 16, Revision A.03,

 -----------------------------------------------------------
 # opt freq B3LYP/6-31G(d) empiricaldispersion=gd3bj scf=xqc
 -----------------------------------------------------------

 -------------------------------
 CID_112556013_JID_4650_neutraal
 -------------------------------
 Symbolic Z-matrix:
 Charge =  0 Multiplicity = 1

 SCF Done:  E(RB3LYP) =  -583.699481862     A.U. after   12 cycles
 SCF Done:  E(RB3LYP) =  -583.701828505     A.U. after   10 cycles
 SCF Done:  E(RB3LYP) =  -583.700914533     A.U. after   11 cycles
 SCF Done:  E(RB3LYP) =  -583.702521777     A.U. after   10 cycles
 SCF Done:  E(RB3LYP) =  -583.703011860     A.U. after   10 cycles
 SCF Done:  E(RB3LYP) =  -583.703022109     A.U. after   10 cycles
 SCF Done:  E(RB3LYP) =  -583.703276450     A.U. after   10 cycles
 SCF Done:  E(RB3LYP) =  -583.703327612     A.U. after    9 cycles
 SCF Done:  E(RB3LYP) =  -583.703355028     A.U. after    9 cycles
 SCF Done:  E(RB3LYP) =  -583.703355311     A.U. after    9 cycles
 SCF Done:  E(RB3LYP) =  -583.703361654     A.U. after    8 cycles
 SCF Done:  E(RB3LYP) =  -583.703361168     A.U. after    8 cycles
 SCF Done:  E(RB3LYP) =  -583.703362537     A.U. after    8 cycles
 SCF Done:  E(RB3LYP) =  -583.703362476     A.U. after    7 cycles
 SCF Done:  E(RB3LYP) =  -583.703362527     A.U. after    5 cycles
 SCF Done:  E(RB3LYP) =  -583.703362565     A.U. after    6 cycles
 Optimization completed.
    -- Stationary point found.
 Normal termination of Gaussian 16 at Thu Dec 10 10:23:00 2020.

 --------------------------------------------------------------------
 #N Geom=AllCheck Guess=TCheck SCRF=Check GenChk RB3LYP/6-31G(d) Freq
 --------------------------------------------------------------------

 Structure from the checkpoint file:  "JID_4650.chk"
 -------------------------------
 CID_112556013_JID_4650_neutraal
 -------------------------------
 Charge =  0 Multiplicity = 1

 SCF Done:  E(RB3LYP) =  -583.703362565     A.U. after    1 cycles

  Exact polarizability: 162.579  -1.929 134.138  -2.174  -1.094 127.934
 Approx polarizability: 195.774  -1.984 192.580  -1.267  -0.499 189.877

                      1                      2                      3
                      A                      A                      A
 Frequencies --     29.9621                38.8892                47.3927
 Red. masses --      3.3104                 2.9275                 2.8601
 Frc consts  --      0.0018                 0.0026                 0.0038
 IR Inten    --      0.3199                 0.0318                 0.1384

                      4                      5                      6
                      A                      A                      A
 Frequencies --     82.9088               100.8359               131.8732
 Red. masses --      2.8035                 3.2641                 2.8147
 Frc consts  --      0.0114                 0.0196                 0.0288
 IR Inten    --      0.0734                 0.2766                 0.4387

                      7                      8                      9
                      A                      A                      A
 Frequencies --    181.0416               215.0662               234.5925
 Red. masses --      3.0787                 1.1611                 1.1015
 Frc consts  --      0.0595                 0.0316                 0.0357
 IR Inten    --      1.7467                 1.7390                 0.2318

                     10                     11                     12
                      A                      A                      A
 Frequencies --    241.5086               262.9169               265.9779
 Red. masses --      2.1612                 1.2936                 1.1012
 Frc consts  --      0.0743                 0.0527                 0.0459
 IR Inten    --      0.6272                 0.8310                13.0826

                     13                     14                     15
                      A                      A                      A
 Frequencies --    267.5333               268.5125               279.6195
 Red. masses --      1.4941                 1.7401                 1.2885
 Frc consts  --      0.0630                 0.0739                 0.0594
 IR Inten    --      9.6113                 0.3140                 0.3688

                     16                     17                     18
                      A                      A                      A
 Frequencies --    287.5130               316.1737               327.5459
 Red. masses --      1.2605                 1.8448                 2.0323
 Frc consts  --      0.0614                 0.1087                 0.1285
 IR Inten    --      1.0558                 0.2347                 2.0377

                     19                     20                     21
                      A                      A                      A
 Frequencies --    336.1122               364.7028               369.8334
 Red. masses --      1.7763                 2.1432                 2.1384
 Frc consts  --      0.1182                 0.1680                 0.1723
 IR Inten    --      4.5668                 2.6005                 0.8719

                     22                     23                     24
                      A                      A                      A
 Frequencies --    374.8840               401.8224               406.4459
 Red. masses --      2.2163                 2.0826                 2.2870
 Frc consts  --      0.1835                 0.1981                 0.2226
 IR Inten    --      2.7232                 2.8320                 4.9992

                     25                     26                     27
                      A                      A                      A
 Frequencies --    423.0026               458.4610               497.2973
 Red. masses --      2.2286                 2.7716                 2.7483
 Frc consts  --      0.2349                 0.3432                 0.4004
 IR Inten    --      1.3311                 3.0634                 4.1567

                     28                     29                     30
                      A                      A                      A
 Frequencies --    512.7607               537.7528               603.1299
 Red. masses --      2.4230                 2.3934                 3.6315
 Frc consts  --      0.3753                 0.4078                 0.7783
 IR Inten    --      0.4257                 6.2986                 0.7749

                     31                     32                     33
                      A                      A                      A
 Frequencies --    691.5733               759.7458               788.0319
 Red. masses --      2.4291                 1.9826                 1.4293
 Frc consts  --      0.6845                 0.6743                 0.5230
 IR Inten    --      8.9326                15.8481               140.3119

                     34                     35                     36
                      A                      A                      A
 Frequencies --    850.1460               884.3232               901.7140
 Red. masses --      2.1526                 1.5869                 1.7314
 Frc consts  --      0.9166                 0.7312                 0.8294
 IR Inten    --     21.1448               160.3927                 8.0001

                     37                     38                     39
                      A                      A                      A
 Frequencies --    932.3241               940.3090               944.0322
 Red. masses --      1.8970                 1.7474                 1.5591
 Frc consts  --      0.9715                 0.9103                 0.8187
 IR Inten    --      9.2632                 7.8164                 2.6522

                     40                     41                     42
                      A                      A                      A
 Frequencies --    945.9480               953.6997               965.7138
 Red. masses --      1.3811                 1.4185                 1.2290
 Frc consts  --      0.7281                 0.7602                 0.6753
 IR Inten    --      0.7710                 7.6519                 0.9757

                     43                     44                     45
                      A                      A                      A
 Frequencies --    975.2745               979.8449              1014.9750
 Red. masses --      1.5060                 1.6771                 1.8517
 Frc consts  --      0.8440                 0.9487                 1.1239
 IR Inten    --      0.3034                 1.9362                19.3366

                     46                     47                     48
                      A                      A                      A
 Frequencies --   1022.0438              1045.3594              1048.0905
 Red. masses --      1.6265                 1.6532                 1.4319
 Frc consts  --      1.0010                 1.0644                 0.9267
 IR Inten    --      8.0895                 0.5907                 3.0778

                     49                     50                     51
                      A                      A                      A
 Frequencies --   1068.1038              1095.6901              1118.9105
 Red. masses --      2.0972                 1.8508                 2.2708
 Frc consts  --      1.4097                 1.3091                 1.6750
 IR Inten    --      5.3925                 3.1991                 8.3393

                     52                     53                     54
                      A                      A                      A
 Frequencies --   1150.9205              1169.7551              1170.9727
 Red. masses --      2.0702                 2.1119                 2.1602
 Frc consts  --      1.6157                 1.7026                 1.7451
 IR Inten    --     18.4794                39.3607                10.6813

                     55                     56                     57
                      A                      A                      A
 Frequencies --   1194.4430              1211.6062              1218.1450
 Red. masses --      2.0539                 1.7511                 1.8213
 Frc consts  --      1.7265                 1.5146                 1.5924
 IR Inten    --      5.3531                 7.4508                 8.0563

                     58                     59                     60
                      A                      A                      A
 Frequencies --   1239.3595              1256.8169              1267.6656
 Red. masses --      1.9718                 2.6218                 2.1490
 Frc consts  --      1.7845                 2.4400                 2.0346
 IR Inten    --      2.3718                 4.6558                 1.8952

                     61                     62                     63
                      A                      A                      A
 Frequencies --   1290.9693              1321.8183              1341.9372
 Red. masses --      1.6291                 1.3591                 1.3203
 Frc consts  --      1.5997                 1.3990                 1.4008
 IR Inten    --      9.8998                 3.6124                 5.6235

                     64                     65                     66
                      A                      A                      A
 Frequencies --   1359.4358              1375.4830              1379.2769
 Red. masses --      1.3177                 1.3324                 1.3234
 Frc consts  --      1.4348                 1.4852                 1.4833
 IR Inten    --      0.5656                 6.4521                 1.0105

                     67                     68                     69
                      A                      A                      A
 Frequencies --   1408.1561              1409.1333              1422.8193
 Red. masses --      1.2573                 1.3197                 1.2537
 Frc consts  --      1.4688                 1.5439                 1.4954
 IR Inten    --     11.6919                 1.5334                 1.1793

                     70                     71                     72
                      A                      A                      A
 Frequencies --   1427.0866              1427.8002              1429.2485
 Red. masses --      1.2699                 1.3209                 1.2407
 Frc consts  --      1.5238                 1.5866                 1.4932
 IR Inten    --      3.2330                 3.7044                 8.0602

                     73                     74                     75
                      A                      A                      A
 Frequencies --   1431.6216              1440.3075              1453.1896
 Red. masses --      1.2791                 1.2295                 1.2199
 Frc consts  --      1.5446                 1.5028                 1.5178
 IR Inten    --      2.3604                 7.2546                 7.2281

                     76                     77                     78
                      A                      A                      A
 Frequencies --   1461.5973              1505.1367              1511.8764
 Red. masses --      1.2305                 1.0710                 1.1198
 Frc consts  --      1.5488                 1.4295                 1.5080
 IR Inten    --      9.5901                 1.5452                11.7970

                     79                     80                     81
                      A                      A                      A
 Frequencies --   1513.8693              1518.6116              1520.0343
 Red. masses --      1.1051                 1.0456                 1.0542
 Frc consts  --      1.4922                 1.4208                 1.4352
 IR Inten    --      5.5006                 3.4870                 0.8548

                     82                     83                     84
                      A                      A                      A
 Frequencies --   1520.8959              1522.2122              1528.7072
 Red. masses --      1.0563                 1.0642                 1.0660
 Frc consts  --      1.4396                 1.4529                 1.4678
 IR Inten    --      2.6593                 5.0184                 4.0349

                     85                     86                     87
                      A                      A                      A
 Frequencies --   1535.7128              1539.1091              1541.0022
 Red. masses --      1.0708                 1.0558                 1.0503
 Frc consts  --      1.4879                 1.4735                 1.4695
 IR Inten    --      6.5149                 5.0577                 5.8120

                     88                     89                     90
                      A                      A                      A
 Frequencies --   1542.4067              1542.6026              1551.6435
 Red. masses --      1.0499                 1.0597                 1.0612
 Frc consts  --      1.4717                 1.4858                 1.5054
 IR Inten    --      4.2359                 4.0369                22.7048

                     91                     92                     93
                      A                      A                      A
 Frequencies --   1555.6535              1695.3936              2943.9684
 Red. masses --      1.0529                 1.0911                 1.0714
 Frc consts  --      1.5012                 1.8479                 5.4710
 IR Inten    --      2.4157                16.1871                39.2479

                     94                     95                     96
                      A                      A                      A
 Frequencies --   2984.9859              3028.2509              3031.3290
 Red. masses --      1.0822                 1.0819                 1.0783
 Frc consts  --      5.6810                 5.8453                 5.8380
 IR Inten    --     39.8551                16.5487                10.0508

                     97                     98                     99
                      A                      A                      A
 Frequencies --   3037.5091              3039.9185              3041.4155
 Red. masses --      1.0373                 1.0387                 1.0417
 Frc consts  --      5.6388                 5.6556                 5.6771
 IR Inten    --     27.5558                10.6055                 5.9781

                    100                    101                    102
                      A                      A                      A
 Frequencies --   3043.9952              3046.4688              3047.5081
 Red. masses --      1.0400                 1.0408                 1.0607
 Frc consts  --      5.6779                 5.6916                 5.8043
 IR Inten    --     55.5412                54.4159                67.3073

                    103                    104                    105
                      A                      A                      A
 Frequencies --   3051.9032              3059.8554              3095.8764
 Red. masses --      1.0412                 1.0880                 1.1002
 Frc consts  --      5.7137                 6.0016                 6.2126
 IR Inten    --     17.9079                25.7807                23.7005

                    106                    107                    108
                      A                      A                      A
 Frequencies --   3096.4789              3100.6183              3101.9777
 Red. masses --      1.1015                 1.1009                 1.1011
 Frc consts  --      6.2224                 6.2360                 6.2423
 IR Inten    --      9.6861                 7.3105                 7.1309

                    109                    110                    111
                      A                      A                      A
 Frequencies --   3102.5788              3105.0005              3107.7010
 Red. masses --      1.1011                 1.1011                 1.1006
 Frc consts  --      6.2447                 6.2544                 6.2625
 IR Inten    --     25.8622                87.7402                67.2624

                    112                    113                    114
                      A                      A                      A
 Frequencies --   3113.4023              3116.8519              3125.3253
 Red. masses --      1.1014                 1.1012                 1.1007
 Frc consts  --      6.2901                 6.3031                 6.3344
 IR Inten    --     44.3091                45.3418                40.4816

                    115                    116                    117
                      A                      A                      A
 Frequencies --   3132.5137              3143.3480              3149.6380
 Red. masses --      1.0991                 1.0960                 1.0977
 Frc consts  --      6.3544                 6.3806                 6.4157
 IR Inten    --     33.3888                44.2486                13.9477

                    118                    119                    120
                      A                      A                      A
 Frequencies --   3467.3512              3543.1938              3566.7870
 Red. masses --      1.0509                 1.0730                 1.0901
 Frc consts  --      7.4441                 7.9371                 8.1708
 IR Inten    --      2.7318                 1.0238                 0.3676

 - Thermochemistry -
 -------------------
 Temperature   298.150 Kelvin.  Pressure   1.00000 Atm.
 Atom     1 has atomic number  6 and mass  12.00000

 Molecular mass:   200.22525 amu.
 Principal axes and moments of inertia in atomic units:
                           1         2         3
     Eigenvalues --  1627.125815836.885136143.89441
           X            0.99999   0.00390  -0.00097
           Y           -0.00394   0.99882  -0.04840
           Z            0.00078   0.04841   0.99883
 This molecule is an asymmetric top.
 Rotational symmetry number  1.
 Warning -- assumption of classical behavior for rotation
           may cause significant error
 Rotational temperatures (Kelvin)      0.05323     0.01484     0.01410
 Rotational constants (GHZ):           1.10916     0.30920     0.29375
 Zero-point vibrational energy    1041481.5 (Joules/Mol)
                                  248.92005 (Kcal/Mol)
 Warning -- explicit consideration of  30 degrees of freedom as
           vibrations may cause significant error
 Vibrational temperatures:     43.11    55.95    68.19   119.29   145.08
          (Kelvin)            189.74   260.48   309.43   337.53   347.48
                              378.28   382.68   384.92   386.33   402.31
                              413.67   454.90   471.27   483.59   524.73
                              532.11   539.37   578.13   584.78   608.61
                              659.62   715.50   737.75   773.71   867.77
                              995.02  1093.10  1133.80  1223.17  1272.34
                             1297.37  1341.41  1352.89  1358.25  1361.01
                             1372.16  1389.45  1403.20  1409.78  1460.32
                             1470.49  1504.04  1507.97  1536.76  1576.45
                             1609.86  1655.92  1683.02  1684.77  1718.54
                             1743.23  1752.64  1783.16  1808.28  1823.89
                             1857.42  1901.80  1930.75  1955.92  1979.01
                             1984.47  2026.02  2027.43  2047.12  2053.26
                             2054.29  2056.37  2059.78  2072.28  2090.82
                             2102.91  2165.56  2175.25  2178.12  2184.94
                             2186.99  2188.23  2190.12  2199.47  2209.55
                             2214.43  2217.16  2219.18  2219.46  2232.47
                             2238.24  2439.29  4235.71  4294.73  4356.98
                             4361.41  4370.30  4373.76  4375.92  4379.63
                             4383.19  4384.68  4391.01  4402.45  4454.28
                             4455.14  4461.10  4463.05  4463.92  4467.40
                             4471.29  4479.49  4484.45  4496.65  4506.99
                             4522.58  4531.63  4988.74  5097.87  5131.81

 Zero-point correction=                           0.396679 (Hartree/Particle)
 Thermal correction to Energy=                    0.414634
 Thermal correction to Enthalpy=                  0.415578
 Thermal correction to Gibbs Free Energy=         0.351753
 Sum of electronic and zero-point Energies=           -583.306683
 Sum of electronic and thermal Energies=              -583.288728
 Sum of electronic and thermal Enthalpies=            -583.287784
 Sum of electronic and thermal Free Energies=         -583.351609

                     E (Thermal)             CV                S
                      KCal/Mol        Cal/Mol-Kelvin    Cal/Mol-Kelvin
 Total                  260.187             69.231            134.331
 Electronic               0.000              0.000              0.000
 Translational            0.889              2.981             41.787
 Rotational               0.889              2.981             32.434
 Vibrational            258.409             63.269             60.110
 Vibration     1          0.594              1.984              5.832
 Vibration     2          0.594              1.981              5.315
 Vibration     3          0.595              1.979              4.923
 Vibration     4          0.600              1.961              3.821
 Vibration     5          0.604              1.948              3.438
 Vibration     6          0.612              1.921              2.919
 Vibration     7          0.630              1.865              2.318
 Vibration     8          0.645              1.818              2.000
 Vibration     9          0.654              1.788              1.844
 Vibration    10          0.658              1.777              1.792
 Vibration    11          0.670              1.741              1.642
 Vibration    12          0.672              1.735              1.622
 Vibration    13          0.673              1.733              1.612
 Vibration    14          0.673              1.731              1.606
 Vibration    15          0.680              1.711              1.536
 Vibration    16          0.685              1.697              1.489
 Vibration    17          0.703              1.643              1.330
 Vibration    18          0.711              1.620              1.272
 Vibration    19          0.717              1.603              1.231
 Vibration    20          0.738              1.545              1.102
 Vibration    21          0.742              1.534              1.080
 Vibration    22          0.746              1.524              1.060
 Vibration    23          0.767              1.466              0.956
 Vibration    24          0.771              1.456              0.939
 Vibration    25          0.785              1.420              0.882
 Vibration    26          0.816              1.342              0.771
 Vibration    27          0.853              1.256              0.665
 Vibration    28          0.868              1.222              0.627
 Vibration    29          0.893              1.167              0.570
 Vibration    30          0.962              1.025              0.444

 Optimization completed.
    -- Stationary point found.
 Normal termination of Gaussian 16 at Thu Dec 10 10:36:13 2020.

 ----------------------------------------------------------------------
 # B3LYP/6-311++G(d,p) empiricaldispersion=gd3bj scf=xqc pop=npa geom=c
 heck
 ----------------------------------------------------------------------

 ---------------------------------------
 CID_112556013_JID_4650_Energie_neutraal
 ---------------------------------------
 Structure from the checkpoint file:  "JID_4650.chk"
 Charge =  0 Multiplicity = 1

 SCF Done:  E(RB3LYP) =  -583.878182749     A.U. after   13 cycles
 Normal termination of Gaussian 16 at Thu Dec 10 10:44:06 2020.

 ----------------------------------------------------------------------
 # B3LYP/6-311++G(d,p) empiricaldispersion=gd3bj scf=xqc pop=npa geom=c
 heck
 ----------------------------------------------------------------------

 -------------------------------------
 CID_112556013_JID_4650_Energie_kation
 -------------------------------------
 Structure from the checkpoint file:  "JID_4650.chk"
 Charge =  1 Multiplicity = 2

 SCF Done:  E(UB3LYP) =  -583.588787883     A.U. after   20 cycles
 Normal termination of Gaussian 16 at Thu Dec 10 11:01:38 2020.
 Gaussian 16:  ES64L-G16RevA.03 25-Dec-2016

 ----------------------------------------------------------------------
 # B3LYP/6-311++G(d,p) empiricaldispersion=gd3bj scf=xqc pop=npa geom=c
 heck
 ----------------------------------------------------------------------

 ------------------------------------
 CID_112556013_JID_4650_Energie_anion
 ------------------------------------
 Structure from the checkpoint file:  "JID_4650.chk"
 Charge = -1 Multiplicity = 2

                         Standard orientation:
 ---------------------------------------------------------------------
 Center     Atomic      Atomic             Coordinates (Angstroms)
 Number     Number       Type             X           Y           Z
 ---------------------------------------------------------------------
      1          6           0        4.190388   -1.087183   -0.598924
      2          6           0        2.861913   -0.688107    0.060574
      3          6           0        2.883747   -1.149349    1.528758
      4          6           0        2.525307    0.830809   -0.042271
      5          6           0        3.153496    1.528647   -1.258151
      6          6           0        1.007085    1.088202   -0.098131
      7          7           0        0.252680    0.527557    1.017164
      8          6           0       -1.110199    1.024687    1.149993
      9          6           0       -2.141411    0.825150    0.006670
     10          6           0       -2.484516   -0.662510   -0.370667
     11          6           0       -2.768647   -1.509101    0.881356
     12          6           0       -3.735232   -0.680174   -1.272170
     13          6           0       -1.343376   -1.307202   -1.181364
     14          7           0       -3.291569    1.650163    0.407901
     15          1           0        5.032608   -0.548859   -0.146310
     16          1           0        4.201513   -0.887345   -1.674569
     17          1           0        4.373177   -2.158836   -0.457449
     18          1           0        2.066774   -1.238413   -0.469130
     19          1           0        3.764314   -0.732297    2.034338
     20          1           0        2.005745   -0.809771    2.082559
     21          1           0        2.949631   -2.241821    1.598906
     22          1           0        2.912142    1.317382    0.864263
     23          1           0        2.822262    1.069804   -2.198246
     24          1           0        2.859207    2.584347   -1.286267
     25          1           0        4.245910    1.491325   -1.234646
     26          1           0        0.839617    2.172678   -0.078615
     27          1           0        0.643232    0.739744   -1.083069
     28          1           0        0.256489   -0.485960    0.972985
     29          1           0       -1.527336    0.600355    2.072708
     30          1           0       -1.054899    2.106511    1.311947
     31          1           0       -1.739953    1.293579   -0.902604
     32          1           0       -3.542315   -1.050387    1.509669
     33          1           0       -3.126196   -2.506125    0.599234
     34          1           0       -1.874110   -1.643308    1.499373
     35          1           0       -3.606748   -0.023706   -2.142613
     36          1           0       -3.920356   -1.693201   -1.646998
     37          1           0       -4.634272   -0.361404   -0.734918
     38          1           0       -1.105628   -0.708553   -2.068458
     39          1           0       -0.424063   -1.423119   -0.603011
     40          1           0       -1.637985   -2.306121   -1.524448
     41          1           0       -3.991677    1.674219   -0.328626
     42          1           0       -3.746193    1.242024    1.224504
 ---------------------------------------------------------------------

 SCF Done:  E(UB3LYP) =  -583.864751535     A.U. after   28 cycles

 The electronic state is 2-A.
 Alpha  occ. eigenvalues --  -14.20013 -14.19308 -10.09711 -10.09493 -10.09099
 Alpha  occ. eigenvalues --  -10.08524 -10.08291 -10.08030 -10.06831 -10.06632
 Alpha  occ. eigenvalues --  -10.06261 -10.05982 -10.05974 -10.05752  -0.81636
 Alpha  occ. eigenvalues --   -0.78736  -0.72361  -0.70799  -0.65951  -0.61597
 Alpha  occ. eigenvalues --   -0.59118  -0.59036  -0.58476  -0.56540  -0.52214
 Alpha  occ. eigenvalues --   -0.50920  -0.45987  -0.43833  -0.41749  -0.39243
 Alpha  occ. eigenvalues --   -0.37416  -0.36806  -0.35506  -0.34563  -0.34410
 Alpha  occ. eigenvalues --   -0.34040  -0.32486  -0.31935  -0.31462  -0.30084
 Alpha  occ. eigenvalues --   -0.29617  -0.29066  -0.28554  -0.28233  -0.27850
 Alpha  occ. eigenvalues --   -0.26973  -0.26773  -0.26269  -0.25233  -0.23454
 Alpha  occ. eigenvalues --   -0.23282  -0.23099  -0.22268  -0.22001  -0.21808
 Alpha  occ. eigenvalues --   -0.14744  -0.12617   0.04215
 Alpha virt. eigenvalues --    0.05818   0.06832   0.07283   0.07953   0.08294
 Alpha virt. eigenvalues --    0.08425   0.09547   0.09841   0.10103   0.10414
 Alpha virt. eigenvalues --    0.10553   0.11112   0.11249   0.12320   0.12547

  Beta  occ. eigenvalues --  -14.20005 -14.19280 -10.09705 -10.09487 -10.09093
  Beta  occ. eigenvalues --  -10.08521 -10.08282 -10.08026 -10.06813 -10.06609
  Beta  occ. eigenvalues --  -10.06249 -10.05957 -10.05936 -10.05712  -0.81619
  Beta  occ. eigenvalues --   -0.78698  -0.72343  -0.70768  -0.65929  -0.61565
  Beta  occ. eigenvalues --   -0.59064  -0.58986  -0.58411  -0.56504  -0.52176
  Beta  occ. eigenvalues --   -0.50885  -0.45951  -0.43773  -0.41723  -0.39215
  Beta  occ. eigenvalues --   -0.37380  -0.36790  -0.35476  -0.34524  -0.34372
  Beta  occ. eigenvalues --   -0.34009  -0.32454  -0.31911  -0.31440  -0.30057
  Beta  occ. eigenvalues --   -0.29594  -0.29040  -0.28525  -0.28198  -0.27819
  Beta  occ. eigenvalues --   -0.26939  -0.26740  -0.26243  -0.25208  -0.23422
  Beta  occ. eigenvalues --   -0.23250  -0.23073  -0.22245  -0.21976  -0.21785
  Beta  occ. eigenvalues --   -0.14716  -0.12602
  Beta virt. eigenvalues --    0.06115   0.06774   0.07201   0.07712   0.08420
  Beta virt. eigenvalues --    0.08737   0.08881   0.09782   0.10090   0.10396
  Beta virt. eigenvalues --    0.10773   0.10846   0.11379   0.11587   0.12547

 Mulliken charges and spin densities:
               1          2
     1  C    0.200061  -0.804415
     2  C   -0.657508   0.764322
     3  C   -0.061521  -0.574927
     4  C    0.212955   0.470696
     5  C   -0.050756  -0.726264
     6  C   -0.697552  -0.330190
     7  N    0.123067  -0.001103
     8  C   -0.361300  -0.165214
     9  C    1.317327  -1.687140
    10  C   -2.221810   2.953603
    11  C    1.031787  -1.688956
    12  C    0.540336  -1.118560
    13  C    0.894855  -1.565778
    14  N   -0.326926   0.062813
    15  H   -0.012630   0.155212
    16  H   -0.155724   0.299692
    17  H   -0.150857   0.291046
    18  H    0.308791  -0.140660
    19  H    0.063225   0.061840
    20  H    0.071339   0.072275
    21  H   -0.070938   0.201165
    22  H    0.124038   0.069382
    23  H   -0.073711   0.237552
    24  H    0.037002   0.082468
    25  H   -0.134788   0.290474
    26  H    0.094115   0.040269
    27  H    0.280713  -0.157812
    28  H    0.184212  -0.032020
    29  H    0.081410   0.093714
    30  H    0.151395   0.030915
    31  H    0.115223   0.115456
    32  H   -0.242493   0.396232
    33  H   -0.314926   0.478831
    34  H   -0.009904   0.158455
    35  H   -0.222382   0.377179
    36  H   -0.178920   0.319772
    37  H   -0.314108   0.478147
    38  H   -0.120872   0.275831
    39  H   -0.426356   0.548259
    40  H   -0.041072   0.194138
    41  H   -0.026216   0.270364
    42  H    0.041414   0.202939
 Sum of Mulliken charges =  -1.00000   1.00000

 Dipole moment (field-independent basis, Debye):
    X=              3.8342    Y=              2.3314    Z=              1.6602  Tot=              4.7846
 Quadrupole moment (field-independent basis, Debye-Ang):
   XX=           -189.7861   YY=           -138.8563   ZZ=           -134.4078
   XY=              0.5151   XZ=              3.5556   YZ=             -0.9280

 Summary of Natural Population Analysis:

                                       Natural Population
                Natural  -----------------------------------------------
    Atom  No    Charge         Core      Valence    Rydberg      Total
 -----------------------------------------------------------------------
      C    1   -0.28483      0.99965     2.27946    0.00572     3.28483
      C    2   -0.11575      0.99960     2.10640    0.00975     3.11575
      C    3   -0.28722      0.99965     2.28144    0.00613     3.28722
      C    4   -0.10900      0.99959     2.09920    0.01022     3.10900
      C    5   -0.28719      0.99965     2.28170    0.00584     3.28719
      C    6   -0.08403      0.99959     2.07393    0.01050     3.08403
      N    7   -0.34212      0.99974     2.83288    0.00951     3.84212
      C    8   -0.08754      0.99960     2.07599    0.01195     3.08754
      C    9   -0.01613      0.99955     2.00391    0.01266     3.01613
      C   10   -0.05733      0.99957     2.04381    0.01395     3.05733
      C   11   -0.28855      0.99962     2.28106    0.00787     3.28855
      C   12   -0.28808      0.99962     2.28016    0.00829     3.28808
      C   13   -0.28194      0.99962     2.27477    0.00755     3.28194
      N   14   -0.42369      0.99977     2.91389    0.01003     3.92369
      H   15    0.09458      0.00000     0.40456    0.00086     0.40542
      H   16    0.10120      0.00000     0.39786    0.00094     0.39880
      H   17    0.09976      0.00000     0.39941    0.00084     0.40024
      H   18    0.09204      0.00000     0.40565    0.00232     0.40796
      H   19    0.09370      0.00000     0.40532    0.00098     0.40630
      H   20    0.10733      0.00000     0.39141    0.00126     0.39267
      H   21    0.09702      0.00000     0.40225    0.00073     0.40298
      H   22    0.09256      0.00000     0.40578    0.00167     0.40744
      H   23    0.09888      0.00000     0.40017    0.00095     0.40112
      H   24    0.09797      0.00000     0.40126    0.00077     0.40203
      H   25    0.10108      0.00000     0.39817    0.00075     0.39892
      H   26    0.09206      0.00000     0.40678    0.00116     0.40794
      H   27    0.08110      0.00000     0.41718    0.00172     0.41890
      H   28    0.17316      0.00000     0.32325    0.00359     0.32684
      H   29    0.09319      0.00000     0.40582    0.00099     0.40681
      H   30    0.09799      0.00000     0.40071    0.00131     0.40201
      H   31    0.09067      0.00000     0.40755    0.00178     0.40933
      H   32    0.09938      0.00000     0.39912    0.00150     0.40062
      H   33    0.10341      0.00000     0.39545    0.00114     0.39659
      H   34    0.09742      0.00000     0.40143    0.00116     0.40258
      H   35    0.09942      0.00000     0.39934    0.00124     0.40058
      H   36    0.10208      0.00000     0.39672    0.00120     0.39792
      H   37    0.10097      0.00000     0.39735    0.00168     0.39903
      H   38    0.10050      0.00000     0.39824    0.00126     0.39950
      H   39    0.09374      0.00000     0.40433    0.00193     0.40626
      H   40    0.10132      0.00000     0.39766    0.00102     0.39868
      H   41    0.17838      0.00000     0.31976    0.00186     0.32162
      H   42    0.17250      0.00000     0.32553    0.00198     0.32750
 =======================================================================
   * Total *    0.00000     13.99482    42.83666    0.16852    57.00000

 Normal termination of Gaussian 16 at Thu Dec 10 11:21:43 2020.
