 Gaussian 16, Revision A.03,

 -----------------------------------------------------------
 # opt freq B3LYP/6-31G(d) empiricaldispersion=gd3bj scf=xqc
 -----------------------------------------------------------

 -------------------------------
 CID_150558713_JID_7655_neutraal
 -------------------------------
 Symbolic Z-matrix:
 Charge =  0 Multiplicity = 1

 SCF Done:  E(RB3LYP) =  -1097.73465462     A.U. after   16 cycles
 SCF Done:  E(RB3LYP) =  -1097.74075310     A.U. after   15 cycles
 SCF Done:  E(RB3LYP) =  -1097.74198365     A.U. after   14 cycles
 SCF Done:  E(RB3LYP) =  -1097.74279089     A.U. after   13 cycles
 SCF Done:  E(RB3LYP) =  -1097.74286245     A.U. after   13 cycles
 SCF Done:  E(RB3LYP) =  -1097.74295749     A.U. after   13 cycles
 SCF Done:  E(RB3LYP) =  -1097.74301610     A.U. after   12 cycles
 SCF Done:  E(RB3LYP) =  -1097.74302163     A.U. after   12 cycles
 SCF Done:  E(RB3LYP) =  -1097.74303144     A.U. after   10 cycles
 SCF Done:  E(RB3LYP) =  -1097.74303303     A.U. after    9 cycles
 SCF Done:  E(RB3LYP) =  -1097.74303412     A.U. after    9 cycles
 SCF Done:  E(RB3LYP) =  -1097.74303444     A.U. after    8 cycles
 SCF Done:  E(RB3LYP) =  -1097.74303474     A.U. after    8 cycles
 SCF Done:  E(RB3LYP) =  -1097.74303479     A.U. after    8 cycles
 Optimization completed.
    -- Stationary point found.
 Normal termination of Gaussian 16 at Sun Dec 13 16:09:49 2020.

 --------------------------------------------------------------------
 #N Geom=AllCheck Guess=TCheck SCRF=Check GenChk RB3LYP/6-31G(d) Freq
 --------------------------------------------------------------------

 Structure from the checkpoint file:  "JID_7655.chk"
 -------------------------------
 CID_150558713_JID_7655_neutraal
 -------------------------------
 Charge =  0 Multiplicity = 1

 SCF Done:  E(RB3LYP) =  -1097.74303479     A.U. after    1 cycles

  Exact polarizability: 169.595 -27.662 178.079  29.759  20.789 114.709
 Approx polarizability: 256.749 -72.675 359.819  59.900  51.256 199.974

                      1                      2                      3
                      A                      A                      A
 Frequencies --     26.1312                32.0531                50.7663
 Red. masses --      5.8351                 8.6137                 3.9865
 Frc consts  --      0.0023                 0.0052                 0.0061
 IR Inten    --      0.4545                 0.0450                 0.2994

                      4                      5                      6
                      A                      A                      A
 Frequencies --     75.5879                99.8204               101.9465
 Red. masses --      7.6285                 4.8665                 8.9176
 Frc consts  --      0.0257                 0.0286                 0.0546
 IR Inten    --      0.5874                 1.5579                 0.3622

                      7                      8                      9
                      A                      A                      A
 Frequencies --    124.4352               185.5896               236.0797
 Red. masses --      6.7203                 6.0191                 8.8045
 Frc consts  --      0.0613                 0.1221                 0.2891
 IR Inten    --      0.9655                 1.7251                 2.9441

                     10                     11                     12
                      A                      A                      A
 Frequencies --    252.2705               294.2983               318.6710
 Red. masses --      3.0637                 1.1775                 2.9895
 Frc consts  --      0.1149                 0.0601                 0.1789
 IR Inten    --      3.0678                31.3510                 4.4398

                     13                     14                     15
                      A                      A                      A
 Frequencies --    324.5377               357.1870               417.8813
 Red. masses --      4.8751                 2.1652                 3.0381
 Frc consts  --      0.3025                 0.1628                 0.3126
 IR Inten    --      1.1680                 0.4943                 0.0973

                     16                     17                     18
                      A                      A                      A
 Frequencies --    430.0460               455.7431               485.2303
 Red. masses --      4.6320                 6.9653                 7.7812
 Frc consts  --      0.5047                 0.8524                 1.0794
 IR Inten    --      1.7591                 9.9808                 5.4009

                     19                     20                     21
                      A                      A                      A
 Frequencies --    511.7125               525.1739               533.2852
 Red. masses --      4.1531                10.5190                 5.0905
 Frc consts  --      0.6407                 1.7094                 0.8530
 IR Inten    --      3.5109                16.3165                42.7068

                     22                     23                     24
                      A                      A                      A
 Frequencies --    548.2267               584.3645               638.2193
 Red. masses --      2.2602                 2.8404                 2.9303
 Frc consts  --      0.4002                 0.5715                 0.7032
 IR Inten    --    125.8173                43.9779                92.0715

                     25                     26                     27
                      A                      A                      A
 Frequencies --    638.4558               662.4690               676.2060
 Red. masses --      6.2008                 7.4721                 6.8435
 Frc consts  --      1.4892                 1.9321                 1.8437
 IR Inten    --      2.1243                13.7043                 7.6988

                     28                     29                     30
                      A                      A                      A
 Frequencies --    693.4065               714.3840               753.0673
 Red. masses --      4.0873                 1.8206                 3.1218
 Frc consts  --      1.1579                 0.5474                 1.0431
 IR Inten    --     45.3825                27.1143                14.1760

                     31                     32                     33
                      A                      A                      A
 Frequencies --    773.3549               789.5003               858.6992
 Red. masses --      2.6659                 3.7948                 1.2520
 Frc consts  --      0.9394                 1.3936                 0.5439
 IR Inten    --     12.8202                 3.9615                 0.1956

                     34                     35                     36
                      A                      A                      A
 Frequencies --    902.2158               911.4052               943.4240
 Red. masses --      2.5273                 1.7407                 1.9570
 Frc consts  --      1.2121                 0.8519                 1.0262
 IR Inten    --      1.2939                 2.7728                 7.1105

                     37                     38                     39
                      A                      A                      A
 Frequencies --    961.7991               964.7042               990.9580
 Red. masses --      2.8274                 1.4368                 1.2454
 Frc consts  --      1.5410                 0.7878                 0.7206
 IR Inten    --      4.3212                 0.2372                 0.4411

                     40                     41                     42
                      A                      A                      A
 Frequencies --   1023.0531              1046.1482              1061.6491
 Red. masses --      6.2163                 2.2875                 2.1921
 Frc consts  --      3.8334                 1.4750                 1.4557
 IR Inten    --      0.1587                16.9571                 0.6392

                     43                     44                     45
                      A                      A                      A
 Frequencies --   1115.8646              1126.8027              1169.0110
 Red. masses --      1.6513                 2.0593                 2.0270
 Frc consts  --      1.2114                 1.5405                 1.6320
 IR Inten    --      2.3885                24.0621                 3.0549

                     46                     47                     48
                      A                      A                      A
 Frequencies --   1193.5415              1215.5215              1216.4193
 Red. masses --      1.0974                 1.1803                 1.5196
 Frc consts  --      0.9211                 1.0275                 1.3248
 IR Inten    --      0.0244                 1.4677                 5.0357

                     49                     50                     51
                      A                      A                      A
 Frequencies --   1235.5255              1248.0294              1295.6328
 Red. masses --      2.7485                 1.5266                 4.9296
 Frc consts  --      2.4720                 1.4010                 4.8756
 IR Inten    --      3.5438                12.4603                 4.7628

                     52                     53                     54
                      A                      A                      A
 Frequencies --   1340.2537              1354.8244              1367.6940
 Red. masses --      2.1920                 2.1769                 2.5432
 Frc consts  --      2.3199                 2.3543                 2.8029
 IR Inten    --     82.3756                34.1714                 1.5060

                     55                     56                     57
                      A                      A                      A
 Frequencies --   1375.4438              1385.3552              1409.7677
 Red. masses --      1.3224                 1.7461                 5.5453
 Frc consts  --      1.4740                 1.9745                 6.4934
 IR Inten    --      0.8892                16.8204               148.0411

                     58                     59                     60
                      A                      A                      A
 Frequencies --   1503.6818              1505.5224              1519.5127
 Red. masses --      1.4160                 1.5201                 1.1118
 Frc consts  --      1.8864                 2.0300                 1.5125
 IR Inten    --      6.9520                 4.0412                 5.4887

                     61                     62                     63
                      A                      A                      A
 Frequencies --   1549.4802              1600.8670              1622.6658
 Red. masses --      2.2594                 3.4211                 9.8889
 Frc consts  --      3.1960                 5.1657                15.3412
 IR Inten    --      7.7116               109.3184               122.1824

                     64                     65                     66
                      A                      A                      A
 Frequencies --   1647.8254              1669.5619              1677.1901
 Red. masses --      5.5387                 5.6180                 1.4349
 Frc consts  --      8.8609                 9.2265                 2.3781
 IR Inten    --      0.4920                 3.0130               202.1454

                     67                     68                     69
                      A                      A                      A
 Frequencies --   2284.5640              3048.1022              3055.8158
 Red. masses --     13.9935                 1.0606                 1.0612
 Frc consts  --     43.0313                 5.8060                 5.8386
 IR Inten    --    640.8278                17.0003                57.1535

                     70                     71                     72
                      A                      A                      A
 Frequencies --   3089.7001              3108.2352              3172.2089
 Red. masses --      1.1048                 1.1016                 1.0869
 Frc consts  --      6.2138                 6.2707                 6.4441
 IR Inten    --     22.9253                17.2076                 9.3503

                     73                     74                     75
                      A                      A                      A
 Frequencies --   3180.1796              3190.0130              3198.5740
 Red. masses --      1.0864                 1.0899                 1.0938
 Frc consts  --      6.4733                 6.5349                 6.5935
 IR Inten    --      3.8937                 7.9782                39.0069

                     76                     77                     78
                      A                      A                      A
 Frequencies --   3210.8424              3558.2262              3667.3632
 Red. masses --      1.0979                 1.0472                 1.0998
 Frc consts  --      6.6688                 7.8116                 8.7151
 IR Inten    --     16.0950                49.0044                27.5561

 - Thermochemistry -
 -------------------
 Temperature   298.150 Kelvin.  Pressure   1.00000 Atm.
 Atom     1 has atomic number  6 and mass  12.00000

 Molecular mass:   245.07352 amu.
 Principal axes and moments of inertia in atomic units:
                           1         2         3
     Eigenvalues --  2807.066854787.446315878.35837
           X            0.99984   0.01624   0.00714
           Y           -0.01661   0.99826   0.05660
           Z           -0.00621  -0.05671   0.99837
 This molecule is an asymmetric top.
 Rotational symmetry number  1.
 Warning -- assumption of classical behavior for rotation
           may cause significant error
 Rotational temperatures (Kelvin)      0.03086     0.01809     0.01473
 Rotational constants (GHZ):           0.64293     0.37697     0.30701
 Zero-point vibrational energy     562747.1 (Joules/Mol)
                                  134.49980 (Kcal/Mol)
 Warning -- explicit consideration of  23 degrees of freedom as
           vibrations may cause significant error
 Vibrational temperatures:     37.60    46.12    73.04   108.75   143.62
          (Kelvin)            146.68   179.03   267.02   339.67   362.96
                              423.43   458.50   466.94   513.91   601.24
                              618.74   655.71   698.14   736.24   755.61
                              767.28   788.78   840.77   918.26   918.60
                              953.15   972.91   997.66  1027.84  1083.50
                             1112.69  1135.91  1235.48  1298.09  1311.31
                             1357.38  1383.81  1387.99  1425.77  1471.95
                             1505.17  1527.48  1605.48  1621.22  1681.95
                             1717.24  1748.86  1750.16  1777.65  1795.64
                             1864.13  1928.33  1949.29  1967.81  1978.96
                             1993.22  2028.34  2163.46  2166.11  2186.24
                             2229.36  2303.29  2334.65  2370.85  2402.13
                             2413.10  3286.98  4385.54  4396.64  4445.39
                             4472.06  4564.10  4575.57  4589.72  4602.03
                             4619.69  5119.49  5276.52

 Zero-point correction=                           0.214339 (Hartree/Particle)
 Thermal correction to Energy=                    0.229573
 Thermal correction to Enthalpy=                  0.230517
 Thermal correction to Gibbs Free Energy=         0.170111
 Sum of electronic and zero-point Energies=          -1097.528696
 Sum of electronic and thermal Energies=             -1097.513462
 Sum of electronic and thermal Enthalpies=           -1097.512517
 Sum of electronic and thermal Free Energies=        -1097.572924

                     E (Thermal)             CV                S
                      KCal/Mol        Cal/Mol-Kelvin    Cal/Mol-Kelvin
 Total                  144.059             57.576            127.136
 Electronic               0.000              0.000              0.000
 Translational            0.889              2.981             42.390
 Rotational               0.889              2.981             32.735
 Vibrational            142.282             51.614             52.011
 Vibration     1          0.593              1.985              6.103
 Vibration     2          0.594              1.983              5.698
 Vibration     3          0.595              1.977              4.787
 Vibration     4          0.599              1.965              4.002
 Vibration     5          0.604              1.949              3.458
 Vibration     6          0.604              1.948              3.417
 Vibration     7          0.610              1.929              3.030
 Vibration     8          0.632              1.860              2.271
 Vibration     9          0.655              1.786              1.832
 Vibration    10          0.664              1.759              1.715
 Vibration    11          0.689              1.684              1.449
 Vibration    12          0.705              1.638              1.317
 Vibration    13          0.709              1.626              1.287
 Vibration    14          0.732              1.560              1.134
 Vibration    15          0.781              1.431              0.899
 Vibration    16          0.791              1.405              0.859
 Vibration    17          0.814              1.348              0.779
 Vibration    18          0.841              1.283              0.696
 Vibration    19          0.867              1.224              0.629
 Vibration    20          0.880              1.194              0.598
 Vibration    21          0.888              1.176              0.580
 Vibration    22          0.903              1.144              0.548
 Vibration    23          0.941              1.065              0.477

 Optimization completed.
    -- Stationary point found.
 Normal termination of Gaussian 16 at Sun Dec 13 16:20:55 2020.

 ----------------------------------------------------------------------
 # B3LYP/6-311++G(d,p) empiricaldispersion=gd3bj scf=xqc pop=npa geom=c
 heck
 ----------------------------------------------------------------------

 ---------------------------------------
 CID_150558713_JID_7655_Energie_neutraal
 ---------------------------------------
 Structure from the checkpoint file:  "JID_7655.chk"
 Charge =  0 Multiplicity = 1

 SCF Done:  E(RB3LYP) =  -1097.96028020     A.U. after   17 cycles
 Normal termination of Gaussian 16 at Sun Dec 13 16:26:14 2020.

 ----------------------------------------------------------------------
 # B3LYP/6-311++G(d,p) empiricaldispersion=gd3bj scf=xqc pop=npa geom=c
 heck
 ----------------------------------------------------------------------

 -------------------------------------
 CID_150558713_JID_7655_Energie_kation
 -------------------------------------
 Structure from the checkpoint file:  "JID_7655.chk"
 Charge =  1 Multiplicity = 2

 SCF Done:  E(UB3LYP) =  -1097.69075154     A.U. after   26 cycles
 Normal termination of Gaussian 16 at Sun Dec 13 16:38:07 2020.
 Gaussian 16:  ES64L-G16RevA.03 25-Dec-2016

 ----------------------------------------------------------------------
 # B3LYP/6-311++G(d,p) empiricaldispersion=gd3bj scf=xqc pop=npa geom=c
 heck
 ----------------------------------------------------------------------

 ------------------------------------
 CID_150558713_JID_7655_Energie_anion
 ------------------------------------
 Structure from the checkpoint file:  "JID_7655.chk"
 Charge = -1 Multiplicity = 2

                         Standard orientation:
 ---------------------------------------------------------------------
 Center     Atomic      Atomic             Coordinates (Angstroms)
 Number     Number       Type             X           Y           Z
 ---------------------------------------------------------------------
      1          6           0       -3.081182    0.825548    1.223971
      2          6           0       -1.911056    0.438253    1.878378
      3          6           0       -1.190293   -0.666797    1.426592
      4          6           0       -1.619866   -1.396118    0.311624
      5          6           0       -2.801831   -1.006204   -0.327657
      6          6           0       -3.529438    0.094466    0.122712
      7          6           0       -0.760537   -2.492646   -0.266415
      8          6           0        0.210313   -1.938250   -1.348744
      9          6           0        1.097805   -0.857528   -0.823601
     10          6           0        0.863619    0.488377   -0.790593
     11          7           0        1.743811    1.285537   -0.084558
     12          6           0        2.664944    0.550503    0.468008
     13         16           0        2.528088   -1.183875    0.153978
     14          7           0        3.652553    1.047944    1.285323
     15          7           0       -0.236967    1.051937   -1.456185
     16          7           0       -0.541700    2.213333   -1.152539
     17          7           0       -0.933186    3.269228   -0.981354
     18          1           0       -3.640105    1.690317    1.569917
     19          1           0       -1.555113    1.000319    2.737305
     20          1           0       -0.271662   -0.956155    1.930492
     21          1           0       -3.144667   -1.560975   -1.198332
     22          1           0       -4.442266    0.385902   -0.389584
     23          1           0       -0.172879   -2.972513    0.525083
     24          1           0       -1.382389   -3.270223   -0.726297
     25          1           0        0.799323   -2.764231   -1.765463
     26          1           0       -0.379907   -1.516360   -2.169163
     27          1           0        4.527644    0.540960    1.300579
     28          1           0        3.766174    2.051462    1.201365
 ---------------------------------------------------------------------

 SCF Done:  E(UB3LYP) =  -1097.95277159     A.U. after   33 cycles
 SCF Done:  E(UB3LYP) =  -1097.95277159     a.u. after    1 cycles

 The electronic state is 2-A.
 Alpha  occ. eigenvalues --  -88.77365 -14.37146 -14.27496 -14.26020 -14.22897
 Alpha  occ. eigenvalues --  -14.20273 -10.16954 -10.13741 -10.09077 -10.08898
 Alpha  occ. eigenvalues --  -10.08796 -10.08579 -10.08504 -10.08446 -10.08315
 Alpha  occ. eigenvalues --  -10.08174 -10.08042  -7.86008  -5.82313  -5.81964
 Alpha  occ. eigenvalues --   -5.81533  -1.03613  -0.89769  -0.86765  -0.80041
 Alpha  occ. eigenvalues --   -0.77020  -0.72275  -0.68476  -0.65644  -0.65314
 Alpha  occ. eigenvalues --   -0.62867  -0.55889  -0.51958  -0.51584  -0.49990
 Alpha  occ. eigenvalues --   -0.47876  -0.44398  -0.42330  -0.41427  -0.40778
 Alpha  occ. eigenvalues --   -0.38968  -0.37959  -0.37083  -0.36599  -0.35019
 Alpha  occ. eigenvalues --   -0.34964  -0.33418  -0.32795  -0.31496  -0.30741
 Alpha  occ. eigenvalues --   -0.29806  -0.27556  -0.26690  -0.26015  -0.24980
 Alpha  occ. eigenvalues --   -0.24428  -0.23615  -0.21085  -0.19019  -0.18524
 Alpha  occ. eigenvalues --   -0.16531  -0.16030  -0.15466  -0.09631   0.04178
 Alpha virt. eigenvalues --    0.05657   0.06301   0.06925   0.07124   0.07605
 Alpha virt. eigenvalues --    0.08227   0.08492   0.08897   0.09326   0.09610
 Alpha virt. eigenvalues --    0.09896   0.10628   0.11557   0.11901   0.12636

  Beta  occ. eigenvalues --  -88.77354 -14.37010 -14.27352 -14.26051 -14.22799
  Beta  occ. eigenvalues --  -14.20274 -10.16909 -10.13707 -10.09033 -10.08897
  Beta  occ. eigenvalues --  -10.08788 -10.08576 -10.08501 -10.08444 -10.08299
  Beta  occ. eigenvalues --  -10.08160 -10.08038  -7.85993  -5.82304  -5.81956
  Beta  occ. eigenvalues --   -5.81515  -1.03380  -0.89694  -0.86679  -0.79929
  Beta  occ. eigenvalues --   -0.77008  -0.72223  -0.68445  -0.65630  -0.65222
  Beta  occ. eigenvalues --   -0.62810  -0.55842  -0.51882  -0.51498  -0.49928
  Beta  occ. eigenvalues --   -0.47816  -0.44310  -0.42302  -0.41159  -0.40554
  Beta  occ. eigenvalues --   -0.38879  -0.37716  -0.37014  -0.36556  -0.34969
  Beta  occ. eigenvalues --   -0.34631  -0.33388  -0.32730  -0.31422  -0.30692
  Beta  occ. eigenvalues --   -0.29768  -0.27503  -0.26667  -0.25970  -0.24943
  Beta  occ. eigenvalues --   -0.24394  -0.23439  -0.20916  -0.18930  -0.18489
  Beta  occ. eigenvalues --   -0.16514  -0.15985  -0.15436  -0.09437
  Beta virt. eigenvalues --    0.06221   0.06994   0.07192   0.07363   0.07560
  Beta virt. eigenvalues --    0.07822   0.08438   0.08712   0.09123   0.09655
  Beta virt. eigenvalues --    0.09919   0.10190   0.10830   0.11934   0.12142

 Mulliken charges and spin densities:
               1          2
     1  C    0.183798  -0.444764
     2  C   -0.512795   0.071432
     3  C   -0.599911   0.455667
     4  C    0.189276   0.727310
     5  C    0.121233  -0.480795
     6  C   -0.302249  -0.024517
     7  C    0.602016  -1.292059
     8  C    0.724789  -1.155635
     9  C    0.036121   1.020996
    10  C   -0.619559  -0.626931
    11  N    0.096278  -0.103010
    12  C   -0.159315   0.028776
    13  S    0.619370  -0.550414
    14  N   -0.350445   0.130209
    15  N   -0.227119   0.482781
    16  N    0.263217  -0.210369
    17  N    0.055084  -0.197917
    18  H    0.153378  -0.017898
    19  H    0.131344   0.041206
    20  H   -0.012057   0.184085
    21  H   -0.204504   0.371999
    22  H   -0.049207   0.212968
    23  H    0.154999   0.001676
    24  H   -0.273147   0.433678
    25  H   -0.207385   0.393307
    26  H    0.131980   0.058658
    27  H   -0.761204   1.039581
    28  H   -0.183987   0.449979
 Sum of Mulliken charges =  -1.00000   1.00000

 Dipole moment (field-independent basis, Debye):
    X=             -6.9733    Y=             -0.9827    Z=             -0.0063  Tot=              7.0422
 Quadrupole moment (field-independent basis, Debye-Ang):
   XX=           -187.7900   YY=           -148.8162   ZZ=           -133.0409
   XY=             -9.3769   XZ=            -14.7579   YZ=             -2.6700

 Summary of Natural Population Analysis:

                                       Natural Population
                Natural  -----------------------------------------------
    Atom  No    Charge         Core      Valence    Rydberg      Total
 -----------------------------------------------------------------------
      C    1   -0.10668      0.99957     2.09799    0.00913     3.10668
      C    2   -0.10083      0.99956     2.09194    0.00932     3.10083
      C    3   -0.09927      0.99951     2.09093    0.00883     3.09927
      C    4   -0.01325      0.99950     2.00287    0.01088     3.01325
      C    5   -0.09707      0.99950     2.08749    0.01007     3.09707
      C    6   -0.10325      0.99957     2.09298    0.01071     3.10325
      C    7   -0.19301      0.99959     2.18370    0.00972     3.19301
      C    8   -0.20122      0.99957     2.19132    0.01033     3.20122
      C    9   -0.12143      0.99941     2.10902    0.01300     3.12143
      C   10    0.14456      0.99932     1.83913    0.01700     2.85544
      N   11   -0.28671      0.99961     2.77620    0.01090     3.78671
      C   12    0.14870      0.99963     1.83064    0.02103     2.85130
      S   13    0.16858      4.99942     2.81341    0.01859     7.83142
      N   14   -0.39410      0.99969     2.88201    0.01241     3.89410
      N   15   -0.18160      0.99962     2.66862    0.01336     3.68160
      N   16    0.13986      0.99970     2.34489    0.01556     3.36014
      N   17   -0.02421      0.99982     2.51117    0.01322     3.52421
      H   18    0.09922      0.00000     0.39996    0.00082     0.40078
      H   19    0.10087      0.00000     0.39827    0.00086     0.39913
      H   20    0.10441      0.00000     0.39421    0.00138     0.39559
      H   21    0.10048      0.00000     0.39837    0.00115     0.39952
      H   22    0.09902      0.00000     0.40017    0.00080     0.40098
      H   23    0.10023      0.00000     0.39859    0.00118     0.39977
      H   24    0.10268      0.00000     0.39584    0.00148     0.39732
      H   25    0.10402      0.00000     0.39482    0.00116     0.39598
      H   26    0.11304      0.00000     0.38520    0.00176     0.38696
      H   27    0.20040      0.00000     0.27202    0.02758     0.29960
      H   28    0.19657      0.00000     0.29970    0.00373     0.30343
 =======================================================================
   * Total *   -0.00000     20.99259    42.75148    0.25594    64.00000

 Normal termination of Gaussian 16 at Sun Dec 13 16:52:55 2020.
