 Gaussian 16, Revision A.03,

 -----------------------------------------------------------
 # opt freq B3LYP/6-31G(d) empiricaldispersion=gd3bj scf=xqc
 -----------------------------------------------------------

 ------------------------------
 CID_57879740_JID_2478_neutraal
 ------------------------------
 Symbolic Z-matrix:
 Charge =  0 Multiplicity = 1

 SCF Done:  E(RB3LYP) =  -840.665887009     A.U. after   15 cycles
 SCF Done:  E(RB3LYP) =  -840.669351633     A.U. after   12 cycles
 SCF Done:  E(RB3LYP) =  -840.669703540     A.U. after   11 cycles
 SCF Done:  E(RB3LYP) =  -840.669763086     A.U. after   10 cycles
 SCF Done:  E(RB3LYP) =  -840.669823558     A.U. after   10 cycles
 SCF Done:  E(RB3LYP) =  -840.669865445     A.U. after   10 cycles
 SCF Done:  E(RB3LYP) =  -840.669891351     A.U. after   10 cycles
 SCF Done:  E(RB3LYP) =  -840.669894025     A.U. after    9 cycles
 SCF Done:  E(RB3LYP) =  -840.669895691     A.U. after    8 cycles
 SCF Done:  E(RB3LYP) =  -840.669897870     A.U. after    9 cycles
 SCF Done:  E(RB3LYP) =  -840.669899238     A.U. after    9 cycles
 SCF Done:  E(RB3LYP) =  -840.669899512     A.U. after    8 cycles
 Optimization completed.
    -- Stationary point found.
 Normal termination of Gaussian 16 at Wed Dec  9 17:24:57 2020.

 --------------------------------------------------------------------
 #N Geom=AllCheck Guess=TCheck SCRF=Check GenChk RB3LYP/6-31G(d) Freq
 --------------------------------------------------------------------

 Structure from the checkpoint file:  "JID_2478.chk"
 ------------------------------
 CID_57879740_JID_2478_neutraal
 ------------------------------
 Charge =  0 Multiplicity = 1

 SCF Done:  E(RB3LYP) =  -840.669899512     A.U. after    1 cycles

  Exact polarizability: 216.749  -1.699 126.125   0.215   1.021  57.991
 Approx polarizability: 316.521  -4.925 214.875   1.101   1.530  90.480

                      1                      2                      3
                      A                      A                      A
 Frequencies --     50.2590                78.9566               103.6960
 Red. masses --      4.9288                 1.2115                 1.4284
 Frc consts  --      0.0073                 0.0044                 0.0090
 IR Inten    --      0.8291                 0.6893                 0.3372

                      4                      5                      6
                      A                      A                      A
 Frequencies --    123.5409               170.5787               187.4511
 Red. masses --      1.6509                 2.5951                 4.7175
 Frc consts  --      0.0148                 0.0445                 0.0977
 IR Inten    --      1.1720                 0.0531                 0.3995

                      7                      8                      9
                      A                      A                      A
 Frequencies --    249.4211               291.5058               309.2943
 Red. masses --      3.6037                 2.0814                 2.7995
 Frc consts  --      0.1321                 0.1042                 0.1578
 IR Inten    --      5.5999                37.6718                 9.7341

                     10                     11                     12
                      A                      A                      A
 Frequencies --    325.5144               350.3004               428.2843
 Red. masses --      2.4317                 2.4793                 3.2761
 Frc consts  --      0.1518                 0.1792                 0.3541
 IR Inten    --     24.7677                20.7053                 1.9794

                     13                     14                     15
                      A                      A                      A
 Frequencies --    439.8202               477.2611               504.7033
 Red. masses --      5.9453                 3.9582                 7.3895
 Frc consts  --      0.6776                 0.5312                 1.1090
 IR Inten    --      2.4186                 1.8478                 2.6424

                     16                     17                     18
                      A                      A                      A
 Frequencies --    546.1218               573.9070               633.4955
 Red. masses --      4.4152                 6.5544                 5.5476
 Frc consts  --      0.7759                 1.2719                 1.3117
 IR Inten    --      1.2982                 1.5592                 1.7770

                     19                     20                     21
                      A                      A                      A
 Frequencies --    679.8254               715.7617               722.9750
 Red. masses --      5.1513                 6.6910                 4.0980
 Frc consts  --      1.4027                 2.0197                 1.2620
 IR Inten    --     13.1212                 2.3554                 1.8720

                     22                     23                     24
                      A                      A                      A
 Frequencies --    749.5715               846.2833               866.9966
 Red. masses --      1.3080                 1.3682                 4.5614
 Frc consts  --      0.4330                 0.5773                 2.0202
 IR Inten    --     56.0027                 0.8853                 2.3633

                     25                     26                     27
                      A                      A                      A
 Frequencies --    911.8583               924.6511               959.6001
 Red. masses --      1.3456                 3.0939                 1.2294
 Frc consts  --      0.6592                 1.5585                 0.6670
 IR Inten    --      1.7738                 3.4279                 0.0450

                     28                     29                     30
                      A                      A                      A
 Frequencies --    996.8632              1012.1617              1054.6923
 Red. masses --      1.3453                 1.2458                 2.6504
 Frc consts  --      0.7877                 0.7520                 1.7371
 IR Inten    --      0.6396                 6.3576                12.8004

                     31                     32                     33
                      A                      A                      A
 Frequencies --   1080.0112              1103.8886              1116.5648
 Red. masses --      2.9284                 1.5670                 2.3316
 Frc consts  --      2.0125                 1.1250                 1.7127
 IR Inten    --      7.6956                 1.5324                10.7285

                     34                     35                     36
                      A                      A                      A
 Frequencies --   1155.4493              1192.6565              1201.0841
 Red. masses --      1.5011                 1.1072                 3.3431
 Frc consts  --      1.1808                 0.9279                 2.8415
 IR Inten    --     20.6607                 0.9642                67.7079

                     37                     38                     39
                      A                      A                      A
 Frequencies --   1274.1913              1295.6400              1316.7763
 Red. masses --      3.5576                 1.4535                 2.6368
 Frc consts  --      3.4031                 1.4376                 2.6937
 IR Inten    --     55.2417                 2.3514                19.5879

                     40                     41                     42
                      A                      A                      A
 Frequencies --   1362.5725              1434.0062              1450.3086
 Red. masses --      4.6996                 1.4406                 1.6119
 Frc consts  --      5.1408                 1.7454                 1.9975
 IR Inten    --     56.0730                18.1981                37.8964

                     43                     44                     45
                      A                      A                      A
 Frequencies --   1454.3213              1503.2759              1514.1518
 Red. masses --      1.2358                 1.0831                 1.4069
 Frc consts  --      1.5400                 1.4421                 1.9004
 IR Inten    --     26.0798                 1.6085                26.6021

                     46                     47                     48
                      A                      A                      A
 Frequencies --   1520.1961              1524.6349              1530.3244
 Red. masses --      1.1169                 2.6140                 1.3654
 Frc consts  --      1.5208                 3.5801                 1.8840
 IR Inten    --      7.3439               100.1363                17.9240

                     49                     50                     51
                      A                      A                      A
 Frequencies --   1532.2915              1646.7063              1653.3338
 Red. masses --      1.1154                 6.1313                 5.9227
 Frc consts  --      1.5430                 9.7957                 9.5387
 IR Inten    --     17.5479                 6.8366                48.9599

                     52                     53                     54
                      A                      A                      A
 Frequencies --   1748.3309              3012.2518              3017.8849
 Red. masses --      7.0919                 1.0427                 1.0417
 Frc consts  --     12.7720                 5.5744                 5.5896
 IR Inten    --    236.1329                42.8193               112.9184

                     55                     56                     57
                      A                      A                      A
 Frequencies --   3055.6647              3065.7661              3100.3750
 Red. masses --      1.1003                 1.0926                 1.0996
 Frc consts  --      6.0528                 6.0507                 6.2275
 IR Inten    --     35.1876                28.7638                30.5980

                     58                     59                     60
                      A                      A                      A
 Frequencies --   3119.1728              3187.2618              3196.7495
 Red. masses --      1.0965                 1.0860                 1.0885
 Frc consts  --      6.2853                 6.5003                 6.5537
 IR Inten    --     27.4592                 4.4912                 4.0703

                     61                     62                     63
                      A                      A                      A
 Frequencies --   3205.1874              3217.1068              3646.5598
 Red. masses --      1.0929                 1.0971                 1.0768
 Frc consts  --      6.6154                 6.6902                 8.4361
 IR Inten    --     23.0575                23.6313                26.4920

 - Thermochemistry -
 -------------------
 Temperature   298.150 Kelvin.  Pressure   1.00000 Atm.
 Atom     1 has atomic number  6 and mass  12.00000

 Molecular mass:   177.06122 amu.
 Principal axes and moments of inertia in atomic units:
                           1         2         3
     Eigenvalues --   872.795913445.717224291.46540
           X            0.99998  -0.00678  -0.00064
           Y            0.00678   0.99998  -0.00087
           Z            0.00065   0.00087   1.00000
 This molecule is an asymmetric top.
 Rotational symmetry number  1.
 Warning -- assumption of classical behavior for rotation
           may cause significant error
 Rotational temperatures (Kelvin)      0.09924     0.02514     0.02018
 Rotational constants (GHZ):           2.06777     0.52376     0.42054
 Zero-point vibrational energy     488794.4 (Joules/Mol)
                                  116.82467 (Kcal/Mol)
 Warning -- explicit consideration of  17 degrees of freedom as
           vibrations may cause significant error
 Vibrational temperatures:     72.31   113.60   149.20   177.75   245.42
          (Kelvin)            269.70   358.86   419.41   445.01   468.34
                              504.00   616.21   632.80   686.67   726.16
                              785.75   825.72   911.46   978.12  1029.82
                             1040.20  1078.47  1217.61  1247.41  1311.96
                             1330.37  1380.65  1434.26  1456.27  1517.47
                             1553.90  1588.25  1606.49  1662.43  1715.97
                             1728.09  1833.28  1864.14  1894.55  1960.44
                             2063.22  2086.67  2092.44  2162.88  2178.53
                             2187.22  2193.61  2201.80  2204.63  2369.24
                             2378.78  2515.46  4333.96  4342.06  4396.42
                             4410.95  4460.75  4487.79  4585.76  4599.41
                             4611.55  4628.70  5246.59

 Zero-point correction=                           0.186172 (Hartree/Particle)
 Thermal correction to Energy=                    0.197849
 Thermal correction to Enthalpy=                  0.198793
 Thermal correction to Gibbs Free Energy=         0.148255
 Sum of electronic and zero-point Energies=           -840.483728
 Sum of electronic and thermal Energies=              -840.472051
 Sum of electronic and thermal Enthalpies=            -840.471107
 Sum of electronic and thermal Free Energies=         -840.521644

                     E (Thermal)             CV                S
                      KCal/Mol        Cal/Mol-Kelvin    Cal/Mol-Kelvin
 Total                  124.152             43.978            106.366
 Electronic               0.000              0.000              0.000
 Translational            0.889              2.981             41.421
 Rotational               0.889              2.981             30.935
 Vibrational            122.375             38.016             34.010
 Vibration     1          0.595              1.977              4.807
 Vibration     2          0.600              1.963              3.917
 Vibration     3          0.605              1.946              3.384
 Vibration     4          0.610              1.929              3.044
 Vibration     5          0.626              1.879              2.429
 Vibration     6          0.632              1.857              2.253
 Vibration     7          0.662              1.764              1.735
 Vibration     8          0.687              1.690              1.465
 Vibration     9          0.699              1.656              1.366
 Vibration    10          0.710              1.624              1.282
 Vibration    11          0.727              1.575              1.165
 Vibration    12          0.790              1.409              0.864
 Vibration    13          0.800              1.383              0.827
 Vibration    14          0.834              1.300              0.717
 Vibration    15          0.860              1.240              0.646
 Vibration    16          0.901              1.148              0.552
 Vibration    17          0.930              1.088              0.497

                           ! Non-Optimized Parameters !
 Normal termination of Gaussian 16 at Wed Dec  9 17:29:43 2020.

 ----------------------------------------------------------------------
 # B3LYP/6-311++G(d,p) empiricaldispersion=gd3bj scf=xqc pop=npa geom=c
 heck
 ----------------------------------------------------------------------

 --------------------------------------
 CID_57879740_JID_2478_Energie_neutraal
 --------------------------------------
 Structure from the checkpoint file:  "JID_2478.chk"
 Charge =  0 Multiplicity = 1

 SCF Done:  E(RB3LYP) =  -840.812996011     A.U. after   15 cycles
 Normal termination of Gaussian 16 at Wed Dec  9 17:31:46 2020.

 ----------------------------------------------------------------------
 # B3LYP/6-311++G(d,p) empiricaldispersion=gd3bj scf=xqc pop=npa geom=c
 heck
 ----------------------------------------------------------------------

 ------------------------------------
 CID_57879740_JID_2478_Energie_kation
 ------------------------------------
 Structure from the checkpoint file:  "JID_2478.chk"
 Charge =  1 Multiplicity = 2

 SCF Done:  E(UB3LYP) =  -840.572413288     A.U. after   21 cycles
 Normal termination of Gaussian 16 at Wed Dec  9 17:36:06 2020.
 Gaussian 16:  ES64L-G16RevA.03 25-Dec-2016

 ----------------------------------------------------------------------
 # B3LYP/6-311++G(d,p) empiricaldispersion=gd3bj scf=xqc pop=npa geom=c
 heck
 ----------------------------------------------------------------------

 -----------------------------------
 CID_57879740_JID_2478_Energie_anion
 -----------------------------------
 Structure from the checkpoint file:  "JID_2478.chk"
 Charge = -1 Multiplicity = 2

                         Standard orientation:
 ---------------------------------------------------------------------
 Center     Atomic      Atomic             Coordinates (Angstroms)
 Number     Number       Type             X           Y           Z
 ---------------------------------------------------------------------
      1          6           0       -3.259915    1.584883   -0.024799
      2          6           0       -2.614377    0.222367    0.017311
      3          6           0       -1.278082    0.075747   -0.027845
      4          7           0       -0.325547    1.106912   -0.086526
      5          6           0        1.004931    0.719945   -0.027595
      6          6           0        2.120395    1.554866    0.013903
      7          6           0        3.392325    0.975093    0.053793
      8          6           0        3.550711   -0.411173    0.049048
      9          6           0        2.429573   -1.249843    0.010099
     10          6           0        1.166328   -0.676802   -0.024699
     11         16           0       -0.406390   -1.498286   -0.066702
     12          6           0       -3.546487   -0.952922    0.121924
     13          1           0       -2.604473    2.357005   -0.443493
     14          1           0       -3.584902    1.923286    0.970754
     15          1           0       -4.157993    1.560792   -0.655655
     16          1           0       -0.596233    2.038981    0.188092
     17          1           0        1.999810    2.634553    0.011775
     18          1           0        4.266134    1.619043    0.087227
     19          1           0        4.544707   -0.846333    0.077801
     20          1           0        2.545354   -2.329336    0.013466
     21          1           0       -4.237392   -0.832166    0.968534
     22          1           0       -4.168137   -1.054334   -0.779711
     23          1           0       -3.018210   -1.900258    0.267281
 ---------------------------------------------------------------------

 SCF Done:  E(UB3LYP) =  -840.799720977     A.U. after   33 cycles
 SCF Done:  E(UB3LYP) =  -840.799720976     a.u. after    1 cycles

 The electronic state is 2-A.
 Alpha  occ. eigenvalues --  -88.76739 -14.24592 -10.13368 -10.12319 -10.10797
 Alpha  occ. eigenvalues --  -10.08374 -10.07657 -10.07465 -10.07349 -10.07094
 Alpha  occ. eigenvalues --  -10.06579 -10.06318  -7.85359  -5.81718  -5.81371
 Alpha  occ. eigenvalues --   -5.80784  -0.87436  -0.75760  -0.71626  -0.69197
 Alpha  occ. eigenvalues --   -0.64637  -0.62806  -0.59449  -0.55211  -0.52111
 Alpha  occ. eigenvalues --   -0.49961  -0.45810  -0.43385  -0.38975  -0.37250
 Alpha  occ. eigenvalues --   -0.35323  -0.34320  -0.34058  -0.32891  -0.31585
 Alpha  occ. eigenvalues --   -0.30321  -0.28907  -0.28767  -0.27138  -0.26756
 Alpha  occ. eigenvalues --   -0.25148  -0.24781  -0.23553  -0.20656  -0.16368
 Alpha  occ. eigenvalues --   -0.13961  -0.07594   0.04502
 Alpha virt. eigenvalues --    0.06308   0.07170   0.07868   0.08033   0.08579
 Alpha virt. eigenvalues --    0.09127   0.09717   0.10238   0.11117   0.11243
 Alpha virt. eigenvalues --    0.11668   0.12259   0.12682   0.13402   0.14444

  Beta  occ. eigenvalues --  -88.76732 -14.24552 -10.13360 -10.12320 -10.10789
  Beta  occ. eigenvalues --  -10.08362 -10.07645 -10.07435 -10.07339 -10.07077
  Beta  occ. eigenvalues --  -10.06579 -10.06269  -7.85352  -5.81702  -5.81367
  Beta  occ. eigenvalues --   -5.80780  -0.87388  -0.75728  -0.71598  -0.69163
  Beta  occ. eigenvalues --   -0.64596  -0.62766  -0.59391  -0.55170  -0.52042
  Beta  occ. eigenvalues --   -0.49924  -0.45738  -0.43325  -0.38916  -0.37201
  Beta  occ. eigenvalues --   -0.35285  -0.34268  -0.34026  -0.32853  -0.31557
  Beta  occ. eigenvalues --   -0.30281  -0.28870  -0.28730  -0.27092  -0.26712
  Beta  occ. eigenvalues --   -0.25108  -0.24750  -0.23513  -0.20635  -0.16352
  Beta  occ. eigenvalues --   -0.13932  -0.07569
  Beta virt. eigenvalues --    0.06695   0.06949   0.07939   0.08130   0.08726
  Beta virt. eigenvalues --    0.09085   0.09266   0.09938   0.10896   0.11391
  Beta virt. eigenvalues --    0.11711   0.12036   0.12386   0.12724   0.14095

 Mulliken charges and spin densities:
               1          2
     1  C    2.125678  -2.902412
     2  C   -0.879026   1.197623
     3  C    2.112918  -1.673981
     4  N    0.053232   0.115552
     5  C   -0.826072  -0.512822
     6  C   -3.617584   2.684400
     7  C    0.809123  -1.215913
     8  C    1.242603  -1.347127
     9  C   -1.634658   1.554908
    10  C    4.076152  -1.991475
    11  S   -0.279300  -0.304981
    12  C   -0.901285   0.350599
    13  H   -0.546772   0.687793
    14  H   -0.234752   0.395990
    15  H   -0.180056   0.310270
    16  H   -0.293059   0.580981
    17  H   -1.063644   1.241319
    18  H   -0.330540   0.496868
    19  H   -0.191027   0.341274
    20  H   -0.347728   0.510114
    21  H    0.003117   0.127499
    22  H    0.023377   0.107726
    23  H   -0.120696   0.245798
 Sum of Mulliken charges =  -1.00000   1.00000

 Dipole moment (field-independent basis, Debye):
    X=             -0.3844    Y=             -6.3604    Z=             -0.4592  Tot=              6.3885
 Quadrupole moment (field-independent basis, Debye-Ang):
   XX=           -145.7281   YY=           -131.8216   ZZ=           -105.4123
   XY=              3.6920   XZ=              0.7135   YZ=             -0.5159

 Summary of Natural Population Analysis:

                                       Natural Population
                Natural  -----------------------------------------------
    Atom  No    Charge         Core      Valence    Rydberg      Total
 -----------------------------------------------------------------------
      C    1   -0.29106      0.99963     2.28497    0.00646     3.29106
      C    2   -0.07738      0.99944     2.06685    0.01109     3.07738
      C    3    0.02561      0.99934     1.95941    0.01564     2.97439
      N    4   -0.29767      0.99962     2.78703    0.01103     3.79767
      C    5    0.07936      0.99943     1.90850    0.01271     2.92064
      C    6   -0.11606      0.99952     2.10611    0.01043     3.11606
      C    7   -0.09787      0.99957     2.08756    0.01074     3.09787
      C    8   -0.11538      0.99957     2.10585    0.00996     3.11538
      C    9   -0.10838      0.99950     2.09824    0.01064     3.10838
      C   10   -0.09761      0.99938     2.08691    0.01132     3.09761
      S   11    0.15353      4.99948     2.82825    0.01874     7.84647
      C   12   -0.28591      0.99963     2.28146    0.00481     3.28591
      H   13    0.10389      0.00000     0.39386    0.00225     0.39611
      H   14    0.10263      0.00000     0.39573    0.00164     0.39737
      H   15    0.10038      0.00000     0.39830    0.00132     0.39962
      H   16    0.20951      0.00000     0.28278    0.00770     0.29049
      H   17    0.10972      0.00000     0.38681    0.00347     0.39028
      H   18    0.10190      0.00000     0.39684    0.00126     0.39810
      H   19    0.10051      0.00000     0.39838    0.00112     0.39949
      H   20    0.10254      0.00000     0.39639    0.00107     0.39746
      H   21    0.09902      0.00000     0.39952    0.00146     0.40098
      H   22    0.09752      0.00000     0.40084    0.00164     0.40248
      H   23    0.10122      0.00000     0.39769    0.00109     0.39878
 =======================================================================
   * Total *    0.00000     15.99411    30.84829    0.15760    47.00000

 Normal termination of Gaussian 16 at Wed Dec  9 17:43:51 2020.
