 Gaussian 16, Revision A.03,

 -----------------------------------------------------------
 # opt freq B3LYP/6-31G(d) empiricaldispersion=gd3bj scf=xqc
 -----------------------------------------------------------

 ------------------------------
 CID_89989542_JID_2205_neutraal
 ------------------------------
 Symbolic Z-matrix:
 Charge =  0 Multiplicity = 1

 SCF Done:  E(RB3LYP) =  -594.302305625     A.U. after   15 cycles
 SCF Done:  E(RB3LYP) =  -594.304445540     A.U. after   14 cycles
 SCF Done:  E(RB3LYP) =  -594.303755051     A.U. after   13 cycles
 SCF Done:  E(RB3LYP) =  -594.306270385     A.U. after   13 cycles
 SCF Done:  E(RB3LYP) =  -594.307953295     A.U. after   14 cycles
 SCF Done:  E(RB3LYP) =  -594.308685711     A.U. after   12 cycles
 SCF Done:  E(RB3LYP) =  -594.309023920     A.U. after   12 cycles
 SCF Done:  E(RB3LYP) =  -594.309142224     A.U. after   11 cycles
 SCF Done:  E(RB3LYP) =  -594.309226951     A.U. after   12 cycles
 SCF Done:  E(RB3LYP) =  -594.309284272     A.U. after   10 cycles
 SCF Done:  E(RB3LYP) =  -594.309457881     A.U. after    8 cycles
 SCF Done:  E(RB3LYP) =  -594.309458321     A.U. after    8 cycles
 SCF Done:  E(RB3LYP) =  -594.309458516     A.U. after    8 cycles
 SCF Done:  E(RB3LYP) =  -594.309458608     A.U. after    8 cycles
 SCF Done:  E(RB3LYP) =  -594.309458627     A.U. after    7 cycles
 Optimization completed.
    -- Stationary point found.
 Normal termination of Gaussian 16 at Wed Dec  9 16:59:03 2020.

 --------------------------------------------------------------------
 #N Geom=AllCheck Guess=TCheck SCRF=Check GenChk RB3LYP/6-31G(d) Freq
 --------------------------------------------------------------------

 Structure from the checkpoint file:  "JID_2205.chk"
 ------------------------------
 CID_89989542_JID_2205_neutraal
 ------------------------------
 Charge =  0 Multiplicity = 1

 SCF Done:  E(RB3LYP) =  -594.309458627     A.U. after    1 cycles

  Exact polarizability: 110.997   2.443 117.371  -4.186  -4.965  76.091
 Approx polarizability: 143.852   9.207 167.362  -9.714 -11.036 110.176

                      1                      2                      3
                      A                      A                      A
 Frequencies --     23.2589                35.7117                63.1896
 Red. masses --      3.3611                 3.1702                 5.3659
 Frc consts  --      0.0011                 0.0024                 0.0126
 IR Inten    --      0.0483                 0.4938                 1.6407

                      4                      5                      6
                      A                      A                      A
 Frequencies --     70.9780                88.0376               127.9408
 Red. masses --      3.6097                 3.5334                 3.7352
 Frc consts  --      0.0107                 0.0161                 0.0360
 IR Inten    --      0.4456                 0.1837                 4.4854

                      7                      8                      9
                      A                      A                      A
 Frequencies --    144.8345               157.1188               209.8012
 Red. masses --      2.8856                 2.7218                 1.8227
 Frc consts  --      0.0357                 0.0396                 0.0473
 IR Inten    --      4.0481                 2.1167                 0.5594

                     10                     11                     12
                      A                      A                      A
 Frequencies --    253.4974               292.5922               316.4306
 Red. masses --      2.1369                 2.2962                 2.5416
 Frc consts  --      0.0809                 0.1158                 0.1499
 IR Inten    --      1.3643                 8.2219                 1.2855

                     13                     14                     15
                      A                      A                      A
 Frequencies --    340.1995               364.0316               451.0792
 Red. masses --      2.7336                 2.6669                 2.7135
 Frc consts  --      0.1864                 0.2082                 0.3253
 IR Inten    --     10.8292                 1.9416                 4.4556

                     16                     17                     18
                      A                      A                      A
 Frequencies --    480.1434               504.2350               556.9332
 Red. masses --      2.7111                 1.7456                 2.3145
 Frc consts  --      0.3682                 0.2615                 0.4230
 IR Inten    --      3.3412                 9.2159                11.3569

                     19                     20                     21
                      A                      A                      A
 Frequencies --    565.2099               622.0919               668.0494
 Red. masses --      3.2517                 2.2981                 1.5897
 Frc consts  --      0.6120                 0.5240                 0.4180
 IR Inten    --     18.2253                25.9962                81.2804

                     22                     23                     24
                      A                      A                      A
 Frequencies --    804.5928               807.4653               814.1122
 Red. masses --      1.8728                 1.6698                 3.7658
 Frc consts  --      0.7143                 0.6415                 1.4705
 IR Inten    --      3.5957                12.1643                29.4083

                     25                     26                     27
                      A                      A                      A
 Frequencies --    841.4574               870.2425               938.0279
 Red. masses --      2.1090                 2.5109                 2.1511
 Frc consts  --      0.8798                 1.1204                 1.1152
 IR Inten    --      2.4577                22.4838                18.2208

                     28                     29                     30
                      A                      A                      A
 Frequencies --    993.8056               994.5193              1044.7664
 Red. masses --      2.9603                 1.3927                 1.9646
 Frc consts  --      1.7226                 0.8116                 1.2634
 IR Inten    --     95.5643                14.6309                79.4070

                     31                     32                     33
                      A                      A                      A
 Frequencies --   1048.7965              1065.7606              1090.7463
 Red. masses --      1.1147                 2.4392                 1.5534
 Frc consts  --      0.7224                 1.6324                 1.0889
 IR Inten    --     12.4507                 6.2775                 6.2824

                     34                     35                     36
                      A                      A                      A
 Frequencies --   1103.7169              1125.1627              1140.2499
 Red. masses --      2.4861                 3.1390                 2.1375
 Frc consts  --      1.7843                 2.3414                 1.6374
 IR Inten    --     44.3760               153.4526                62.0315

                     37                     38                     39
                      A                      A                      A
 Frequencies --   1171.2271              1179.5240              1220.9315
 Red. masses --      3.8985                 2.9929                 1.9222
 Frc consts  --      3.1509                 2.4533                 1.6882
 IR Inten    --    120.6534                64.0538                19.3722

                     40                     41                     42
                      A                      A                      A
 Frequencies --   1278.8139              1303.0637              1322.7008
 Red. masses --      1.1721                 1.7234                 1.2047
 Frc consts  --      1.1293                 1.7241                 1.2418
 IR Inten    --      6.6420               137.2213                26.3811

                     43                     44                     45
                      A                      A                      A
 Frequencies --   1340.5166              1352.1218              1384.9115
 Red. masses --      1.1387                 1.1449                 1.4047
 Frc consts  --      1.2056                 1.2333                 1.5874
 IR Inten    --      7.6432                14.3019                20.3329

                     46                     47                     48
                      A                      A                      A
 Frequencies --   1407.2589              1419.9836              1441.3716
 Red. masses --      1.2298                 1.2245                 1.2714
 Frc consts  --      1.4349                 1.4547                 1.5563
 IR Inten    --     26.7608                 4.3293                25.9926

                     49                     50                     51
                      A                      A                      A
 Frequencies --   1447.6301              1449.7527              1467.5643
 Red. masses --      1.2519                 1.4229                 1.3761
 Frc consts  --      1.5457                 1.7620                 1.7462
 IR Inten    --      8.0421                10.7907                60.0128

                     52                     53                     54
                      A                      A                      A
 Frequencies --   1499.8349              1519.0581              1520.3972
 Red. masses --      1.6224                 1.0516                 1.0613
 Frc consts  --      2.1503                 1.4297                 1.4455
 IR Inten    --     81.3495                 5.1908                 3.1178

                     55                     56                     57
                      A                      A                      A
 Frequencies --   1522.8292              1531.2219              1542.1658
 Red. masses --      1.1151                 1.0748                 1.0851
 Frc consts  --      1.5236                 1.4848                 1.5205
 IR Inten    --      8.4578                 1.5863                 3.7824

                     58                     59                     60
                      A                      A                      A
 Frequencies --   1546.9546              1703.8574              1778.6381
 Red. masses --      1.0915                 4.9475                 6.7881
 Frc consts  --      1.5390                 8.4625                12.6524
 IR Inten    --      3.3504                42.2214               261.1369

                     61                     62                     63
                      A                      A                      A
 Frequencies --   2995.6280              3008.9760              3031.2707
 Red. masses --      1.0557                 1.0692                 1.1000
 Frc consts  --      5.5818                 5.7034                 5.9554
 IR Inten    --     38.3937                64.5049                20.0194

                     64                     65                     66
                      A                      A                      A
 Frequencies --   3054.5767              3058.0182              3097.5384
 Red. masses --      1.0614                 1.0413                 1.0952
 Frc consts  --      5.8349                 5.7370                 6.1910
 IR Inten    --     38.4306                35.9000                12.9324

                     67                     68                     69
                      A                      A                      A
 Frequencies --   3101.4294              3103.3294              3125.8848
 Red. masses --      1.0654                 1.1032                 1.1011
 Frc consts  --      6.0377                 6.2599                 6.3393
 IR Inten    --     42.3635                34.3682                37.2077

                     70                     71                     72
                      A                      A                      A
 Frequencies --   3134.7780              3170.9906              3174.0512
 Red. masses --      1.1038                 1.0942                 1.0667
 Frc consts  --      6.3908                 6.4822                 6.3317
 IR Inten    --     36.5077                16.9914                 2.0787

                     73                     74                     75
                      A                      A                      A
 Frequencies --   3221.5802              3264.1957              3587.4978
 Red. masses --      1.0936                 1.1167                 1.0757
 Frc consts  --      6.6875                 7.0101                 8.1569
 IR Inten    --      8.3078                 3.2041                25.4022

 - Thermochemistry -
 -------------------
 Temperature   298.150 Kelvin.  Pressure   1.00000 Atm.
 Atom     1 has atomic number  6 and mass  12.00000

 Molecular mass:   173.10519 amu.
 Principal axes and moments of inertia in atomic units:
                           1         2         3
     Eigenvalues --  1479.321613267.662814287.05391
           X            0.99980  -0.01956   0.00405
           Y            0.01956   0.99981   0.00010
           Z           -0.00406  -0.00002   0.99999
 This molecule is an asymmetric top.
 Rotational symmetry number  1.
 Warning -- assumption of classical behavior for rotation
           may cause significant error
 Rotational temperatures (Kelvin)      0.05855     0.02651     0.02020
 Rotational constants (GHZ):           1.21998     0.55230     0.42097
 Zero-point vibrational energy     613091.3 (Joules/Mol)
                                  146.53234 (Kcal/Mol)
 Warning -- explicit consideration of  19 degrees of freedom as
           vibrations may cause significant error
 Vibrational temperatures:     33.46    51.38    90.92   102.12   126.67
          (Kelvin)            184.08   208.38   226.06   301.86   364.73
                              420.97   455.27   489.47   523.76   649.00
                              690.82   725.48   801.30   813.21   895.05
                              961.17  1157.63  1161.76  1171.33  1210.67
                             1252.08  1349.61  1429.86  1430.89  1503.19
                             1508.98  1533.39  1569.34  1588.00  1618.86
                             1640.57  1685.13  1697.07  1756.65  1839.93
                             1874.82  1903.07  1928.70  1945.40  1992.58
                             2024.73  2043.04  2073.81  2082.82  2085.87
                             2111.50  2157.93  2185.59  2187.51  2191.01
                             2203.09  2218.83  2225.72  2451.47  2559.06
                             4310.04  4329.25  4361.32  4394.85  4399.81
                             4456.67  4462.27  4465.00  4497.45  4510.25
                             4562.35  4566.75  4635.14  4696.45  5161.61

 Zero-point correction=                           0.233514 (Hartree/Particle)
 Thermal correction to Energy=                    0.247212
 Thermal correction to Enthalpy=                  0.248156
 Thermal correction to Gibbs Free Energy=         0.191127
 Sum of electronic and zero-point Energies=           -594.075944
 Sum of electronic and thermal Energies=              -594.062247
 Sum of electronic and thermal Enthalpies=            -594.061303
 Sum of electronic and thermal Free Energies=         -594.118331

                     E (Thermal)             CV                S
                      KCal/Mol        Cal/Mol-Kelvin    Cal/Mol-Kelvin
 Total                  155.128             48.447            120.027
 Electronic               0.000              0.000              0.000
 Translational            0.889              2.981             41.354
 Rotational               0.889              2.981             31.405
 Vibrational            153.350             42.485             47.267
 Vibration     1          0.593              1.985              6.334
 Vibration     2          0.594              1.982              5.484
 Vibration     3          0.597              1.972              4.355
 Vibration     4          0.598              1.968              4.126
 Vibration     5          0.601              1.958              3.703
 Vibration     6          0.611              1.925              2.977
 Vibration     7          0.616              1.908              2.739
 Vibration     8          0.621              1.895              2.584
 Vibration     9          0.642              1.826              2.045
 Vibration    10          0.665              1.757              1.706
 Vibration    11          0.688              1.688              1.459
 Vibration    12          0.703              1.642              1.328
 Vibration    13          0.720              1.595              1.211
 Vibration    14          0.738              1.546              1.105
 Vibration    15          0.810              1.359              0.793
 Vibration    16          0.837              1.294              0.710
 Vibration    17          0.860              1.241              0.648
 Vibration    18          0.912              1.125              0.530
 Vibration    19          0.921              1.107              0.514

 Optimization completed.
    -- Stationary point found.
 Normal termination of Gaussian 16 at Wed Dec  9 17:05:01 2020.

 ----------------------------------------------------------------------
 # B3LYP/6-311++G(d,p) empiricaldispersion=gd3bj scf=xqc pop=npa geom=c
 heck
 ----------------------------------------------------------------------

 --------------------------------------
 CID_89989542_JID_2205_Energie_neutraal
 --------------------------------------
 Structure from the checkpoint file:  "JID_2205.chk"
 Charge =  0 Multiplicity = 1

 SCF Done:  E(RB3LYP) =  -594.492284721     A.U. after   14 cycles
 Normal termination of Gaussian 16 at Wed Dec  9 17:07:53 2020.

 ----------------------------------------------------------------------
 # B3LYP/6-311++G(d,p) empiricaldispersion=gd3bj scf=xqc pop=npa geom=c
 heck
 ----------------------------------------------------------------------

 ------------------------------------
 CID_89989542_JID_2205_Energie_kation
 ------------------------------------
 Structure from the checkpoint file:  "JID_2205.chk"
 Charge =  1 Multiplicity = 2

 SCF Done:  E(UB3LYP) =  -594.157623799     A.U. after   33 cycles
 SCF Done:  E(UB3LYP) =  -594.162628092     a.u. after   17 cycles
 Normal termination of Gaussian 16 at Wed Dec  9 18:23:29 2020.
 Gaussian 16:  ES64L-G16RevA.03 25-Dec-2016

 ----------------------------------------------------------------------
 # B3LYP/6-311++G(d,p) empiricaldispersion=gd3bj scf=xqc pop=npa geom=c
 heck
 ----------------------------------------------------------------------

 -----------------------------------
 CID_89989542_JID_2205_Energie_anion
 -----------------------------------
 Structure from the checkpoint file:  "JID_2205.chk"
 Charge = -1 Multiplicity = 2

                         Standard orientation:
 ---------------------------------------------------------------------
 Center     Atomic      Atomic             Coordinates (Angstroms)
 Number     Number       Type             X           Y           Z
 ---------------------------------------------------------------------
      1          6           0       -3.693142    1.444702   -0.182525
      2          6           0       -2.943298    0.539447    0.790021
      3          8           0       -1.707764    0.058363    0.271734
      4          6           0       -1.833302   -0.963154   -0.706744
      5          6           0       -0.454757   -1.497667   -1.061058
      6          8           0        0.147424   -2.230328   -0.004496
      7          6           0        0.862137   -1.451657    0.947317
      8          7           0        2.100415   -0.912050    0.446905
      9          6           0        2.418836    0.363704    0.024401
     10          8           0        3.547171    0.603618   -0.392649
     11          6           0        1.357152    1.412912    0.105919
     12          6           0        1.670515    2.679471   -0.176229
     13          1           0       -3.053942    2.276548   -0.496158
     14          1           0       -4.586906    1.856780    0.299377
     15          1           0       -4.017632    0.904103   -1.077684
     16          1           0       -2.677285    1.095569    1.694434
     17          1           0       -3.573209   -0.311714    1.093198
     18          1           0       -2.455419   -1.783045   -0.315001
     19          1           0       -2.310662   -0.579464   -1.622282
     20          1           0       -0.561680   -2.198830   -1.895905
     21          1           0        0.193993   -0.678056   -1.396772
     22          1           0        0.243671   -0.645642    1.340271
     23          1           0        1.086923   -2.154976    1.752975
     24          1           0        2.856090   -1.568116    0.286349
     25          1           0        0.338699    1.137449    0.357691
     26          1           0        0.926960    3.470324   -0.143321
     27          1           0        2.687996    2.943644   -0.448822
 ---------------------------------------------------------------------

 SCF Done:  E(UB3LYP) =  -594.485946532     A.U. after   31 cycles

 The electronic state is 2-A.
 Alpha  occ. eigenvalues --  -19.02784 -19.02717 -18.95343 -14.21583 -10.14598
 Alpha  occ. eigenvalues --  -10.13774 -10.11916 -10.11875 -10.11739 -10.05897
 Alpha  occ. eigenvalues --  -10.03662 -10.03436  -0.94976  -0.93392  -0.90641
 Alpha  occ. eigenvalues --   -0.79627  -0.67652  -0.64634  -0.63703  -0.58471
 Alpha  occ. eigenvalues --   -0.52823  -0.51338  -0.49641  -0.42583  -0.41635
 Alpha  occ. eigenvalues --   -0.40706  -0.39963  -0.38025  -0.37076  -0.35240
 Alpha  occ. eigenvalues --   -0.34366  -0.31098  -0.30596  -0.29830  -0.29290
 Alpha  occ. eigenvalues --   -0.29191  -0.27871  -0.27609  -0.26194  -0.24022
 Alpha  occ. eigenvalues --   -0.22544  -0.21840  -0.17947  -0.16424  -0.15087
 Alpha  occ. eigenvalues --   -0.14552  -0.13207   0.04518
 Alpha virt. eigenvalues --    0.06205   0.07608   0.07982   0.08793   0.09595
 Alpha virt. eigenvalues --    0.10037   0.10969   0.11319   0.12083   0.12379
 Alpha virt. eigenvalues --    0.13429   0.13682   0.14279   0.15163   0.15460

  Beta  occ. eigenvalues --  -19.02782 -19.02713 -18.95227 -14.21543 -10.14592
  Beta  occ. eigenvalues --  -10.13632 -10.11909 -10.11857 -10.11714 -10.05853
  Beta  occ. eigenvalues --  -10.03602 -10.03168  -0.94963  -0.93378  -0.90417
  Beta  occ. eigenvalues --   -0.79507  -0.67611  -0.64242  -0.63622  -0.58406
  Beta  occ. eigenvalues --   -0.52725  -0.50911  -0.49563  -0.42328  -0.41606
  Beta  occ. eigenvalues --   -0.40632  -0.39894  -0.37916  -0.37006  -0.35189
  Beta  occ. eigenvalues --   -0.34303  -0.31039  -0.30535  -0.29682  -0.29167
  Beta  occ. eigenvalues --   -0.28878  -0.27748  -0.27160  -0.26138  -0.23887
  Beta  occ. eigenvalues --   -0.22516  -0.21784  -0.17893  -0.16380  -0.14451
  Beta  occ. eigenvalues --   -0.13582  -0.13040
  Beta virt. eigenvalues --    0.07016   0.07952   0.08283   0.08836   0.09144
  Beta virt. eigenvalues --    0.09842   0.10424   0.11121   0.11510   0.12243
  Beta virt. eigenvalues --    0.12561   0.13609   0.13786   0.14417   0.15162

 Mulliken charges and spin densities:
               1          2
     1  C    1.506134  -1.962570
     2  C   -0.761365   0.630000
     3  O   -0.159980   0.029010
     4  C    0.460906  -0.464013
     5  C   -0.217822  -0.363788
     6  O   -0.024871   0.003503
     7  C   -0.192304  -0.187117
     8  N   -0.181161   0.015541
     9  C   -0.237524   0.095457
    10  O   -0.421805   0.048348
    11  C    0.376732   0.097715
    12  C   -0.722894   0.279301
    13  H    0.000757   0.147447
    14  H   -0.660181   0.802011
    15  H   -0.508739   0.651329
    16  H   -0.220444   0.375673
    17  H   -0.153045   0.262825
    18  H   -0.085594   0.257214
    19  H    0.125334  -0.017805
    20  H   -0.081854   0.241171
    21  H    0.114890   0.053479
    22  H    0.023906   0.216068
    23  H    0.034124   0.102677
    24  H    0.275953   0.001388
    25  H    0.529158  -0.362276
    26  H    0.025262   0.061854
    27  H    0.156428  -0.014442
 Sum of Mulliken charges =  -1.00000   1.00000

 Dipole moment (field-independent basis, Debye):
    X=              2.4496    Y=             -3.8522    Z=              0.7101  Tot=              4.6200
 Quadrupole moment (field-independent basis, Debye-Ang):
   XX=           -159.3037   YY=           -105.7616   ZZ=            -93.0987
   XY=             -0.3788   XZ=              4.6732   YZ=              0.6286

 Summary of Natural Population Analysis:

                                       Natural Population
                Natural  -----------------------------------------------
    Atom  No    Charge         Core      Valence    Rydberg      Total
 -----------------------------------------------------------------------
      C    1   -0.30092      0.99967     2.29628    0.00498     3.30092
      C    2   -0.00616      0.99960     1.99410    0.01247     3.00616
      O    3   -0.30957      0.99988     3.29834    0.01135     4.30957
      C    4   -0.02112      0.99957     2.00913    0.01242     3.02112
      C    5   -0.02360      0.99956     2.01100    0.01303     3.02360
      O    6   -0.30482      0.99989     3.29578    0.00915     4.30482
      C    7    0.06872      0.99960     1.91529    0.01639     2.93128
      N    8   -0.32521      0.99967     2.81717    0.00836     3.82521
      C    9    0.34557      0.99966     1.63210    0.02268     2.65443
      O   10   -0.32395      0.99988     3.31825    0.00582     4.32395
      C   11   -0.16688      0.99951     2.15729    0.01008     3.16688
      C   12   -0.09855      0.99960     2.09130    0.00766     3.09855
      H   13    0.10054      0.00000     0.39801    0.00145     0.39946
      H   14    0.10367      0.00000     0.39396    0.00236     0.39633
      H   15    0.09810      0.00000     0.40019    0.00171     0.40190
      H   16    0.08784      0.00000     0.41077    0.00139     0.41216
      H   17    0.07821      0.00000     0.41980    0.00199     0.42179
      H   18    0.08166      0.00000     0.41653    0.00181     0.41834
      H   19    0.08274      0.00000     0.41568    0.00158     0.41726
      H   20    0.08908      0.00000     0.40983    0.00109     0.41092
      H   21    0.09248      0.00000     0.40554    0.00197     0.40752
      H   22    0.09800      0.00000     0.40039    0.00161     0.40200
      H   23    0.08443      0.00000     0.41453    0.00104     0.41557
      H   24    0.18708      0.00000     0.31024    0.00268     0.31292
      H   25    0.10432      0.00000     0.39316    0.00252     0.39568
      H   26    0.08409      0.00000     0.41504    0.00087     0.41591
      H   27    0.09426      0.00000     0.40453    0.00121     0.40574
 =======================================================================
   * Total *    0.00000     11.99608    34.84424    0.15967    47.00000

 Normal termination of Gaussian 16 at Wed Dec  9 18:31:26 2020.
