 Gaussian 16, Revision A.03,

 -----------------------------------------------------------
 # opt freq B3LYP/6-31G(d) empiricaldispersion=gd3bj scf=xqc
 -----------------------------------------------------------

 ------------------------------
 CID_82515255_JID_6276_neutraal
 ------------------------------
 Symbolic Z-matrix:
 Charge =  0 Multiplicity = 1

 SCF Done:  E(RB3LYP) =  -1032.41691683     A.U. after   15 cycles
 SCF Done:  E(RB3LYP) =  -1032.41806341     A.U. after   13 cycles
 SCF Done:  E(RB3LYP) =  -1032.41815684     A.U. after   13 cycles
 SCF Done:  E(RB3LYP) =  -1032.42277707     A.U. after   12 cycles
 SCF Done:  E(RB3LYP) =  -1032.42388473     A.U. after   13 cycles
 SCF Done:  E(RB3LYP) =  -1032.42447775     A.U. after   12 cycles
 SCF Done:  E(RB3LYP) =  -1032.42492821     A.U. after   12 cycles
 SCF Done:  E(RB3LYP) =  -1032.42575385     A.U. after   14 cycles
 SCF Done:  E(RB3LYP) =  -1032.42625792     A.U. after   11 cycles
 SCF Done:  E(RB3LYP) =  -1032.42662094     A.U. after   12 cycles
 SCF Done:  E(RB3LYP) =  -1032.42676987     A.U. after   10 cycles
 SCF Done:  E(RB3LYP) =  -1032.42679371     A.U. after   10 cycles
 SCF Done:  E(RB3LYP) =  -1032.42679599     A.U. after    9 cycles
 SCF Done:  E(RB3LYP) =  -1032.42679689     A.U. after    8 cycles
 SCF Done:  E(RB3LYP) =  -1032.42679711     A.U. after    7 cycles
 Optimization completed.
    -- Stationary point found.
 Normal termination of Gaussian 16 at Thu Dec 10 22:04:12 2020.

 --------------------------------------------------------------------
 #N Geom=AllCheck Guess=TCheck SCRF=Check GenChk RB3LYP/6-31G(d) Freq
 --------------------------------------------------------------------

 Structure from the checkpoint file:  "JID_6276.chk"
 ------------------------------
 CID_82515255_JID_6276_neutraal
 ------------------------------
 Charge =  0 Multiplicity = 1

 SCF Done:  E(RB3LYP) =  -1032.42679711     A.U. after    1 cycles

  Exact polarizability: 169.692 -12.407 148.388   9.879   3.783 146.173
 Approx polarizability: 230.609 -22.698 224.076  18.252  19.106 249.439

                      1                      2                      3
                      A                      A                      A
 Frequencies --     34.5094                46.4776                60.2739
 Red. masses --      4.4910                 4.4269                 3.5592
 Frc consts  --      0.0032                 0.0056                 0.0076
 IR Inten    --      0.1698                 0.1300                 0.2040

                      4                      5                      6
                      A                      A                      A
 Frequencies --     72.9048                88.2259               126.3918
 Red. masses --      3.5364                 3.6044                 3.2037
 Frc consts  --      0.0111                 0.0165                 0.0302
 IR Inten    --      0.1249                 1.1078                 0.1375

                      7                      8                      9
                      A                      A                      A
 Frequencies --    176.0802               190.8696               217.3272
 Red. masses --      3.3692                 2.9107                 2.7062
 Frc consts  --      0.0615                 0.0625                 0.0753
 IR Inten    --      9.5324                 4.0548                10.5858

                     10                     11                     12
                      A                      A                      A
 Frequencies --    225.8670               240.3663               256.7413
 Red. masses --      1.8383                 1.7488                 1.5746
 Frc consts  --      0.0553                 0.0595                 0.0612
 IR Inten    --      0.8799                 4.9769                 1.4495

                     13                     14                     15
                      A                      A                      A
 Frequencies --    297.1557               301.6870               310.8937
 Red. masses --      1.4410                 2.2527                 2.4767
 Frc consts  --      0.0750                 0.1208                 0.1410
 IR Inten    --     39.4419                 1.3244                 3.9025

                     16                     17                     18
                      A                      A                      A
 Frequencies --    349.1090               382.5800               430.4684
 Red. masses --      2.3879                 4.4755                 2.5346
 Frc consts  --      0.1715                 0.3860                 0.2767
 IR Inten    --      1.7476                 3.3090                 3.5409

                     19                     20                     21
                      A                      A                      A
 Frequencies --    437.3461               443.8434               467.5414
 Red. masses --      2.0350                 2.7596                 2.5301
 Frc consts  --      0.2293                 0.3203                 0.3259
 IR Inten    --      2.6155                 2.6671                 2.3213

                     22                     23                     24
                      A                      A                      A
 Frequencies --    491.4081               529.3323               561.7896
 Red. masses --      2.8120                 4.1613                 5.9271
 Frc consts  --      0.4001                 0.6870                 1.1022
 IR Inten    --      6.5074                 1.6997                 2.7744

                     25                     26                     27
                      A                      A                      A
 Frequencies --    587.1621               632.0701               658.6475
 Red. masses --      2.2039                 4.4314                 4.7103
 Frc consts  --      0.4477                 1.0431                 1.2039
 IR Inten    --      4.8744                 6.7264                 4.0268

                     28                     29                     30
                      A                      A                      A
 Frequencies --    710.9198               745.7188               774.1202
 Red. masses --      4.2005                 2.7855                 1.1970
 Frc consts  --      1.2508                 0.9126                 0.4226
 IR Inten    --      1.1385                 0.7991                33.8967

                     31                     32                     33
                      A                      A                      A
 Frequencies --    792.6778               816.1366               858.1805
 Red. masses --      2.2972                 1.5665                 3.1619
 Frc consts  --      0.8504                 0.6148                 1.3720
 IR Inten    --      1.4512                 0.2264                29.1016

                     34                     35                     36
                      A                      A                      A
 Frequencies --    881.8247               890.4246               902.2250
 Red. masses --      1.3599                 2.1543                 2.2304
 Frc consts  --      0.6230                 1.0064                 1.0697
 IR Inten    --     86.6816                 0.3112                 0.1724

                     37                     38                     39
                      A                      A                      A
 Frequencies --    927.3646               973.1199               975.0442
 Red. masses --      2.4952                 2.3789                 1.6620
 Frc consts  --      1.2643                 1.3273                 0.9309
 IR Inten    --      1.1763                 4.8793                10.0155

                     40                     41                     42
                      A                      A                      A
 Frequencies --    984.3713               997.0175              1007.9921
 Red. masses --      1.3867                 2.1803                 2.0678
 Frc consts  --      0.7917                 1.2770                 1.2378
 IR Inten    --      5.1367                17.2891                 7.5395

                     43                     44                     45
                      A                      A                      A
 Frequencies --   1012.1086              1024.2853              1049.1499
 Red. masses --      2.0034                 1.7836                 2.3025
 Frc consts  --      1.2091                 1.1025                 1.4932
 IR Inten    --      5.2867                21.3782                11.2683

                     46                     47                     48
                      A                      A                      A
 Frequencies --   1086.4078              1110.8320              1119.0343
 Red. masses --      2.4808                 2.4778                 2.3732
 Frc consts  --      1.7252                 1.8014                 1.7509
 IR Inten    --     34.4902                 3.8524                32.0573

                     49                     50                     51
                      A                      A                      A
 Frequencies --   1130.9635              1156.5564              1164.3620
 Red. masses --      2.2226                 1.9315                 1.7966
 Frc consts  --      1.6750                 1.5223                 1.4351
 IR Inten    --     58.7872                 6.3845                 6.2368

                     52                     53                     54
                      A                      A                      A
 Frequencies --   1192.0270              1196.9397              1216.0108
 Red. masses --      1.2348                 1.3446                 1.7734
 Frc consts  --      1.0338                 1.1350                 1.5451
 IR Inten    --      2.7259                 5.6424                27.5687

                     55                     56                     57
                      A                      A                      A
 Frequencies --   1216.9915              1257.3125              1278.9907
 Red. masses --      1.8551                 1.3717                 1.2653
 Frc consts  --      1.6188                 1.2776                 1.2195
 IR Inten    --     18.2474                 4.9128                 1.2645

                     58                     59                     60
                      A                      A                      A
 Frequencies --   1295.6662              1300.8104              1337.9486
 Red. masses --      1.7896                 1.2718                 1.3586
 Frc consts  --      1.7700                 1.2679                 1.4330
 IR Inten    --     32.4336                 5.4484                 3.6733

                     61                     62                     63
                      A                      A                      A
 Frequencies --   1349.4021              1356.8358              1364.4015
 Red. masses --      1.3287                 1.7373                 1.6836
 Frc consts  --      1.4255                 1.8845                 1.8466
 IR Inten    --      0.3145                 3.2354                22.8577

                     64                     65                     66
                      A                      A                      A
 Frequencies --   1394.6671              1401.0246              1408.2524
 Red. masses --      1.2511                 1.4309                 1.3333
 Frc consts  --      1.4338                 1.6549                 1.5579
 IR Inten    --      5.4009                 9.9763                 7.9594

                     67                     68                     69
                      A                      A                      A
 Frequencies --   1414.1363              1418.3218              1430.4718
 Red. masses --      1.4404                 1.3618                 1.2981
 Frc consts  --      1.6971                 1.6140                 1.5650
 IR Inten    --     10.9385                33.7312                 5.0226

                     70                     71                     72
                      A                      A                      A
 Frequencies --   1436.3502              1443.5222              1449.2109
 Red. masses --      1.3497                 1.5012                 1.7333
 Frc consts  --      1.6406                 1.8431                 2.1448
 IR Inten    --      7.8132                29.1915                 9.3322

                     73                     74                     75
                      A                      A                      A
 Frequencies --   1496.3353              1501.2548              1508.6640
 Red. masses --      1.0935                 1.1137                 1.0979
 Frc consts  --      1.4426                 1.4789                 1.4723
 IR Inten    --      1.8633                 6.1408                 1.4884

                     76                     77                     78
                      A                      A                      A
 Frequencies --   1510.5907              1515.5786              1522.4216
 Red. masses --      1.1077                 1.1203                 1.0905
 Frc consts  --      1.4893                 1.5162                 1.4891
 IR Inten    --      8.7432                10.9867                 3.4101

                     79                     80                     81
                      A                      A                      A
 Frequencies --   1526.4884              1527.6706              1531.8143
 Red. masses --      1.1464                 1.0873                 1.0571
 Frc consts  --      1.5739                 1.4951                 1.4615
 IR Inten    --      1.8010                 4.5999                 1.7917

                     82                     83                     84
                      A                      A                      A
 Frequencies --   1550.3776              1587.4242              1695.2317
 Red. masses --      4.9447                 5.8952                 1.0991
 Frc consts  --      7.0028                 8.7526                 1.8610
 IR Inten    --     11.6832                24.9155                37.1254

                     85                     86                     87
                      A                      A                      A
 Frequencies --   2969.4921              2976.7782              2981.1838
 Red. masses --      1.0732                 1.0731                 1.0718
 Frc consts  --      5.5754                 5.6023                 5.6124
 IR Inten    --     52.6057                60.6304                52.5119

                     88                     89                     90
                      A                      A                      A
 Frequencies --   2989.4753              3012.9409              3031.1455
 Red. masses --      1.0813                 1.0708                 1.0564
 Frc consts  --      5.6937                 5.7270                 5.7185
 IR Inten    --     68.8215                57.4378                14.1794

                     91                     92                     93
                      A                      A                      A
 Frequencies --   3033.2262              3036.0701              3040.6828
 Red. masses --      1.0692                 1.0488                 1.0614
 Frc consts  --      5.7957                 5.6961                 5.7818
 IR Inten    --     65.3651                39.6550                41.9102

                     94                     95                     96
                      A                      A                      A
 Frequencies --   3051.5277              3072.6894              3079.1652
 Red. masses --      1.0893                 1.0973                 1.0962
 Frc consts  --      5.9762                 6.1037                 6.1237
 IR Inten    --     24.5152                59.6352                47.8107

                     97                     98                     99
                      A                      A                      A
 Frequencies --   3093.7647              3103.5882              3104.4780
 Red. masses --      1.0926                 1.1021                 1.1018
 Frc consts  --      6.1614                 6.2545                 6.2568
 IR Inten    --      2.6846                48.7260                30.3461

                    100                    101                    102
                      A                      A                      A
 Frequencies --   3109.0432              3117.1496              3125.1966
 Red. masses --      1.0912                 1.0926                 1.0907
 Frc consts  --      6.2142                 6.2547                 6.2764
 IR Inten    --      1.7422                35.2929                45.9877

                    103                    104                    105
                      A                      A                      A
 Frequencies --   3297.8401              3473.5835              3561.9959
 Red. masses --      1.0941                 1.0504                 1.0923
 Frc consts  --      7.0110                 7.4670                 8.1651
 IR Inten    --      3.0541                 0.8777                 0.2915

 - Thermochemistry -
 -------------------
 Temperature   298.150 Kelvin.  Pressure   1.00000 Atm.
 Atom     1 has atomic number  6 and mass  12.00000

 Molecular mass:   239.14562 amu.
 Principal axes and moments of inertia in atomic units:
                           1         2         3
     Eigenvalues --  2619.447255446.335405897.10293
           X            0.99983   0.00332   0.01816
           Y           -0.00325   0.99999  -0.00360
           Z           -0.01817   0.00354   0.99983
 This molecule is an asymmetric top.
 Rotational symmetry number  1.
 Warning -- assumption of classical behavior for rotation
           may cause significant error
 Rotational temperatures (Kelvin)      0.03307     0.01590     0.01469
 Rotational constants (GHZ):           0.68898     0.33137     0.30604
 Zero-point vibrational energy     858931.1 (Joules/Mol)
                                  205.28946 (Kcal/Mol)
 Warning -- explicit consideration of  25 degrees of freedom as
           vibrations may cause significant error
 Vibrational temperatures:     49.65    66.87    86.72   104.89   126.94
          (Kelvin)            181.85   253.34   274.62   312.69   324.97
                              345.83   369.39   427.54   434.06   447.31
                              502.29   550.45   619.35   629.24   638.59
                              672.69   707.03   761.59   808.29   844.80
                              909.41   947.65  1022.85  1072.92  1113.79
                             1140.49  1174.24  1234.73  1268.75  1281.12
                             1298.10  1334.27  1400.10  1402.87  1416.29
                             1434.49  1450.28  1456.20  1473.72  1509.49
                             1563.10  1598.24  1610.04  1627.20  1664.03
                             1675.26  1715.06  1722.13  1749.57  1750.98
                             1808.99  1840.18  1864.17  1871.58  1925.01
                             1941.49  1952.18  1963.07  2006.61  2015.76
                             2026.16  2034.63  2040.65  2058.13  2066.59
                             2076.91  2085.09  2152.89  2159.97  2170.63
                             2173.40  2180.58  2190.43  2196.28  2197.98
                             2203.94  2230.65  2283.95  2439.06  4272.44
                             4282.92  4289.26  4301.19  4334.95  4361.14
                             4364.14  4368.23  4374.86  4390.47  4420.91
                             4430.23  4451.24  4465.37  4466.65  4473.22
                             4484.88  4496.46  4744.86  4997.71  5124.92

 Zero-point correction=                           0.327150 (Hartree/Particle)
 Thermal correction to Energy=                    0.343425
 Thermal correction to Enthalpy=                  0.344369
 Thermal correction to Gibbs Free Energy=         0.283026
 Sum of electronic and zero-point Energies=          -1032.099648
 Sum of electronic and thermal Energies=             -1032.083372
 Sum of electronic and thermal Enthalpies=           -1032.082428
 Sum of electronic and thermal Free Energies=        -1032.143771

                     E (Thermal)             CV                S
                      KCal/Mol        Cal/Mol-Kelvin    Cal/Mol-Kelvin
 Total                  215.502             62.947            129.107
 Electronic               0.000              0.000              0.000
 Translational            0.889              2.981             42.317
 Rotational               0.889              2.981             32.798
 Vibrational            213.725             56.985             53.993
 Vibration     1          0.594              1.983              5.552
 Vibration     2          0.595              1.979              4.962
 Vibration     3          0.597              1.973              4.448
 Vibration     4          0.599              1.967              4.073
 Vibration     5          0.601              1.957              3.699
 Vibration     6          0.611              1.927              3.000
 Vibration     7          0.628              1.872              2.370
 Vibration     8          0.634              1.852              2.219
 Vibration     9          0.646              1.815              1.981
 Vibration    10          0.650              1.802              1.912
 Vibration    11          0.657              1.779              1.800
 Vibration    12          0.666              1.751              1.684
 Vibration    13          0.691              1.679              1.433
 Vibration    14          0.694              1.671              1.408
 Vibration    15          0.700              1.653              1.358
 Vibration    16          0.726              1.577              1.170
 Vibration    17          0.752              1.507              1.029
 Vibration    18          0.792              1.404              0.857
 Vibration    19          0.798              1.389              0.835
 Vibration    20          0.803              1.374              0.815
 Vibration    21          0.825              1.322              0.744
 Vibration    22          0.847              1.269              0.680
 Vibration    23          0.884              1.185              0.589
 Vibration    24          0.917              1.114              0.520
 Vibration    25          0.944              1.059              0.472

 Optimization completed.
    -- Stationary point found.
 Normal termination of Gaussian 16 at Thu Dec 10 22:18:18 2020.

 ----------------------------------------------------------------------
 # B3LYP/6-311++G(d,p) empiricaldispersion=gd3bj scf=xqc pop=npa geom=c
 heck
 ----------------------------------------------------------------------

 --------------------------------------
 CID_82515255_JID_6276_Energie_neutraal
 --------------------------------------
 Structure from the checkpoint file:  "JID_6276.chk"
 Charge =  0 Multiplicity = 1

 SCF Done:  E(RB3LYP) =  -1032.63078564     A.U. after   15 cycles
 Normal termination of Gaussian 16 at Thu Dec 10 22:24:49 2020.

 ----------------------------------------------------------------------
 # B3LYP/6-311++G(d,p) empiricaldispersion=gd3bj scf=xqc pop=npa geom=c
 heck
 ----------------------------------------------------------------------

 ------------------------------------
 CID_82515255_JID_6276_Energie_kation
 ------------------------------------
 Structure from the checkpoint file:  "JID_6276.chk"
 Charge =  1 Multiplicity = 2

 SCF Done:  E(UB3LYP) =  -1032.36962398     A.U. after   25 cycles
 Normal termination of Gaussian 16 at Thu Dec 10 22:40:55 2020.
 Gaussian 16:  ES64L-G16RevA.03 25-Dec-2016

 ----------------------------------------------------------------------
 # B3LYP/6-311++G(d,p) empiricaldispersion=gd3bj scf=xqc pop=npa geom=c
 heck
 ----------------------------------------------------------------------

 -----------------------------------
 CID_82515255_JID_6276_Energie_anion
 -----------------------------------
 Structure from the checkpoint file:  "JID_6276.chk"
 Charge = -1 Multiplicity = 2

                         Standard orientation:
 ---------------------------------------------------------------------
 Center     Atomic      Atomic             Coordinates (Angstroms)
 Number     Number       Type             X           Y           Z
 ---------------------------------------------------------------------
      1          6           0        1.799744    2.979562    0.435017
      2          6           0        2.234973    1.713531   -0.305004
      3          6           0        1.087245    1.127761   -1.142288
      4          6           0        1.489853   -0.194736   -1.816725
      5          7           0        2.100597   -1.171429   -0.925719
      6          6           0        3.167443   -0.630179   -0.102572
      7          6           0        2.773600    0.645799    0.660739
      8          6           0        1.336261   -2.283972   -0.415383
      9          6           0        0.516798   -2.095084    0.889857
     10          6           0       -0.638947   -1.155007    0.735778
     11          7           0       -1.425682   -1.123631   -0.301977
     12          6           0       -2.388737   -0.139357   -0.189157
     13          6           0       -2.344511    0.592132    0.963942
     14         16           0       -1.040826    0.039148    1.966407
     15          6           0       -3.363030    0.059665   -1.317382
     16          7           0       -4.507100    0.865587   -0.884306
     17          1           0        1.442021    3.745061   -0.264011
     18          1           0        0.982213    2.755666    1.131573
     19          1           0        2.626743    3.408629    1.013762
     20          1           0        3.054714    1.976438   -0.993874
     21          1           0        0.216735    0.970638   -0.498481
     22          1           0        0.783553    1.848443   -1.914294
     23          1           0        2.216169    0.038880   -2.614420
     24          1           0        0.619961   -0.655820   -2.292539
     25          1           0        4.025188   -0.386868   -0.752634
     26          1           0        3.508432   -1.410025    0.588380
     27          1           0        3.643325    1.035864    1.207288
     28          1           0        2.001785    0.415485    1.406918
     29          1           0        0.646643   -2.609220   -1.199684
     30          1           0        2.027742   -3.118485   -0.227371
     31          1           0        0.133986   -3.081668    1.188581
     32          1           0        1.169061   -1.757259    1.701955
     33          1           0       -2.988970    1.411034    1.245408
     34          1           0       -2.859143    0.600656   -2.129710
     35          1           0       -3.619053   -0.933453   -1.723856
     36          1           0       -5.093370    1.086696   -1.686050
     37          1           0       -5.083382    0.318559   -0.246374
 ---------------------------------------------------------------------

 SCF Done:  E(UB3LYP) =  -1032.61854871     A.U. after   33 cycles
 SCF Done:  E(UB3LYP) =  -1032.61854871     a.u. after    1 cycles

 The electronic state is 2-A.
 Alpha  occ. eigenvalues --  -88.76469 -14.19669 -14.19532 -14.18914 -10.11851
 Alpha  occ. eigenvalues --  -10.09713 -10.09465 -10.09249 -10.09073 -10.08923
 Alpha  occ. eigenvalues --  -10.07787 -10.07720 -10.07655 -10.06816 -10.06703
 Alpha  occ. eigenvalues --  -10.05751  -7.85126  -5.81388  -5.81052  -5.80753
 Alpha  occ. eigenvalues --   -0.85206  -0.82541  -0.77920  -0.71619  -0.68276
 Alpha  occ. eigenvalues --   -0.68047  -0.65448  -0.63119  -0.60153  -0.55850
 Alpha  occ. eigenvalues --   -0.53469  -0.53097  -0.49162  -0.46642  -0.45620
 Alpha  occ. eigenvalues --   -0.42224  -0.39503  -0.38682  -0.37772  -0.35633
 Alpha  occ. eigenvalues --   -0.35590  -0.34946  -0.34268  -0.34063  -0.32674
 Alpha  occ. eigenvalues --   -0.32210  -0.31205  -0.30030  -0.29315  -0.29112
 Alpha  occ. eigenvalues --   -0.27942  -0.27715  -0.26539  -0.25762  -0.25235
 Alpha  occ. eigenvalues --   -0.24348  -0.23889  -0.23370  -0.21866  -0.21488
 Alpha  occ. eigenvalues --   -0.17335  -0.16515  -0.14513  -0.12651  -0.09886
 Alpha  occ. eigenvalues --    0.04474
 Alpha virt. eigenvalues --    0.06083   0.06571   0.07411   0.07783   0.08385
 Alpha virt. eigenvalues --    0.08984   0.09361   0.09560   0.09652   0.10695
 Alpha virt. eigenvalues --    0.10850   0.11340   0.11728   0.12144   0.12488

  Beta  occ. eigenvalues --  -88.76451 -14.19667 -14.19503 -14.18866 -10.11694
  Beta  occ. eigenvalues --  -10.09703 -10.09440 -10.09267 -10.09049 -10.08916
  Beta  occ. eigenvalues --  -10.07784 -10.07659 -10.07595 -10.06813 -10.06699
  Beta  occ. eigenvalues --  -10.05744  -7.85110  -5.81379  -5.81045  -5.80692
  Beta  occ. eigenvalues --   -0.85082  -0.82529  -0.77839  -0.71603  -0.68137
  Beta  occ. eigenvalues --   -0.67932  -0.65435  -0.63043  -0.60122  -0.55756
  Beta  occ. eigenvalues --   -0.53398  -0.53043  -0.49120  -0.46503  -0.45587
  Beta  occ. eigenvalues --   -0.42117  -0.39438  -0.38651  -0.37727  -0.35591
  Beta  occ. eigenvalues --   -0.35508  -0.34880  -0.34218  -0.33991  -0.32600
  Beta  occ. eigenvalues --   -0.32062  -0.31153  -0.29977  -0.29296  -0.29057
  Beta  occ. eigenvalues --   -0.27895  -0.27670  -0.26396  -0.25724  -0.25172
  Beta  occ. eigenvalues --   -0.24263  -0.23857  -0.23328  -0.21843  -0.21477
  Beta  occ. eigenvalues --   -0.16977  -0.16448  -0.14404  -0.12160  -0.09840
  Beta virt. eigenvalues --    0.06326   0.07164   0.07215   0.07744   0.08174
  Beta virt. eigenvalues --    0.08882   0.09295   0.09586   0.09691   0.09878
  Beta virt. eigenvalues --    0.10856   0.11238   0.11462   0.11881   0.12222

 Mulliken charges and spin densities:
               1          2
     1  C   -0.612990  -0.082522
     2  C    0.467164  -0.252873
     3  C   -0.447642   0.372874
     4  C    0.136823  -0.560426
     5  N    0.077537   0.111676
     6  C   -0.083432  -0.506987
     7  C   -0.283032   0.093806
     8  C    0.022305  -0.541281
     9  C    0.111706   0.181831
    10  C    0.090731  -0.245475
    11  N   -0.028944   0.119358
    12  C   -1.162869   0.681793
    13  C   -0.497283   0.323492
    14  S    0.341892  -0.326648
    15  C    1.603604  -2.086808
    16  N   -0.410364   0.076876
    17  H    0.047569   0.082093
    18  H    0.100183   0.020997
    19  H    0.084960   0.033180
    20  H    0.097806   0.045975
    21  H   -0.002781   0.027921
    22  H    0.010540   0.178963
    23  H    0.012357   0.138495
    24  H    0.232711  -0.083226
    25  H    0.089518   0.055574
    26  H   -0.138155   0.289670
    27  H    0.035400   0.113595
    28  H    0.161837  -0.043532
    29  H    0.164857   0.006941
    30  H   -0.392543   0.567100
    31  H   -0.290285   0.492501
    32  H    0.137537  -0.008619
    33  H    0.042328   0.200652
    34  H   -0.230045   0.426411
    35  H   -0.176045   0.332734
    36  H   -0.226156   0.468451
    37  H   -0.086802   0.295437
 Sum of Mulliken charges =  -1.00000   1.00000

 Dipole moment (field-independent basis, Debye):
    X=              6.0626    Y=              2.0349    Z=              2.6461  Tot=              6.9208
 Quadrupole moment (field-independent basis, Debye-Ang):
   XX=           -188.0749   YY=           -152.3853   ZZ=           -137.7585
   XY=             12.1619   XZ=            -10.3008   YZ=              4.0939

 Summary of Natural Population Analysis:

                                       Natural Population
                Natural  -----------------------------------------------
    Atom  No    Charge         Core      Valence    Rydberg      Total
 -----------------------------------------------------------------------
      C    1   -0.28221      0.99965     2.27771    0.00485     3.28221
      C    2   -0.11089      0.99960     2.10266    0.00863     3.11089
      C    3   -0.20153      0.99960     2.19298    0.00895     3.20153
      C    4   -0.07856      0.99961     2.06845    0.01050     3.07856
      N    5   -0.28456      0.99972     2.77120    0.01363     3.78456
      C    6   -0.08039      0.99961     2.06948    0.01129     3.08039
      C    7   -0.19944      0.99961     2.19138    0.00845     3.19944
      C    8   -0.07124      0.99960     2.05854    0.01310     3.07124
      C    9   -0.22447      0.99956     2.21473    0.01018     3.22447
      C   10    0.06374      0.99960     1.91802    0.01864     2.93626
      N   11   -0.25299      0.99962     2.74214    0.01123     3.75299
      C   12    0.05605      0.99947     1.92898    0.01551     2.94395
      C   13   -0.19394      0.99944     2.18368    0.01081     3.19394
      S   14    0.17951      4.99942     2.80271    0.01836     7.82049
      C   15   -0.09652      0.99958     2.08468    0.01226     3.09652
      N   16   -0.42105      0.99978     2.91059    0.01068     3.92105
      H   17    0.09754      0.00000     0.40165    0.00081     0.40246
      H   18    0.10143      0.00000     0.39759    0.00098     0.39857
      H   19    0.09378      0.00000     0.40540    0.00082     0.40622
      H   20    0.08669      0.00000     0.41109    0.00222     0.41331
      H   21    0.10388      0.00000     0.39332    0.00280     0.39612
      H   22    0.09557      0.00000     0.40328    0.00115     0.40443
      H   23    0.08244      0.00000     0.41642    0.00114     0.41756
      H   24    0.10445      0.00000     0.39445    0.00110     0.39555
      H   25    0.08614      0.00000     0.41261    0.00124     0.41386
      H   26    0.09592      0.00000     0.40313    0.00095     0.40408
      H   27    0.09364      0.00000     0.40536    0.00100     0.40636
      H   28    0.09690      0.00000     0.40126    0.00184     0.40310
      H   29    0.10252      0.00000     0.39602    0.00147     0.39748
      H   30    0.09068      0.00000     0.40797    0.00134     0.40932
      H   31    0.11161      0.00000     0.38603    0.00236     0.38839
      H   32    0.09968      0.00000     0.39912    0.00120     0.40032
      H   33    0.11773      0.00000     0.38106    0.00121     0.38227
      H   34    0.09765      0.00000     0.40052    0.00183     0.40235
      H   35    0.08825      0.00000     0.40978    0.00197     0.41175
      H   36    0.17869      0.00000     0.31715    0.00416     0.32131
      H   37    0.17330      0.00000     0.32408    0.00263     0.32670
 =======================================================================
   * Total *    0.00000     19.99347    44.78524    0.22129    65.00000

 Normal termination of Gaussian 16 at Thu Dec 10 23:06:30 2020.
