 Gaussian 16, Revision A.03,

 -----------------------------------------------------------
 # opt freq B3LYP/6-31G(d) empiricaldispersion=gd3bj scf=xqc
 -----------------------------------------------------------

 ------------------------------
 CID_79695647_JID_3751_neutraal
 ------------------------------
 Symbolic Z-matrix:
 Charge =  0 Multiplicity = 1

 SCF Done:  E(RB3LYP) =  -598.956100240     A.U. after   14 cycles
 SCF Done:  E(RB3LYP) =  -598.957735977     A.U. after   12 cycles
 SCF Done:  E(RB3LYP) =  -598.951706220     A.U. after   14 cycles
 SCF Done:  E(RB3LYP) =  -598.958534644     A.U. after   12 cycles
 SCF Done:  E(RB3LYP) =  -598.959745203     A.U. after   13 cycles
 SCF Done:  E(RB3LYP) =  -598.960064525     A.U. after   12 cycles
 SCF Done:  E(RB3LYP) =  -598.960655815     A.U. after   12 cycles
 SCF Done:  E(RB3LYP) =  -598.961137396     A.U. after   11 cycles
 SCF Done:  E(RB3LYP) =  -598.961239730     A.U. after   11 cycles
 SCF Done:  E(RB3LYP) =  -598.961236612     A.U. after   11 cycles
 SCF Done:  E(RB3LYP) =  -598.961301343     A.U. after   11 cycles
 SCF Done:  E(RB3LYP) =  -598.961308424     A.U. after   10 cycles
 SCF Done:  E(RB3LYP) =  -598.961312162     A.U. after    9 cycles
 SCF Done:  E(RB3LYP) =  -598.961312561     A.U. after    8 cycles
 SCF Done:  E(RB3LYP) =  -598.961312650     A.U. after    7 cycles
 Optimization completed.
    -- Stationary point found.
 Normal termination of Gaussian 16 at Sun Dec 13 12:25:40 2020.

 --------------------------------------------------------------------
 #N Geom=AllCheck Guess=TCheck SCRF=Check GenChk RB3LYP/6-31G(d) Freq
 --------------------------------------------------------------------

 Structure from the checkpoint file:  "JID_3751.chk"
 ------------------------------
 CID_79695647_JID_3751_neutraal
 ------------------------------
 Charge =  0 Multiplicity = 1

 SCF Done:  E(RB3LYP) =  -598.961312650     A.U. after    1 cycles

  Exact polarizability: 123.761   6.764 119.657  -1.422  -1.327 105.596
 Approx polarizability: 161.739   9.279 169.731  -6.345  -4.043 159.297

                      1                      2                      3
                      A                      A                      A
 Frequencies --     39.3155                49.0035                50.8406
 Red. masses --      4.2440                 3.1172                 3.2367
 Frc consts  --      0.0039                 0.0044                 0.0049
 IR Inten    --      3.0498                 0.1038                 1.6083

                      4                      5                      6
                      A                      A                      A
 Frequencies --     83.1320                86.5838               125.3247
 Red. masses --      3.9082                 3.4533                 4.6932
 Frc consts  --      0.0159                 0.0153                 0.0434
 IR Inten    --      4.6705                 5.7477                 3.5749

                      7                      8                      9
                      A                      A                      A
 Frequencies --    179.3697               234.3451               242.7168
 Red. masses --      3.7213                 2.1275                 1.2958
 Frc consts  --      0.0705                 0.0688                 0.0450
 IR Inten    --      2.2026                 2.1154                 0.9024

                     10                     11                     12
                      A                      A                      A
 Frequencies --    250.1249               254.1980               283.0507
 Red. masses --      1.1807                 1.0828                 1.5094
 Frc consts  --      0.0435                 0.0412                 0.0712
 IR Inten    --      0.4466                 0.6471                 0.4962

                     13                     14                     15
                      A                      A                      A
 Frequencies --    288.6089               319.0671               328.7046
 Red. masses --      1.7295                 1.5928                 2.3418
 Frc consts  --      0.0849                 0.0955                 0.1491
 IR Inten    --      0.1530                 1.4520                 2.3730

                     16                     17                     18
                      A                      A                      A
 Frequencies --    364.3199               381.3810               410.6317
 Red. masses --      2.3204                 2.2484                 1.9269
 Frc consts  --      0.1815                 0.1927                 0.1914
 IR Inten    --      4.1619                 2.4813                 2.6132

                     19                     20                     21
                      A                      A                      A
 Frequencies --    426.8488               432.7131               449.8648
 Red. masses --      1.9475                 2.1803                 2.1166
 Frc consts  --      0.2091                 0.2405                 0.2524
 IR Inten    --      2.0727                 5.7302                 0.6329

                     22                     23                     24
                      A                      A                      A
 Frequencies --    479.3122               531.0617               559.3079
 Red. masses --      1.6858                 1.6315                 2.7300
 Frc consts  --      0.2282                 0.2711                 0.5032
 IR Inten    --     90.7622                31.5320                 8.8579

                     25                     26                     27
                      A                      A                      A
 Frequencies --    586.2391               659.1568               703.1018
 Red. masses --      4.1969                 2.5519                 3.1564
 Frc consts  --      0.8498                 0.6533                 0.9193
 IR Inten    --      5.7618                 0.9258                 0.8218

                     28                     29                     30
                      A                      A                      A
 Frequencies --    791.2516               814.9751               860.9600
 Red. masses --      2.8335                 3.7714                 2.2159
 Frc consts  --      1.0452                 1.4758                 0.9677
 IR Inten    --      9.5921                 9.1327                 2.6617

                     31                     32                     33
                      A                      A                      A
 Frequencies --    898.4695               930.5514               954.4333
 Red. masses --      2.4481                 1.9702                 1.7359
 Frc consts  --      1.1644                 1.0052                 0.9317
 IR Inten    --      6.8445                13.8219                 2.7087

                     34                     35                     36
                      A                      A                      A
 Frequencies --    978.4792               989.0185              1006.1782
 Red. masses --      1.7742                 2.0017                 1.6535
 Frc consts  --      1.0008                 1.1536                 0.9863
 IR Inten    --      3.7435                10.9228                 2.2135

                     37                     38                     39
                      A                      A                      A
 Frequencies --   1039.8837              1056.3131              1073.8820
 Red. masses --      1.6125                 1.9870                 1.9365
 Frc consts  --      1.0274                 1.3063                 1.3158
 IR Inten    --      3.2393                30.3621                 7.9230

                     40                     41                     42
                      A                      A                      A
 Frequencies --   1078.1262              1097.0086              1134.6964
 Red. masses --      1.7992                 2.4033                 1.2676
 Frc consts  --      1.2322                 1.7040                 0.9616
 IR Inten    --      7.2118                10.8867                 7.4305

                     43                     44                     45
                      A                      A                      A
 Frequencies --   1142.1091              1183.7687              1194.9063
 Red. masses --      1.6709                 1.5732                 1.4806
 Frc consts  --      1.2841                 1.2989                 1.2455
 IR Inten    --      5.5209                19.9192                 4.9069

                     46                     47                     48
                      A                      A                      A
 Frequencies --   1208.6202              1221.3653              1252.4774
 Red. masses --      1.9862                 1.6984                 2.0160
 Frc consts  --      1.7094                 1.4927                 1.8632
 IR Inten    --      4.8093                10.4417                17.5889

                     49                     50                     51
                      A                      A                      A
 Frequencies --   1260.4874              1307.9079              1318.6382
 Red. masses --      1.5052                 2.1635                 1.7941
 Frc consts  --      1.4090                 2.1805                 1.8380
 IR Inten    --     12.9100                37.5506                24.4036

                     52                     53                     54
                      A                      A                      A
 Frequencies --   1328.9404              1341.3773              1352.8245
 Red. masses --      1.7596                 1.5507                 1.4382
 Frc consts  --      1.8310                 1.6439                 1.5508
 IR Inten    --    210.9102                23.4137                33.0110

                     55                     56                     57
                      A                      A                      A
 Frequencies --   1389.3578              1393.4832              1412.0955
 Red. masses --      1.3676                 1.4328                 1.4090
 Frc consts  --      1.5554                 1.6392                 1.6554
 IR Inten    --     19.1072                24.9905                 4.5979

                     58                     59                     60
                      A                      A                      A
 Frequencies --   1430.8475              1447.5493              1456.2432
 Red. masses --      1.2299                 1.2978                 1.2393
 Frc consts  --      1.4836                 1.6022                 1.5485
 IR Inten    --      4.7138                13.5291                 4.3173

                     61                     62                     63
                      A                      A                      A
 Frequencies --   1469.4817              1495.8717              1501.4594
 Red. masses --      1.1631                 1.1233                 1.1102
 Frc consts  --      1.4798                 1.4809                 1.4746
 IR Inten    --      0.6434                 5.9188                 6.1192

                     64                     65                     66
                      A                      A                      A
 Frequencies --   1508.1341              1512.1315              1513.6564
 Red. masses --      1.0803                 1.0544                 1.0644
 Frc consts  --      1.4477                 1.4205                 1.4368
 IR Inten    --      2.0027                 5.5534                 3.4954

                     67                     68                     69
                      A                      A                      A
 Frequencies --   1519.5420              1524.3874              1525.8097
 Red. masses --      1.0559                 1.0649                 1.0886
 Frc consts  --      1.4365                 1.4580                 1.4932
 IR Inten    --      1.5667                 5.3282                 1.1048

                     70                     71                     72
                      A                      A                      A
 Frequencies --   1529.5711              1532.9280              1537.1623
 Red. masses --      1.0509                 1.0600                 1.0773
 Frc consts  --      1.4486                 1.4675                 1.4998
 IR Inten    --      9.3641                 3.3765                25.0444

                     73                     74                     75
                      A                      A                      A
 Frequencies --   1541.7098              1545.5634              1872.9981
 Red. masses --      1.0545                 1.0574                 9.8786
 Frc consts  --      1.4767                 1.4882                20.4182
 IR Inten    --      2.2848                18.5248               224.5015

                     76                     77                     78
                      A                      A                      A
 Frequencies --   2931.7107              2940.1625              2951.1215
 Red. masses --      1.0622                 1.0677                 1.0689
 Frc consts  --      5.3790                 5.4383                 5.4847
 IR Inten    --     53.2351                35.7714               160.2347

                     79                     80                     81
                      A                      A                      A
 Frequencies --   2992.8616              3035.7308              3035.9873
 Red. masses --      1.0710                 1.0729                 1.0362
 Frc consts  --      5.6522                 5.8258                 5.6275
 IR Inten    --     46.4886                17.0739                25.8409

                     82                     83                     84
                      A                      A                      A
 Frequencies --   3048.2518              3053.2331              3066.1847
 Red. masses --      1.0490                 1.0575                 1.0876
 Frc consts  --      5.7428                 5.8082                 6.0244
 IR Inten    --     39.8710                11.6729                32.0210

                     85                     86                     87
                      A                      A                      A
 Frequencies --   3075.5308              3080.7023              3086.8118
 Red. masses --      1.0712                 1.0893                 1.0808
 Frc consts  --      5.9698                 6.0912                 6.0674
 IR Inten    --     33.3952                 1.3829                58.1280

                     88                     89                     90
                      A                      A                      A
 Frequencies --   3100.3460              3113.6986              3116.2134
 Red. masses --      1.1015                 1.1007                 1.0973
 Frc consts  --      6.2384                 6.2876                 6.2784
 IR Inten    --     37.7641                26.9192                50.5290

                     91                     92                     93
                      A                      A                      A
 Frequencies --   3119.2621              3128.2461              3137.9409
 Red. masses --      1.1034                 1.1015                 1.0872
 Frc consts  --      6.3254                 6.3511                 6.3075
 IR Inten    --     26.7528                37.7232                18.2467

                     94                     95                     96
                      A                      A                      A
 Frequencies --   3143.9356              3154.1323              3728.5361
 Red. masses --      1.0898                 1.0987                 1.0653
 Frc consts  --      6.3468                 6.4398                 8.7260
 IR Inten    --     14.5649                21.2257                24.5328

 - Thermochemistry -
 -------------------
 Temperature   298.150 Kelvin.  Pressure   1.00000 Atm.
 Atom     1 has atomic number  6 and mass  12.00000

 Molecular mass:   187.15723 amu.
 Principal axes and moments of inertia in atomic units:
                           1         2         3
     Eigenvalues --  1998.244243193.709874185.44279
           X            0.99769   0.06751   0.00729
           Y           -0.06744   0.99767  -0.01028
           Z           -0.00797   0.00976   0.99992
 This molecule is an asymmetric top.
 Rotational symmetry number  1.
 Warning -- assumption of classical behavior for rotation
           may cause significant error
 Rotational temperatures (Kelvin)      0.04335     0.02712     0.02069
 Rotational constants (GHZ):           0.90316     0.56509     0.43119
 Zero-point vibrational energy     809372.7 (Joules/Mol)
                                  193.44473 (Kcal/Mol)
 Warning -- explicit consideration of  25 degrees of freedom as
           vibrations may cause significant error
 Vibrational temperatures:     56.57    70.51    73.15   119.61   124.57
          (Kelvin)            180.31   258.07   337.17   349.22   359.87
                              365.73   407.25   415.24   459.07   472.93
                              524.18   548.72   590.81   614.14   622.58
                              647.26   689.62   764.08   804.72   843.47
                              948.38  1011.61  1138.43  1172.57  1238.73
                             1292.70  1338.86  1373.22  1407.81  1422.98
                             1447.67  1496.16  1519.80  1545.08  1551.18
                             1578.35  1632.57  1643.24  1703.18  1719.20
                             1738.93  1757.27  1802.04  1813.56  1881.79
                             1897.23  1912.05  1929.94  1946.41  1998.98
                             2004.91  2031.69  2058.67  2082.70  2095.21
                             2114.26  2152.23  2160.27  2169.87  2175.62
                             2177.81  2186.28  2193.25  2195.30  2200.71
                             2205.54  2211.63  2218.18  2223.72  2694.83
                             4218.08  4230.24  4246.01  4306.06  4367.74
                             4368.11  4385.75  4392.92  4411.56  4425.00
                             4432.44  4441.23  4460.71  4479.92  4483.54
                             4487.92  4500.85  4514.80  4523.42  4538.09
                             5364.53

 Zero-point correction=                           0.308274 (Hartree/Particle)
 Thermal correction to Energy=                    0.323820
 Thermal correction to Enthalpy=                  0.324765
 Thermal correction to Gibbs Free Energy=         0.265582
 Sum of electronic and zero-point Energies=           -598.653039
 Sum of electronic and thermal Energies=              -598.637492
 Sum of electronic and thermal Enthalpies=            -598.636548
 Sum of electronic and thermal Free Energies=         -598.695730

                     E (Thermal)             CV                S
                      KCal/Mol        Cal/Mol-Kelvin    Cal/Mol-Kelvin
 Total                  203.200             58.279            124.560
 Electronic               0.000              0.000              0.000
 Translational            0.889              2.981             41.586
 Rotational               0.889              2.981             31.658
 Vibrational            201.423             52.317             51.316
 Vibration     1          0.594              1.981              5.293
 Vibration     2          0.595              1.978              4.857
 Vibration     3          0.595              1.977              4.784
 Vibration     4          0.600              1.961              3.816
 Vibration     5          0.601              1.959              3.736
 Vibration     6          0.610              1.928              3.017
 Vibration     7          0.629              1.868              2.335
 Vibration     8          0.654              1.788              1.845
 Vibration     9          0.659              1.775              1.783
 Vibration    10          0.663              1.763              1.730
 Vibration    11          0.665              1.756              1.701
 Vibration    12          0.682              1.705              1.515
 Vibration    13          0.685              1.695              1.482
 Vibration    14          0.705              1.637              1.315
 Vibration    15          0.712              1.618              1.266
 Vibration    16          0.738              1.546              1.104
 Vibration    17          0.751              1.510              1.034
 Vibration    18          0.775              1.447              0.924
 Vibration    19          0.789              1.412              0.869
 Vibration    20          0.794              1.399              0.850
 Vibration    21          0.809              1.361              0.796
 Vibration    22          0.836              1.296              0.712
 Vibration    23          0.886              1.181              0.585
 Vibration    24          0.915              1.119              0.525
 Vibration    25          0.943              1.061              0.474

                           ! Non-Optimized Parameters !
 Normal termination of Gaussian 16 at Sun Dec 13 12:35:02 2020.

 ----------------------------------------------------------------------
 # B3LYP/6-311++G(d,p) empiricaldispersion=gd3bj scf=xqc pop=npa geom=c
 heck
 ----------------------------------------------------------------------

 --------------------------------------
 CID_79695647_JID_3751_Energie_neutraal
 --------------------------------------
 Structure from the checkpoint file:  "JID_3751.chk"
 Charge =  0 Multiplicity = 1

 SCF Done:  E(RB3LYP) =  -599.143854168     A.U. after   14 cycles
 Normal termination of Gaussian 16 at Sun Dec 13 12:38:49 2020.

 ----------------------------------------------------------------------
 # B3LYP/6-311++G(d,p) empiricaldispersion=gd3bj scf=xqc pop=npa geom=c
 heck
 ----------------------------------------------------------------------

 ------------------------------------
 CID_79695647_JID_3751_Energie_kation
 ------------------------------------
 Structure from the checkpoint file:  "JID_3751.chk"
 Charge =  1 Multiplicity = 2

 SCF Done:  E(UB3LYP) =  -598.849288448     A.U. after   22 cycles
 Normal termination of Gaussian 16 at Sun Dec 13 12:46:38 2020.
 Gaussian 16:  ES64L-G16RevA.03 25-Dec-2016

 ----------------------------------------------------------------------
 # B3LYP/6-311++G(d,p) empiricaldispersion=gd3bj scf=xqc pop=npa geom=c
 heck
 ----------------------------------------------------------------------

 -----------------------------------
 CID_79695647_JID_3751_Energie_anion
 -----------------------------------
 Structure from the checkpoint file:  "JID_3751.chk"
 Charge = -1 Multiplicity = 2

                         Standard orientation:
 ---------------------------------------------------------------------
 Center     Atomic      Atomic             Coordinates (Angstroms)
 Number     Number       Type             X           Y           Z
 ---------------------------------------------------------------------
      1          6           0       -0.452889    1.610959    1.385963
      2          6           0        0.341771    1.510399    0.072533
      3          6           0        0.355005    2.902351   -0.589689
      4          6           0        1.821343    1.163640    0.382897
      5          6           0        2.142669   -0.225034    0.966400
      6          6           0        2.108261   -1.411381    0.011522
      7          8           0        1.595216   -2.472114    0.267709
      8          8           0        2.750834   -1.244269   -1.178478
      9          6           0       -0.297732    0.513653   -0.940017
     10          6           0       -1.043643   -0.707403   -0.377370
     11          7           0       -2.402642   -0.386105    0.071026
     12          6           0       -3.332276   -0.252185   -1.040306
     13          6           0       -2.890108   -1.368855    1.027935
     14          1           0       -0.021216    2.389462    2.027501
     15          1           0       -0.447492    0.672393    1.948359
     16          1           0       -1.499601    1.851176    1.188588
     17          1           0        0.872893    3.638621    0.037040
     18          1           0        0.860179    2.873302   -1.563471
     19          1           0       -0.667473    3.260229   -0.753155
     20          1           0        2.413312    1.331251   -0.531602
     21          1           0        2.192493    1.908825    1.097382
     22          1           0        3.162079   -0.198203    1.378139
     23          1           0        1.480449   -0.469908    1.798757
     24          1           0        3.103073   -0.340938   -1.238506
     25          1           0       -1.000507    1.074015   -1.566784
     26          1           0        0.481338    0.162210   -1.628530
     27          1           0       -1.057771   -1.506043   -1.143137
     28          1           0       -0.504818   -1.131534    0.471371
     29          1           0       -3.455464   -1.193336   -1.612663
     30          1           0       -4.315406    0.049008   -0.663089
     31          1           0       -2.991879    0.520647   -1.735596
     32          1           0       -2.221169   -1.404645    1.894125
     33          1           0       -2.960379   -2.391002    0.607362
     34          1           0       -3.886952   -1.078599    1.377656
 ---------------------------------------------------------------------

 SCF Done:  E(UB3LYP) =  -599.135949335     A.U. after   32 cycles

 The electronic state is 2-A.
 Alpha  occ. eigenvalues --  -19.05958 -19.00450 -14.21087 -10.19790 -10.09618
 Alpha  occ. eigenvalues --  -10.09521 -10.08926 -10.08356 -10.08207 -10.07108
 Alpha  occ. eigenvalues --  -10.06333 -10.05500 -10.05047  -0.99623  -0.91744
 Alpha  occ. eigenvalues --   -0.83017  -0.73131  -0.66666  -0.63792  -0.61552
 Alpha  occ. eigenvalues --   -0.58391  -0.55756  -0.55283  -0.50618  -0.48820
 Alpha  occ. eigenvalues --   -0.43703  -0.41169  -0.39271  -0.38380  -0.36933
 Alpha  occ. eigenvalues --   -0.36417  -0.35706  -0.34160  -0.33819  -0.32520
 Alpha  occ. eigenvalues --   -0.30476  -0.30270  -0.30162  -0.29336  -0.28272
 Alpha  occ. eigenvalues --   -0.27824  -0.27439  -0.27003  -0.26118  -0.25552
 Alpha  occ. eigenvalues --   -0.24805  -0.21988  -0.21666  -0.21503  -0.20933
 Alpha  occ. eigenvalues --   -0.17276  -0.12473   0.04210
 Alpha virt. eigenvalues --    0.06131   0.07524   0.07940   0.08470   0.09191
 Alpha virt. eigenvalues --    0.09719   0.09913   0.10851   0.11036   0.11645
 Alpha virt. eigenvalues --    0.11757   0.12429   0.12514   0.12671   0.13813

  Beta  occ. eigenvalues --  -19.05902 -19.00431 -14.21082 -10.19764 -10.09609
  Beta  occ. eigenvalues --  -10.09502 -10.08922 -10.08356 -10.08179 -10.07050
  Beta  occ. eigenvalues --  -10.06317 -10.05472 -10.05024  -0.99534  -0.91664
  Beta  occ. eigenvalues --   -0.83006  -0.73096  -0.66604  -0.63766  -0.61525
  Beta  occ. eigenvalues --   -0.58343  -0.55677  -0.55209  -0.50492  -0.48779
  Beta  occ. eigenvalues --   -0.43639  -0.41092  -0.39236  -0.38353  -0.36889
  Beta  occ. eigenvalues --   -0.36380  -0.35650  -0.34121  -0.33771  -0.32479
  Beta  occ. eigenvalues --   -0.30456  -0.30239  -0.30126  -0.29267  -0.28233
  Beta  occ. eigenvalues --   -0.27804  -0.27414  -0.26963  -0.26073  -0.25520
  Beta  occ. eigenvalues --   -0.24760  -0.21936  -0.21633  -0.21427  -0.20890
  Beta  occ. eigenvalues --   -0.17234  -0.12447
  Beta virt. eigenvalues --    0.06206   0.07417   0.07857   0.08633   0.09053
  Beta virt. eigenvalues --    0.09574   0.09914   0.10235   0.11113   0.11298
  Beta virt. eigenvalues --    0.12011   0.12073   0.12650   0.12837   0.12919

 Mulliken charges and spin densities:
               1          2
     1  C    0.108893  -0.818993
     2  C   -1.594632   2.396238
     3  C    0.899523  -1.337872
     4  C    1.376146  -1.859029
     5  C   -0.726101   0.476600
     6  C    0.259860  -0.541042
     7  O   -0.197769  -0.011308
     8  O   -0.075148  -0.004449
     9  C    0.572629  -0.873615
    10  C   -0.634044  -0.299573
    11  N    0.069407   0.162065
    12  C    0.111604  -0.407521
    13  C   -0.132043  -0.159755
    14  H   -0.203769   0.366457
    15  H    0.160301  -0.037351
    16  H    0.116052   0.052089
    17  H   -0.140994   0.278532
    18  H   -0.301308   0.456368
    19  H   -0.029817   0.171537
    20  H   -0.481072   0.627837
    21  H   -0.263641   0.439063
    22  H   -0.738746   0.974495
    23  H    0.109261   0.085770
    24  H   -0.162775   0.427997
    25  H    0.289883  -0.146465
    26  H    0.151169   0.026476
    27  H    0.143938   0.001375
    28  H    0.530475  -0.363129
    29  H    0.019674   0.082432
    30  H   -0.095301   0.230028
    31  H   -0.147773   0.257208
    32  H   -0.042329   0.159234
    33  H    0.076995   0.034113
    34  H   -0.028548   0.154187
 Sum of Mulliken charges =  -1.00000   1.00000

 Dipole moment (field-independent basis, Debye):
    X=             -6.3690    Y=             -1.7088    Z=              0.4372  Tot=              6.6088
 Quadrupole moment (field-independent basis, Debye-Ang):
   XX=           -151.2146   YY=           -131.9515   ZZ=           -115.3095
   XY=             -1.9260   XZ=              1.2053   YZ=             -1.7488

 Summary of Natural Population Analysis:

                                       Natural Population
                Natural  -----------------------------------------------
    Atom  No    Charge         Core      Valence    Rydberg      Total
 -----------------------------------------------------------------------
      C    1   -0.28784      0.99962     2.28056    0.00766     3.28784
      C    2   -0.04571      0.99957     2.03302    0.01312     3.04571
      C    3   -0.27994      0.99963     2.27315    0.00716     3.27994
      C    4   -0.18922      0.99957     2.17665    0.01300     3.18922
      C    5   -0.25039      0.99957     2.24087    0.00995     3.25039
      C    6    0.40767      0.99971     1.56660    0.02603     2.59233
      O    7   -0.30039      0.99986     3.29443    0.00610     4.30039
      O    8   -0.34497      0.99987     3.33900    0.00610     4.34497
      C    9   -0.19682      0.99958     2.18680    0.01045     3.19682
      C   10   -0.08863      0.99960     2.07888    0.01015     3.08863
      N   11   -0.28250      0.99973     2.77111    0.01167     3.78250
      C   12   -0.17729      0.99964     2.16891    0.00873     3.17729
      C   13   -0.17311      0.99965     2.16685    0.00661     3.17311
      H   14    0.09789      0.00000     0.40110    0.00101     0.40211
      H   15    0.09706      0.00000     0.40186    0.00108     0.40294
      H   16    0.10792      0.00000     0.39065    0.00143     0.39208
      H   17    0.09999      0.00000     0.39892    0.00109     0.40001
      H   18    0.10098      0.00000     0.39786    0.00116     0.39902
      H   19    0.09794      0.00000     0.40109    0.00097     0.40206
      H   20    0.09701      0.00000     0.39835    0.00463     0.40299
      H   21    0.10731      0.00000     0.39001    0.00267     0.39269
      H   22    0.12016      0.00000     0.37723    0.00261     0.37984
      H   23    0.11067      0.00000     0.38803    0.00130     0.38933
      H   24    0.24488      0.00000     0.24810    0.00703     0.25512
      H   25    0.09920      0.00000     0.39932    0.00148     0.40080
      H   26    0.10357      0.00000     0.39507    0.00136     0.39643
      H   27    0.08663      0.00000     0.41208    0.00129     0.41337
      H   28    0.10345      0.00000     0.39462    0.00194     0.39655
      H   29    0.07760      0.00000     0.42098    0.00142     0.42240
      H   30    0.09379      0.00000     0.40531    0.00090     0.40621
      H   31    0.09649      0.00000     0.40247    0.00105     0.40351
      H   32    0.09614      0.00000     0.40294    0.00092     0.40386
      H   33    0.07860      0.00000     0.41975    0.00165     0.42140
      H   34    0.09186      0.00000     0.40704    0.00110     0.40814
 =======================================================================
   * Total *    0.00000     12.99559    38.82958    0.17483    52.00000

 Normal termination of Gaussian 16 at Sun Dec 13 12:57:54 2020.
