 Gaussian 16, Revision A.03,

 -----------------------------------------------------------
 # opt freq B3LYP/6-31G(d) empiricaldispersion=gd3bj scf=xqc
 -----------------------------------------------------------

 --------------------------------
 CID_118772416_JID_10840_neutraal
 --------------------------------
 Symbolic Z-matrix:
 Charge =  0 Multiplicity = 1

 SCF Done:  E(RB3LYP) =  -1652.60711344     A.U. after   15 cycles
 SCF Done:  E(RB3LYP) =  -1652.61523949     A.U. after   12 cycles
 SCF Done:  E(RB3LYP) =  -1652.61621931     A.U. after   12 cycles
 SCF Done:  E(RB3LYP) =  -1652.61704119     A.U. after   12 cycles
 SCF Done:  E(RB3LYP) =  -1652.61668122     A.U. after   12 cycles
 SCF Done:  E(RB3LYP) =  -1652.61738907     A.U. after   12 cycles
 SCF Done:  E(RB3LYP) =  -1652.61745173     A.U. after   10 cycles
 SCF Done:  E(RB3LYP) =  -1652.61748095     A.U. after   10 cycles
 SCF Done:  E(RB3LYP) =  -1652.61749503     A.U. after    9 cycles
 SCF Done:  E(RB3LYP) =  -1652.61750884     A.U. after   10 cycles
 SCF Done:  E(RB3LYP) =  -1652.61760110     A.U. after    8 cycles
 SCF Done:  E(RB3LYP) =  -1652.61760218     A.U. after    9 cycles
 SCF Done:  E(RB3LYP) =  -1652.61760333     A.U. after    9 cycles
 SCF Done:  E(RB3LYP) =  -1652.61760372     A.U. after    8 cycles
 SCF Done:  E(RB3LYP) =  -1652.61760380     A.U. after    7 cycles
 Optimization completed.
    -- Stationary point found.
 Normal termination of Gaussian 16 at Sun Dec 13 17:03:20 2020.

 --------------------------------------------------------------------
 #N Geom=AllCheck Guess=TCheck SCRF=Check GenChk RB3LYP/6-31G(d) Freq
 --------------------------------------------------------------------

 Structure from the checkpoint file:  "JID_10840.chk"
 --------------------------------
 CID_118772416_JID_10840_neutraal
 --------------------------------
 Charge =  0 Multiplicity = 1

 SCF Done:  E(RB3LYP) =  -1652.61760380     A.U. after    1 cycles

  Exact polarizability: 242.871 -15.731 136.329   0.253   3.736 154.950
 Approx polarizability: 325.645 -27.498 228.951  -5.105  10.107 271.869

                      1                      2                      3
                      A                      A                      A
 Frequencies --      9.9027                21.9524                33.1858
 Red. masses --      7.3660                 6.7536                 6.0795
 Frc consts  --      0.0004                 0.0019                 0.0039
 IR Inten    --      1.8710                 0.9290                 0.8807

                      4                      5                      6
                      A                      A                      A
 Frequencies --     49.9468                63.4423                70.0631
 Red. masses --      7.2176                 6.3715                 6.7688
 Frc consts  --      0.0106                 0.0151                 0.0196
 IR Inten    --      4.8444                 2.4960                 2.2660

                      7                      8                      9
                      A                      A                      A
 Frequencies --    122.3132               139.0634               153.1815
 Red. masses --      5.2763                 5.9671                 4.8228
 Frc consts  --      0.0465                 0.0680                 0.0667
 IR Inten    --      8.2899                 5.8044                 0.5184

                     10                     11                     12
                      A                      A                      A
 Frequencies --    181.2646               241.4575               245.4591
 Red. masses --      3.7781                 6.3662                 3.6115
 Frc consts  --      0.0731                 0.2187                 0.1282
 IR Inten    --      4.2619                 0.8991                 0.7288

                     13                     14                     15
                      A                      A                      A
 Frequencies --    274.3333               287.8790               295.5587
 Red. masses --      4.4838                 4.5976                 5.4661
 Frc consts  --      0.1988                 0.2245                 0.2813
 IR Inten    --      1.8578                 1.6557                 1.5682

                     16                     17                     18
                      A                      A                      A
 Frequencies --    317.4757               345.8973               373.2626
 Red. masses --      3.2105                 2.6688                 2.6952
 Frc consts  --      0.1907                 0.1881                 0.2212
 IR Inten    --      1.6259                 0.9327                 4.2121

                     19                     20                     21
                      A                      A                      A
 Frequencies --    406.5446               420.0378               448.1320
 Red. masses --      5.2147                 3.5476                 5.0655
 Frc consts  --      0.5078                 0.3688                 0.5994
 IR Inten    --     14.0080                 4.0142                32.5648

                     22                     23                     24
                      A                      A                      A
 Frequencies --    491.2943               516.7003               537.7530
 Red. masses --      3.8002                 4.2853                 5.8835
 Frc consts  --      0.5404                 0.6741                 1.0024
 IR Inten    --      2.3447                 3.8568                 5.0716

                     25                     26                     27
                      A                      A                      A
 Frequencies --    548.1521               576.2769               590.7183
 Red. masses --      4.6635                 6.6240                 3.9533
 Frc consts  --      0.8256                 1.2961                 0.8128
 IR Inten    --     20.8981                15.2609                 4.3271

                     28                     29                     30
                      A                      A                      A
 Frequencies --    614.1948               645.9206               651.5583
 Red. masses --      3.2081                 1.9406                 1.8871
 Frc consts  --      0.7130                 0.4770                 0.4720
 IR Inten    --      9.4149                24.1860                51.4515

                     31                     32                     33
                      A                      A                      A
 Frequencies --    661.2103               672.4916               679.7094
 Red. masses --      2.5297                 2.7713                 1.5688
 Frc consts  --      0.6516                 0.7384                 0.4270
 IR Inten    --      8.5581                 1.0350                20.3304

                     34                     35                     36
                      A                      A                      A
 Frequencies --    710.3519               718.1284               738.9108
 Red. masses --      4.3026                 2.9352                 3.0959
 Frc consts  --      1.2792                 0.8919                 0.9959
 IR Inten    --      0.2957                15.5888                62.1137

                     37                     38                     39
                      A                      A                      A
 Frequencies --    749.4438               770.3546               800.1828
 Red. masses --      2.2202                 3.7421                 4.6870
 Frc consts  --      0.7347                 1.3084                 1.7682
 IR Inten    --     38.3746                 8.1104                 3.5250

                     40                     41                     42
                      A                      A                      A
 Frequencies --    843.2716               867.9056               881.1886
 Red. masses --      1.2449                 4.6973                 2.1274
 Frc consts  --      0.5216                 2.0847                 0.9733
 IR Inten    --      0.3669                12.8952                34.6300

                     43                     44                     45
                      A                      A                      A
 Frequencies --    898.2042               924.2136               959.0427
 Red. masses --      2.3485                 1.6571                 2.2773
 Frc consts  --      1.1163                 0.8340                 1.2341
 IR Inten    --     24.5320                 3.4382                 6.1988

                     46                     47                     48
                      A                      A                      A
 Frequencies --    974.0765              1003.2801              1012.9524
 Red. masses --      2.8253                 1.9447                 1.6307
 Frc consts  --      1.5794                 1.1533                 0.9858
 IR Inten    --      2.4872                 1.2206                 2.9757

                     49                     50                     51
                      A                      A                      A
 Frequencies --   1025.7217              1060.3702              1075.8948
 Red. masses --      2.9352                 2.0857                 4.0290
 Frc consts  --      1.8195                 1.3817                 2.7478
 IR Inten    --      1.7584                 4.5920                 0.5079

                     52                     53                     54
                      A                      A                      A
 Frequencies --   1093.5747              1099.7137              1132.0915
 Red. masses --      1.6478                 4.0006                 1.3563
 Frc consts  --      1.1610                 2.8506                 1.0242
 IR Inten    --      2.7205                99.5957                56.0710

                     55                     56                     57
                      A                      A                      A
 Frequencies --   1141.8578              1152.6185              1163.6428
 Red. masses --      2.5574                 2.0819                 1.4546
 Frc consts  --      1.9646                 1.6296                 1.1605
 IR Inten    --     39.5675                 2.2680                14.7320

                     58                     59                     60
                      A                      A                      A
 Frequencies --   1189.8446              1217.5337              1219.0402
 Red. masses --      1.5245                 1.4576                 1.4303
 Frc consts  --      1.2716                 1.2731                 1.2523
 IR Inten    --     14.2119                27.8658                 9.4086

                     61                     62                     63
                      A                      A                      A
 Frequencies --   1251.1688              1276.6317              1289.2062
 Red. masses --      1.3671                 2.1271                 1.5345
 Frc consts  --      1.2609                 2.0426                 1.5026
 IR Inten    --      6.0211                18.2590                15.7668

                     64                     65                     66
                      A                      A                      A
 Frequencies --   1296.7026              1317.9777              1320.9239
 Red. masses --      2.0588                 1.4719                 2.2791
 Frc consts  --      2.0396                 1.5064                 2.3429
 IR Inten    --    104.2737                14.6210               101.3935

                     67                     68                     69
                      A                      A                      A
 Frequencies --   1330.0061              1359.5673              1369.5039
 Red. masses --      2.2617                 2.4630                 1.3307
 Frc consts  --      2.3572                 2.6824                 1.4705
 IR Inten    --     75.2009                29.6246                 0.9397

                     70                     71                     72
                      A                      A                      A
 Frequencies --   1383.8639              1387.8397              1406.4477
 Red. masses --      1.4343                 1.4395                 1.9451
 Frc consts  --      1.6184                 1.6335                 2.2669
 IR Inten    --     63.6240                87.9385                34.4495

                     73                     74                     75
                      A                      A                      A
 Frequencies --   1435.2429              1450.6196              1485.3723
 Red. masses --      1.7571                 5.0611                 1.0958
 Frc consts  --      2.1325                 6.2749                 1.4244
 IR Inten    --     31.3614                11.0348                 7.1293

                     76                     77                     78
                      A                      A                      A
 Frequencies --   1499.9465              1500.8497              1516.7634
 Red. masses --      1.2667                 1.1296                 1.5683
 Frc consts  --      1.6790                 1.4992                 2.1257
 IR Inten    --     46.0650                 7.6564               146.1621

                     79                     80                     81
                      A                      A                      A
 Frequencies --   1519.4778              1522.7248              1549.2671
 Red. masses --      4.0249                 1.1770                 1.0885
 Frc consts  --      5.4751                 1.6079                 1.5393
 IR Inten    --     70.5431                16.1354                 1.5663

                     82                     83                     84
                      A                      A                      A
 Frequencies --   1571.3957              1619.5895              1779.4069
 Red. masses --      5.4121                 5.9668                 7.6241
 Frc consts  --      7.8739                 9.2215                14.2230
 IR Inten    --      2.1133                39.4319               369.4564

                     85                     86                     87
                      A                      A                      A
 Frequencies --   3039.0125              3042.8561              3098.5075
 Red. masses --      1.0750                 1.0672                 1.0604
 Frc consts  --      5.8493                 5.8219                 5.9980
 IR Inten    --     28.3536                26.9999                 4.7436

                     88                     89                     90
                      A                      A                      A
 Frequencies --   3102.1308              3104.4520              3112.3134
 Red. masses --      1.0950                 1.0608                 1.0857
 Frc consts  --      6.2086                 6.0236                 6.1960
 IR Inten    --     22.0434                10.2336                 2.9765

                     91                     92                     93
                      A                      A                      A
 Frequencies --   3122.6962              3150.5427              3171.3922
 Red. masses --      1.0601                 1.1039                 1.1073
 Frc consts  --      6.0906                 6.4559                 6.5620
 IR Inten    --      1.7876                 8.2591                 2.2883

                     94                     95                     96
                      A                      A                      A
 Frequencies --   3180.4700              3186.7293              3270.0197
 Red. masses --      1.1046                 1.0941                 1.0906
 Frc consts  --      6.5830                 6.5460                 6.8711
 IR Inten    --      0.5005                 2.7986                 5.2739

                     97                     98                     99
                      A                      A                      A
 Frequencies --   3292.8753              3295.8558              3566.4170
 Red. masses --      1.0971                 1.1011                 1.0746
 Frc consts  --      7.0089                 7.0469                 8.0527
 IR Inten    --      0.5882                 2.4247                37.7947

 - Thermochemistry -
 -------------------
 Temperature   298.150 Kelvin.  Pressure   1.00000 Atm.
 Atom     1 has atomic number  6 and mass  12.00000

 Molecular mass:   313.05549 amu.
 Principal axes and moments of inertia in atomic units:
                           1         2         3
     Eigenvalues --  2194.25736********************
           X            0.99995   0.00335   0.00901
           Y           -0.00346   0.99991   0.01268
           Z           -0.00897  -0.01271   0.99988
 This molecule is an asymmetric top.
 Rotational symmetry number  1.
 Warning -- assumption of classical behavior for rotation
           may cause significant error
 Rotational temperatures (Kelvin)      0.03947     0.00515     0.00502
 Rotational constants (GHZ):           0.82248     0.10734     0.10451
 Zero-point vibrational energy     719473.1 (Joules/Mol)
                                  171.95820 (Kcal/Mol)
 Warning -- explicit consideration of  28 degrees of freedom as
           vibrations may cause significant error
 Vibrational temperatures:     14.25    31.58    47.75    71.86    91.28
          (Kelvin)            100.81   175.98   200.08   220.39   260.80
                              347.40   353.16   394.70   414.19   425.24
                              456.78   497.67   537.04   584.93   604.34
                              644.76   706.86   743.42   773.71   788.67
                              829.13   849.91   883.69   929.34   937.45
                              951.33   967.57   977.95  1022.04  1033.23
                             1063.13  1078.28  1108.37  1151.28  1213.28
                             1248.72  1267.83  1292.32  1329.74  1379.85
                             1401.48  1443.50  1457.41  1475.78  1525.64
                             1547.97  1573.41  1582.24  1628.83  1642.88
                             1658.36  1674.22  1711.92  1751.76  1753.93
                             1800.15  1836.79  1854.88  1865.67  1896.28
                             1900.51  1913.58  1956.11  1970.41  1991.07
                             1996.79  2023.56  2064.99  2087.12  2137.12
                             2158.09  2159.39  2182.28  2186.19  2190.86
                             2229.05  2260.89  2330.23  2560.17  4372.46
                             4377.99  4458.06  4463.27  4466.61  4477.92
                             4492.86  4532.93  4562.93  4575.99  4584.99
                             4704.83  4737.71  4742.00  5131.28

 Zero-point correction=                           0.274033 (Hartree/Particle)
 Thermal correction to Energy=                    0.292266
 Thermal correction to Enthalpy=                  0.293210
 Thermal correction to Gibbs Free Energy=         0.223939
 Sum of electronic and zero-point Energies=          -1652.343571
 Sum of electronic and thermal Energies=             -1652.325338
 Sum of electronic and thermal Enthalpies=           -1652.324393
 Sum of electronic and thermal Free Energies=        -1652.393665

                     E (Thermal)             CV                S
                      KCal/Mol        Cal/Mol-Kelvin    Cal/Mol-Kelvin
 Total                  183.400             69.707            145.795
 Electronic               0.000              0.000              0.000
 Translational            0.889              2.981             43.120
 Rotational               0.889              2.981             34.809
 Vibrational            181.622             63.745             67.866
 Vibration     1          0.593              1.987              8.030
 Vibration     2          0.593              1.985              6.449
 Vibration     3          0.594              1.983              5.629
 Vibration     4          0.595              1.978              4.819
 Vibration     5          0.597              1.972              4.347
 Vibration     6          0.598              1.968              4.152
 Vibration     7          0.610              1.931              3.063
 Vibration     8          0.615              1.914              2.817
 Vibration     9          0.619              1.899              2.632
 Vibration    10          0.630              1.865              2.315
 Vibration    11          0.658              1.777              1.792
 Vibration    12          0.660              1.770              1.763
 Vibration    13          0.677              1.721              1.569
 Vibration    14          0.685              1.696              1.486
 Vibration    15          0.690              1.682              1.442
 Vibration    16          0.704              1.640              1.323
 Vibration    17          0.724              1.584              1.185
 Vibration    18          0.745              1.527              1.066
 Vibration    19          0.771              1.456              0.939
 Vibration    20          0.783              1.427              0.892
 Vibration    21          0.807              1.365              0.801
 Vibration    22          0.847              1.269              0.680
 Vibration    23          0.872              1.213              0.618
 Vibration    24          0.893              1.167              0.570
 Vibration    25          0.903              1.144              0.548
 Vibration    26          0.933              1.083              0.492
 Vibration    27          0.948              1.052              0.466
 Vibration    28          0.974              1.002              0.426

 Optimization completed.
    -- Stationary point found.
 Normal termination of Gaussian 16 at Sun Dec 13 17:20:40 2020.

 ----------------------------------------------------------------------
 # B3LYP/6-311++G(d,p) empiricaldispersion=gd3bj scf=xqc pop=npa geom=c
 heck
 ----------------------------------------------------------------------

 ----------------------------------------
 CID_118772416_JID_10840_Energie_neutraal
 ----------------------------------------
 Structure from the checkpoint file:  "JID_10840.chk"
 Charge =  0 Multiplicity = 1

 SCF Done:  E(RB3LYP) =  -1652.91245783     A.U. after   16 cycles
 Normal termination of Gaussian 16 at Sun Dec 13 17:27:53 2020.

 ----------------------------------------------------------------------
 # B3LYP/6-311++G(d,p) empiricaldispersion=gd3bj scf=xqc pop=npa geom=c
 heck
 ----------------------------------------------------------------------

 --------------------------------------
 CID_118772416_JID_10840_Energie_kation
 --------------------------------------
 Structure from the checkpoint file:  "JID_10840.chk"
 Charge =  1 Multiplicity = 2

 SCF Done:  E(UB3LYP) =  -1652.61226046     A.U. after   32 cycles
 Normal termination of Gaussian 16 at Sun Dec 13 17:47:55 2020.
 Gaussian 16:  ES64L-G16RevA.03 25-Dec-2016

 ----------------------------------------------------------------------
 # B3LYP/6-311++G(d,p) empiricaldispersion=gd3bj scf=xqc pop=npa geom=c
 heck
 ----------------------------------------------------------------------

 -------------------------------------
 CID_118772416_JID_10840_Energie_anion
 -------------------------------------
 Structure from the checkpoint file:  "JID_10840.chk"
 Charge = -1 Multiplicity = 2

                         Standard orientation:
 ---------------------------------------------------------------------
 Center     Atomic      Atomic             Coordinates (Angstroms)
 Number     Number       Type             X           Y           Z
 ---------------------------------------------------------------------
      1          6           0        2.737812    0.628359    1.459484
      2          6           0        4.135394    0.026538    1.569416
      3         16           0        4.407251   -0.674251   -0.090699
      4          8           0        3.579835   -1.894127   -0.189463
      5          8           0        5.830533   -0.706232   -0.451256
      6          6           0        3.515992    0.672491   -0.961719
      7          6           0        2.685233    1.414682    0.113786
      8          6           0        1.261464    1.800501   -0.302604
      9          8           0        0.908355    2.971370   -0.221778
     10          7           0        0.409869    0.840973   -0.777202
     11          6           0        0.480470   -0.615287   -0.737672
     12          6           0       -0.479909   -1.219733    0.297382
     13          6           0       -1.915713   -0.845425    0.071800
     14          6           0       -2.583049   -0.688225   -1.129792
     15          7           0       -3.883489   -0.352745   -0.780601
     16          6           0       -5.089212   -0.042093   -1.396924
     17          6           0       -6.063349    0.226859   -0.500245
     18         16           0       -5.513267    0.106689    1.172414
     19          6           0       -3.915020   -0.324074    0.600438
     20          7           0       -2.756651   -0.609175    1.148164
     21          1           0        1.996717   -0.173519    1.485025
     22          1           0        2.521142    1.304711    2.290082
     23          1           0        4.230554   -0.784495    2.293886
     24          1           0        4.910424    0.779147    1.741455
     25          1           0        4.267042    1.317266   -1.420415
     26          1           0        2.924090    0.201209   -1.747086
     27          1           0        3.163935    2.379394    0.291541
     28          1           0       -0.515365    1.219512   -0.951941
     29          1           0        0.238662   -1.001647   -1.736849
     30          1           0        1.494047   -0.947692   -0.522467
     31          1           0       -0.358678   -2.311651    0.282419
     32          1           0       -0.204032   -0.884885    1.302893
     33          1           0       -2.277463   -0.800354   -2.158212
     34          1           0       -5.165670   -0.037329   -2.475039
     35          1           0       -7.087703    0.492309   -0.715373
 ---------------------------------------------------------------------

 SCF Done:  E(UB3LYP) =  -1652.90714673     A.U. after   33 cycles
 SCF Done:  E(UB3LYP) =  -1652.90827913     a.u. after    6 cycles

 The electronic state is 2-A.
 Alpha  occ. eigenvalues --  -88.97214 -88.81292 -19.04679 -19.04427 -19.01298
 Alpha  occ. eigenvalues --  -14.31342 -14.26147 -14.22381 -10.20288 -10.18026
 Alpha  occ. eigenvalues --  -10.14968 -10.14378 -10.14173 -10.13728 -10.13609
 Alpha  occ. eigenvalues --  -10.13496 -10.12739 -10.12615 -10.12432 -10.10447
 Alpha  occ. eigenvalues --   -8.03761  -7.89868  -6.00021  -5.99892  -5.99863
 Alpha  occ. eigenvalues --   -5.86202  -5.85853  -5.85351  -1.03552  -0.96678
 Alpha  occ. eigenvalues --   -0.96513  -0.93342  -0.85158  -0.83914  -0.78912
 Alpha  occ. eigenvalues --   -0.76677  -0.71167  -0.69484  -0.66723  -0.66154
 Alpha  occ. eigenvalues --   -0.64609  -0.58892  -0.56043  -0.54065  -0.52677
 Alpha  occ. eigenvalues --   -0.51854  -0.49972  -0.49308  -0.44694  -0.43796
 Alpha  occ. eigenvalues --   -0.43578  -0.42162  -0.40839  -0.39936  -0.39610
 Alpha  occ. eigenvalues --   -0.39265  -0.38180  -0.38052  -0.37038  -0.36635
 Alpha  occ. eigenvalues --   -0.35796  -0.35159  -0.34486  -0.33337  -0.33007
 Alpha  occ. eigenvalues --   -0.32028  -0.30768  -0.29902  -0.29423  -0.28604
 Alpha  occ. eigenvalues --   -0.27820  -0.26519  -0.26023  -0.24935  -0.24682
 Alpha  occ. eigenvalues --   -0.23496  -0.21991  -0.21037  -0.18597  -0.17901
 Alpha  occ. eigenvalues --   -0.15808  -0.14566   0.03152
 Alpha virt. eigenvalues --    0.04260   0.05390   0.05551   0.06501   0.06582
 Alpha virt. eigenvalues --    0.07307   0.07957   0.08036   0.08457   0.08620
 Alpha virt. eigenvalues --    0.09075   0.09579   0.09926   0.10381   0.10664

  Beta  occ. eigenvalues --  -88.97213 -88.81290 -19.04676 -19.04419 -19.01294
  Beta  occ. eigenvalues --  -14.31346 -14.26141 -14.22382 -10.20288 -10.18017
  Beta  occ. eigenvalues --  -10.14925 -10.14358 -10.14136 -10.13717 -10.13574
  Beta  occ. eigenvalues --  -10.13485 -10.12725 -10.12611 -10.12404 -10.10444
  Beta  occ. eigenvalues --   -8.03760  -7.89866  -6.00020  -5.99891  -5.99862
  Beta  occ. eigenvalues --   -5.86201  -5.85852  -5.85345  -1.03541  -0.96667
  Beta  occ. eigenvalues --   -0.96507  -0.93330  -0.85147  -0.83899  -0.78883
  Beta  occ. eigenvalues --   -0.76653  -0.71145  -0.69441  -0.66676  -0.66121
  Beta  occ. eigenvalues --   -0.64570  -0.58863  -0.55999  -0.54016  -0.52636
  Beta  occ. eigenvalues --   -0.51831  -0.49947  -0.49267  -0.44663  -0.43765
  Beta  occ. eigenvalues --   -0.43486  -0.42132  -0.40813  -0.39918  -0.39575
  Beta  occ. eigenvalues --   -0.39229  -0.38155  -0.38025  -0.37018  -0.36599
  Beta  occ. eigenvalues --   -0.35770  -0.35131  -0.34450  -0.33309  -0.32972
  Beta  occ. eigenvalues --   -0.32005  -0.30746  -0.29878  -0.29401  -0.28587
  Beta  occ. eigenvalues --   -0.27796  -0.26459  -0.26007  -0.24925  -0.24654
  Beta  occ. eigenvalues --   -0.23487  -0.21968  -0.21035  -0.18587  -0.17890
  Beta  occ. eigenvalues --   -0.15744  -0.14513
  Beta virt. eigenvalues --    0.05240   0.05661   0.05754   0.06227   0.06770
  Beta virt. eigenvalues --    0.06891   0.07664   0.08135   0.08285   0.08618
  Beta virt. eigenvalues --    0.08963   0.09345   0.09727   0.10100   0.10540

 Mulliken charges and spin densities:
               1          2
     1  C   -0.240161   0.152473
     2  C    0.034510  -0.923361
     3  S    0.597892  -0.157771
     4  O   -0.232000   0.016668
     5  O   -0.038827  -0.003794
     6  C   -0.620518  -0.253521
     7  C    0.296269  -0.102086
     8  C   -0.306838   0.173739
     9  O   -0.303423   0.006495
    10  N   -0.160335   0.012715
    11  C    0.091022  -0.198631
    12  C   -1.333683  -0.246560
    13  C    1.126189  -0.369109
    14  C   -0.398663   0.054055
    15  N    0.206535   0.089450
    16  C    0.959726  -1.198149
    17  C    0.089840  -0.333322
    18  S   -0.004093  -0.143035
    19  C    0.318949  -0.249353
    20  N   -0.008020   0.055009
    21  H    0.321014  -0.201777
    22  H   -0.123517   0.353609
    23  H    0.001592   0.251081
    24  H   -0.205107   0.455108
    25  H    0.015883   0.280064
    26  H    0.109516   0.165943
    27  H   -0.025008   0.322949
    28  H    0.357212   0.027757
    29  H    0.060119   0.106878
    30  H    0.347282  -0.110060
    31  H    0.091541   0.106939
    32  H    0.148275   0.056508
    33  H   -0.649697   0.840883
    34  H   -0.952809   1.128888
    35  H   -0.570669   0.833315
 Sum of Mulliken charges =  -1.00000   1.00000

 Dipole moment (field-independent basis, Debye):
    X=              1.9486    Y=             -1.6391    Z=              3.3041  Tot=              4.1714
 Quadrupole moment (field-independent basis, Debye-Ang):
   XX=           -274.8432   YY=           -179.1065   ZZ=           -177.7333
   XY=              1.8654   XZ=            -23.7476   YZ=             -4.0310

 Summary of Natural Population Analysis:

                                       Natural Population
                Natural  -----------------------------------------------
    Atom  No    Charge         Core      Valence    Rydberg      Total
 -----------------------------------------------------------------------
      C    1   -0.19928      0.99961     2.18982    0.00986     3.19928
      C    2   -0.28620      0.99960     2.27512    0.01149     3.28620
      S    3    1.01245      4.99928     1.89439    0.09387     6.98755
      O    4   -0.46982      0.99991     3.46432    0.00559     4.46982
      O    5   -0.45885      0.99991     3.45334    0.00561     4.45885
      C    6   -0.28977      0.99958     2.27901    0.01118     3.28977
      C    7   -0.15772      0.99955     2.14547    0.01270     3.15772
      C    8    0.34569      0.99963     1.63196    0.02272     2.65431
      O    9   -0.31664      0.99988     3.31100    0.00576     4.31664
      N   10   -0.31877      0.99966     2.80971    0.00940     3.81877
      C   11   -0.09788      0.99960     2.08759    0.01069     3.09788
      C   12   -0.20535      0.99958     2.19819    0.00758     3.20535
      C   13    0.06056      0.99955     1.92386    0.01603     2.93944
      C   14   -0.04939      0.99948     2.03853    0.01138     3.04939
      N   15   -0.20465      0.99960     2.69357    0.01148     3.70465
      C   16   -0.00333      0.99950     1.99084    0.01300     3.00333
      C   17   -0.19173      0.99954     2.18087    0.01132     3.19173
      S   18    0.18636      4.99947     2.79360    0.02057     7.81364
      C   19    0.11355      0.99954     1.86589    0.02102     2.88645
      N   20   -0.26653      0.99965     2.75732    0.00956     3.76653
      H   21    0.10631      0.00000     0.39195    0.00174     0.39369
      H   22    0.11657      0.00000     0.38222    0.00121     0.38343
      H   23    0.12109      0.00000     0.37777    0.00114     0.37891
      H   24    0.11791      0.00000     0.37987    0.00222     0.38209
      H   25    0.12185      0.00000     0.37706    0.00109     0.37815
      H   26    0.12084      0.00000     0.37786    0.00130     0.37916
      H   27    0.12059      0.00000     0.37790    0.00151     0.37941
      H   28    0.19925      0.00000     0.29811    0.00264     0.30075
      H   29    0.09605      0.00000     0.40271    0.00124     0.40395
      H   30    0.11283      0.00000     0.38519    0.00198     0.38717
      H   31    0.10906      0.00000     0.38997    0.00097     0.39094
      H   32    0.10715      0.00000     0.39129    0.00156     0.39285
      H   33    0.11192      0.00000     0.38638    0.00170     0.38808
      H   34    0.11748      0.00000     0.37596    0.00656     0.38252
      H   35    0.11841      0.00000     0.37983    0.00176     0.38159
 =======================================================================
   * Total *   -0.00000     27.99210    53.65846    0.34944    82.00000

 Normal termination of Gaussian 16 at Sun Dec 13 20:09:32 2020.
