 Gaussian 16, Revision A.03,

 -----------------------------------------------------------
 # opt freq B3LYP/6-31G(d) empiricaldispersion=gd3bj scf=xqc
 -----------------------------------------------------------

 -------------------------------
 CID_136308631_JID_3621_neutraal
 -------------------------------
 Symbolic Z-matrix:
 Charge =  0 Multiplicity = 1

 SCF Done:  E(RB3LYP) =  -605.134465029     A.U. after   15 cycles
 SCF Done:  E(RB3LYP) =  -605.140554203     A.U. after   12 cycles
 SCF Done:  E(RB3LYP) =  -605.141179092     A.U. after   12 cycles
 SCF Done:  E(RB3LYP) =  -605.141185644     A.U. after   11 cycles
 SCF Done:  E(RB3LYP) =  -605.141281977     A.U. after   11 cycles
 SCF Done:  E(RB3LYP) =  -605.141312072     A.U. after   10 cycles
 SCF Done:  E(RB3LYP) =  -605.141315192     A.U. after    9 cycles
 SCF Done:  E(RB3LYP) =  -605.141315946     A.U. after    8 cycles
 SCF Done:  E(RB3LYP) =  -605.141316475     A.U. after    8 cycles
 SCF Done:  E(RB3LYP) =  -605.141317007     A.U. after    8 cycles
 SCF Done:  E(RB3LYP) =  -605.141377786     A.U. after   11 cycles
 SCF Done:  E(RB3LYP) =  -605.141382493     A.U. after    9 cycles
 SCF Done:  E(RB3LYP) =  -605.141385774     A.U. after   10 cycles
 SCF Done:  E(RB3LYP) =  -605.141385922     A.U. after    8 cycles
 SCF Done:  E(RB3LYP) =  -605.141385941     A.U. after    7 cycles
 Optimization completed.
    -- Stationary point found.
 Normal termination of Gaussian 16 at Wed Dec  9 23:49:25 2020.

 --------------------------------------------------------------------
 #N Geom=AllCheck Guess=TCheck SCRF=Check GenChk RB3LYP/6-31G(d) Freq
 --------------------------------------------------------------------

 Structure from the checkpoint file:  "JID_3621.chk"
 -------------------------------
 CID_136308631_JID_3621_neutraal
 -------------------------------
 Charge =  0 Multiplicity = 1

 SCF Done:  E(RB3LYP) =  -605.141385941     A.U. after    1 cycles

  Exact polarizability: 168.696  10.990 116.486   2.324   0.083  54.236
 Approx polarizability: 275.211  29.489 187.838   4.870  -0.980  83.173

                      1                      2                      3
                      A                      A                      A
 Frequencies --     39.5834                73.2463               106.8822
 Red. masses --      1.0145                 3.8781                 5.1959
 Frc consts  --      0.0009                 0.0123                 0.0350
 IR Inten    --      0.0676                 0.6638                 0.4000

                      4                      5                      6
                      A                      A                      A
 Frequencies --    127.7874               161.2740               201.7456
 Red. masses --      2.7023                 3.5982                 3.9037
 Frc consts  --      0.0260                 0.0551                 0.0936
 IR Inten    --      5.1002                 2.9602                 6.0357

                      7                      8                      9
                      A                      A                      A
 Frequencies --    237.2527               261.5628               343.2156
 Red. masses --      2.8695                 1.4306                 3.0583
 Frc consts  --      0.0952                 0.0577                 0.2123
 IR Inten    --      6.8133                49.8243                 6.9729

                     10                     11                     12
                      A                      A                      A
 Frequencies --    349.4378               369.9133               417.7745
 Red. masses --      6.2101                 7.7388                 2.9503
 Frc consts  --      0.4468                 0.6239                 0.3034
 IR Inten    --      3.5401                 3.9866                 0.4748

                     13                     14                     15
                      A                      A                      A
 Frequencies --    423.4928               477.3274               480.8590
 Red. masses --      5.3894                 1.6716                 3.8067
 Frc consts  --      0.5695                 0.2244                 0.5186
 IR Inten    --      0.6392                60.7554                16.0322

                     16                     17                     18
                      A                      A                      A
 Frequencies --    522.3651               623.0914               637.0251
 Red. masses --      4.7729                 1.2390                 4.6544
 Frc consts  --      0.7673                 0.2834                 1.1128
 IR Inten    --     22.7930                93.5426                16.9123

                     19                     20                     21
                      A                      A                      A
 Frequencies --    642.1713               666.3502               736.6628
 Red. masses --      2.7321                 4.5603                 5.8359
 Frc consts  --      0.6638                 1.1930                 1.8659
 IR Inten    --     13.1690                 3.0765                 4.9438

                     22                     23                     24
                      A                      A                      A
 Frequencies --    745.9431               766.1112               840.0139
 Red. masses --      6.6365                 7.7665                 4.4815
 Frc consts  --      2.1757                 2.6857                 1.8631
 IR Inten    --      4.4029                21.7663                28.4802

                     25                     26                     27
                      A                      A                      A
 Frequencies --    884.0630               895.2682               950.3892
 Red. masses --      1.5296                 2.5953                 1.3688
 Frc consts  --      0.7043                 1.2256                 0.7285
 IR Inten    --     69.1326                 2.4477                27.3857

                     28                     29                     30
                      A                      A                      A
 Frequencies --   1009.5755              1027.4410              1039.0743
 Red. masses --      1.6134                 1.6409                 3.5722
 Frc consts  --      0.9689                 1.0206                 2.2724
 IR Inten    --      6.0503                23.3113                12.1318

                     31                     32                     33
                      A                      A                      A
 Frequencies --   1069.5690              1090.8569              1153.1554
 Red. masses --      1.4792                 3.2028                 3.3736
 Frc consts  --      0.9970                 2.2455                 2.6431
 IR Inten    --      8.9348                20.2998                10.6877

                     34                     35                     36
                      A                      A                      A
 Frequencies --   1174.9466              1190.3167              1247.0588
 Red. masses --      3.7752                 1.2247                 1.9019
 Frc consts  --      3.0706                 1.0224                 1.7427
 IR Inten    --     12.9040                16.2213                28.0018

                     37                     38                     39
                      A                      A                      A
 Frequencies --   1311.3988              1318.4214              1326.7481
 Red. masses --      2.2960                 1.5813                 3.3803
 Frc consts  --      2.3265                 1.6195                 3.5058
 IR Inten    --      8.6169                 8.3986                17.2751

                     40                     41                     42
                      A                      A                      A
 Frequencies --   1375.5135              1380.6999              1446.6467
 Red. masses --      2.0455                 1.8835                 1.4911
 Frc consts  --      2.2803                 2.1155                 1.8386
 IR Inten    --     31.6250                 7.4515                 9.4958

                     43                     44                     45
                      A                      A                      A
 Frequencies --   1447.3186              1484.1379              1513.3256
 Red. masses --      1.4239                 2.5173                 1.0707
 Frc consts  --      1.7574                 3.2669                 1.4447
 IR Inten    --      6.3791                14.6153                 8.8628

                     46                     47                     48
                      A                      A                      A
 Frequencies --   1518.8141              1522.2536              1551.3411
 Red. masses --      1.2178                 1.1062                 4.0271
 Frc consts  --      1.6552                 1.5103                 5.7103
 IR Inten    --     25.9943                 1.4026                55.5431

                     49                     50                     51
                      A                      A                      A
 Frequencies --   1589.7226              1631.4092              1693.1261
 Red. masses --      6.5716                 5.6260                 1.3030
 Frc consts  --      9.7850                 8.8222                 2.2008
 IR Inten    --      2.1501                35.8448                67.8227

                     52                     53                     54
                      A                      A                      A
 Frequencies --   1699.8770              1761.7694              3006.1073
 Red. masses --      3.6064                 8.8475                 1.0697
 Frc consts  --      6.1399                16.1797                 5.6951
 IR Inten    --     54.1487               583.7176                36.5638

                     55                     56                     57
                      A                      A                      A
 Frequencies --   3046.5125              3053.6440              3102.5956
 Red. masses --      1.0401                 1.0917                 1.0990
 Frc consts  --      5.6876                 5.9977                 6.2329
 IR Inten    --     32.4625                23.5035                15.4120

                     58                     59                     60
                      A                      A                      A
 Frequencies --   3138.5382              3204.5459              3467.5812
 Red. masses --      1.1002                 1.0902                 1.0510
 Frc consts  --      6.3852                 6.5959                 7.4455
 IR Inten    --      9.0761                 1.3982                 1.0299

                     61                     62                     63
                      A                      A                      A
 Frequencies --   3555.7955              3606.1875              3666.6481
 Red. masses --      1.0914                 1.0770                 1.0811
 Frc consts  --      8.1306                 8.2522                 8.5635
 IR Inten    --      0.1716                48.1120               120.3628

 - Thermochemistry -
 -------------------
 Temperature   298.150 Kelvin.  Pressure   1.00000 Atm.
 Atom     1 has atomic number  6 and mass  12.00000

 Molecular mass:   178.08546 amu.
 Principal axes and moments of inertia in atomic units:
                           1         2         3
     Eigenvalues --  1356.152722973.390284293.98746
           X            1.00000   0.00085  -0.00159
           Y           -0.00084   1.00000   0.00298
           Z            0.00160  -0.00298   0.99999
 This molecule is an asymmetric top.
 Rotational symmetry number  1.
 Warning -- assumption of classical behavior for rotation
           may cause significant error
 Rotational temperatures (Kelvin)      0.06387     0.02913     0.02017
 Rotational constants (GHZ):           1.33078     0.60696     0.42029
 Zero-point vibrational energy     486901.0 (Joules/Mol)
                                  116.37212 (Kcal/Mol)
 Warning -- explicit consideration of  16 degrees of freedom as
           vibrations may cause significant error
 Vibrational temperatures:     56.95   105.39   153.78   183.86   232.04
          (Kelvin)            290.27   341.35   376.33   493.81   502.76
                              532.22   601.08   609.31   686.77   691.85
                              751.57   896.49   916.54   923.94   958.73
                             1059.89  1073.25  1102.26  1208.59  1271.97
                             1288.09  1367.40  1452.55  1478.26  1495.00
                             1538.87  1569.50  1659.13  1690.49  1712.60
                             1794.24  1886.81  1896.91  1908.89  1979.06
                             1986.52  2081.40  2082.37  2135.34  2177.34
                             2185.23  2190.18  2232.03  2287.26  2347.23
                             2436.03  2445.74  2534.79  4325.12  4383.25
                             4393.51  4463.94  4515.66  4610.63  4989.08
                             5116.00  5188.50  5275.49

 Zero-point correction=                           0.185451 (Hartree/Particle)
 Thermal correction to Energy=                    0.197207
 Thermal correction to Enthalpy=                  0.198151
 Thermal correction to Gibbs Free Energy=         0.147142
 Sum of electronic and zero-point Energies=           -604.955935
 Sum of electronic and thermal Energies=              -604.944179
 Sum of electronic and thermal Enthalpies=            -604.943235
 Sum of electronic and thermal Free Energies=         -604.994244

                     E (Thermal)             CV                S
                      KCal/Mol        Cal/Mol-Kelvin    Cal/Mol-Kelvin
 Total                  123.749             44.293            107.359
 Electronic               0.000              0.000              0.000
 Translational            0.889              2.981             41.438
 Rotational               0.889              2.981             31.227
 Vibrational            121.972             38.331             34.693
 Vibration     1          0.594              1.981              5.280
 Vibration     2          0.599              1.967              4.064
 Vibration     3          0.606              1.944              3.325
 Vibration     4          0.611              1.925              2.979
 Vibration     5          0.622              1.890              2.535
 Vibration     6          0.639              1.837              2.117
 Vibration     7          0.656              1.784              1.823
 Vibration     8          0.669              1.743              1.651
 Vibration     9          0.722              1.589              1.197
 Vibration    10          0.727              1.576              1.169
 Vibration    11          0.742              1.534              1.080
 Vibration    12          0.781              1.432              0.900
 Vibration    13          0.786              1.419              0.880
 Vibration    14          0.834              1.300              0.717
 Vibration    15          0.837              1.293              0.708
 Vibration    16          0.877              1.200              0.605

                           ! Non-Optimized Parameters !
 Normal termination of Gaussian 16 at Wed Dec  9 23:54:18 2020.

 ----------------------------------------------------------------------
 # B3LYP/6-311++G(d,p) empiricaldispersion=gd3bj scf=xqc pop=npa geom=c
 heck
 ----------------------------------------------------------------------

 ---------------------------------------
 CID_136308631_JID_3621_Energie_neutraal
 ---------------------------------------
 Structure from the checkpoint file:  "JID_3621.chk"
 Charge =  0 Multiplicity = 1

 SCF Done:  E(RB3LYP) =  -605.318867872     A.U. after   16 cycles
 Normal termination of Gaussian 16 at Wed Dec  9 23:56:07 2020.

 ----------------------------------------------------------------------
 # B3LYP/6-311++G(d,p) empiricaldispersion=gd3bj scf=xqc pop=npa geom=c
 heck
 ----------------------------------------------------------------------

 -------------------------------------
 CID_136308631_JID_3621_Energie_kation
 -------------------------------------
 Structure from the checkpoint file:  "JID_3621.chk"
 Charge =  1 Multiplicity = 2

 SCF Done:  E(UB3LYP) =  -605.028758670     A.U. after   29 cycles
 Normal termination of Gaussian 16 at Thu Dec 10 00:00:28 2020.
 Gaussian 16:  ES64L-G16RevA.03 25-Dec-2016

 ----------------------------------------------------------------------
 # B3LYP/6-311++G(d,p) empiricaldispersion=gd3bj scf=xqc pop=npa geom=c
 heck
 ----------------------------------------------------------------------

 ------------------------------------
 CID_136308631_JID_3621_Energie_anion
 ------------------------------------
 Structure from the checkpoint file:  "JID_3621.chk"
 Charge = -1 Multiplicity = 2

                         Standard orientation:
 ---------------------------------------------------------------------
 Center     Atomic      Atomic             Coordinates (Angstroms)
 Number     Number       Type             X           Y           Z
 ---------------------------------------------------------------------
      1          6           0        2.845671    2.105949   -0.043386
      2          6           0        2.242254    0.741121   -0.025352
      3          6           0        0.912569    0.317728   -0.026220
      4          6           0       -0.370947    0.943731   -0.073989
      5          6           0       -1.492232    0.173641   -0.060634
      6          6           0       -1.425963   -1.302117   -0.011579
      7          8           0       -2.418442   -2.027525   -0.016549
      8          7           0       -0.145647   -1.858559    0.038907
      9          6           0        0.998303   -1.100553    0.029958
     10          7           0        2.245270   -1.555879    0.064294
     11          7           0        2.977235   -0.398659    0.030853
     12          6           0       -2.886660    0.747098   -0.109020
     13          7           0       -2.884855    2.197145    0.112008
     14          1           0        3.780049    2.124849   -0.615370
     15          1           0        3.065219    2.467385    0.969300
     16          1           0        2.155552    2.816686   -0.506301
     17          1           0       -0.476494    2.023336   -0.129292
     18          1           0       -0.094430   -2.869593    0.066441
     19          1           0        3.983004   -0.473891    0.039841
     20          1           0       -3.314271    0.555050   -1.102294
     21          1           0       -3.515121    0.176244    0.592174
     22          1           0       -3.813384    2.566509   -0.080793
     23          1           0       -2.704583    2.385700    1.097576
 ---------------------------------------------------------------------

 SCF Done:  E(UB3LYP) =  -605.315303284     A.U. after   33 cycles
 SCF Done:  E(UB3LYP) =  -605.315303284     a.u. after    1 cycles

 The electronic state is 2-A.
 Alpha  occ. eigenvalues --  -18.95441 -14.25923 -14.23064 -14.20625 -14.19306
 Alpha  occ. eigenvalues --  -10.13926 -10.11156 -10.09304 -10.08128 -10.06738
 Alpha  occ. eigenvalues --  -10.04947 -10.04686 -10.04404  -0.92801  -0.90795
 Alpha  occ. eigenvalues --   -0.82193  -0.78172  -0.71115  -0.68979  -0.65303
 Alpha  occ. eigenvalues --   -0.60150  -0.55915  -0.52246  -0.50429  -0.47515
 Alpha  occ. eigenvalues --   -0.40771  -0.39824  -0.38550  -0.37580  -0.35444
 Alpha  occ. eigenvalues --   -0.34712  -0.33122  -0.31594  -0.31322  -0.29818
 Alpha  occ. eigenvalues --   -0.29042  -0.28418  -0.27285  -0.25589  -0.24631
 Alpha  occ. eigenvalues --   -0.20426  -0.18689  -0.18363  -0.14633  -0.13273
 Alpha  occ. eigenvalues --   -0.10969  -0.09572   0.04541
 Alpha virt. eigenvalues --    0.06660   0.06903   0.09005   0.10058   0.10309
 Alpha virt. eigenvalues --    0.10854   0.11240   0.11793   0.13195   0.13493
 Alpha virt. eigenvalues --    0.14504   0.15512   0.15665   0.16292   0.16784

  Beta  occ. eigenvalues --  -18.95325 -14.25787 -14.23021 -14.20631 -14.19292
  Beta  occ. eigenvalues --  -10.13830 -10.11153 -10.09118 -10.08134 -10.06705
  Beta  occ. eigenvalues --  -10.05004 -10.04447 -10.04314  -0.92661  -0.90588
  Beta  occ. eigenvalues --   -0.82067  -0.78137  -0.70908  -0.68760  -0.65036
  Beta  occ. eigenvalues --   -0.60050  -0.55694  -0.52001  -0.50263  -0.47425
  Beta  occ. eigenvalues --   -0.40600  -0.39720  -0.38455  -0.37485  -0.35294
  Beta  occ. eigenvalues --   -0.34356  -0.32930  -0.31463  -0.31041  -0.29730
  Beta  occ. eigenvalues --   -0.28850  -0.28270  -0.27005  -0.25476  -0.24520
  Beta  occ. eigenvalues --   -0.19882  -0.18347  -0.17898  -0.14558  -0.13160
  Beta  occ. eigenvalues --   -0.10453  -0.08868
  Beta virt. eigenvalues --    0.06867   0.07762   0.08685   0.09678   0.10307
  Beta virt. eigenvalues --    0.10430   0.11236   0.11418   0.12022   0.13482
  Beta virt. eigenvalues --    0.13932   0.14574   0.15546   0.15686   0.16441

 Mulliken charges and spin densities:
               1          2
     1  C    1.695658  -2.164778
     2  C   -0.266885   0.904230
     3  C    0.334239  -0.108682
     4  C    0.075078   0.127986
     5  C    0.592227  -0.380524
     6  C   -0.704221  -0.044633
     7  O   -0.403567   0.044509
     8  N   -0.314833   0.007978
     9  C   -0.420898   0.426792
    10  N   -0.247484   0.032487
    11  N   -0.151588   0.031357
    12  C   -0.686601  -0.048133
    13  N   -0.366346  -0.016096
    14  H   -0.787425   0.948245
    15  H    0.068480   0.085035
    16  H   -0.302092   0.465537
    17  H    0.158799   0.015744
    18  H    0.285878   0.002637
    19  H   -0.052497   0.382299
    20  H    0.055797   0.119375
    21  H    0.169030   0.004719
    22  H    0.121589   0.107863
    23  H    0.147660   0.056053
 Sum of Mulliken charges =  -1.00000   1.00000

 Dipole moment (field-independent basis, Debye):
    X=             -3.7664    Y=             -0.4494    Z=              2.7486  Tot=              4.6843
 Quadrupole moment (field-independent basis, Debye-Ang):
   XX=           -140.7991   YY=           -111.2540   ZZ=            -90.7504
   XY=            -15.6843   XZ=              5.4428   YZ=              6.9927

 Summary of Natural Population Analysis:

                                       Natural Population
                Natural  -----------------------------------------------
    Atom  No    Charge         Core      Valence    Rydberg      Total
 -----------------------------------------------------------------------
      C    1   -0.30340      0.99964     2.29818    0.00559     3.30340
      C    2    0.12861      0.99953     1.86019    0.01167     2.87139
      C    3   -0.10586      0.99945     2.09708    0.00932     3.10586
      C    4   -0.03418      0.99949     2.02473    0.00996     3.03418
      C    5   -0.06070      0.99948     2.05040    0.01082     3.06070
      C    6    0.33295      0.99961     1.64499    0.02244     2.66705
      O    7   -0.33154      0.99988     3.32594    0.00573     4.33154
      N    8   -0.29110      0.99963     2.78428    0.00718     3.79110
      C    9    0.18150      0.99952     1.80253    0.01646     2.81850
      N   10   -0.19617      0.99969     2.68356    0.01292     3.69617
      N   11   -0.15555      0.99965     2.64244    0.01347     3.65555
      C   12   -0.09501      0.99960     2.08520    0.01021     3.09501
      N   13   -0.42043      0.99978     2.91107    0.00959     3.92043
      H   14    0.11196      0.00000     0.38142    0.00662     0.38804
      H   15    0.10333      0.00000     0.39574    0.00093     0.39667
      H   16    0.11124      0.00000     0.38740    0.00137     0.38876
      H   17    0.10608      0.00000     0.39241    0.00151     0.39392
      H   18    0.19557      0.00000     0.30126    0.00317     0.30443
      H   19    0.19687      0.00000     0.29985    0.00328     0.30313
      H   20    0.09483      0.00000     0.40338    0.00178     0.40517
      H   21    0.08956      0.00000     0.40846    0.00198     0.41044
      H   22    0.17144      0.00000     0.32697    0.00159     0.32856
      H   23    0.17002      0.00000     0.32826    0.00173     0.32998
 =======================================================================
   * Total *   -0.00000     12.99495    33.83572    0.16933    47.00000

 Normal termination of Gaussian 16 at Thu Dec 10 00:05:27 2020.
