 Gaussian 16, Revision A.03,

 -----------------------------------------------------------
 # opt freq B3LYP/6-31G(d) empiricaldispersion=gd3bj scf=xqc
 -----------------------------------------------------------

 ------------------------------
 CID_64087933_JID_1102_neutraal
 ------------------------------
 Symbolic Z-matrix:
 Charge =  0 Multiplicity = 1

 SCF Done:  E(RB3LYP) =  -496.829903035     A.U. after   14 cycles
 SCF Done:  E(RB3LYP) =  -496.833166269     A.U. after   12 cycles
 SCF Done:  E(RB3LYP) =  -496.833055073     A.U. after   12 cycles
 SCF Done:  E(RB3LYP) =  -496.832886726     A.U. after   12 cycles
 SCF Done:  E(RB3LYP) =  -496.832615018     A.U. after   12 cycles
 SCF Done:  E(RB3LYP) =  -496.833552876     A.U. after    9 cycles
 SCF Done:  E(RB3LYP) =  -496.834156045     A.U. after   11 cycles
 SCF Done:  E(RB3LYP) =  -496.834145609     A.U. after   11 cycles
 SCF Done:  E(RB3LYP) =  -496.834211375     A.U. after   10 cycles
 SCF Done:  E(RB3LYP) =  -496.834213101     A.U. after    8 cycles
 SCF Done:  E(RB3LYP) =  -496.834213676     A.U. after    8 cycles
 SCF Done:  E(RB3LYP) =  -496.834213807     A.U. after    7 cycles
 Optimization completed.
    -- Stationary point found.
 Normal termination of Gaussian 16 at Tue Dec  8 19:13:39 2020.

 --------------------------------------------------------------------
 #N Geom=AllCheck Guess=TCheck SCRF=Check GenChk RB3LYP/6-31G(d) Freq
 --------------------------------------------------------------------

 Structure from the checkpoint file:  "JID_1102.chk"
 ------------------------------
 CID_64087933_JID_1102_neutraal
 ------------------------------
 Charge =  0 Multiplicity = 1

 SCF Done:  E(RB3LYP) =  -496.834213807     A.U. after    1 cycles

  Exact polarizability: 125.111   1.695 105.444   0.230   0.269  58.070
 Approx polarizability: 180.736   7.343 186.208   0.117  -0.606  81.813

                      1                      2                      3
                      A                      A                      A
 Frequencies --     84.9009               116.6882               201.5833
 Red. masses --      3.8544                 3.2423                 1.2327
 Frc consts  --      0.0164                 0.0260                 0.0295
 IR Inten    --      0.4414                 1.1593                 0.4964

                      4                      5                      6
                      A                      A                      A
 Frequencies --    220.2507               238.9471               265.1244
 Red. masses --      1.5028                 2.5275                 1.7410
 Frc consts  --      0.0430                 0.0850                 0.0721
 IR Inten    --      1.4350                 8.2212                 0.0400

                      7                      8                      9
                      A                      A                      A
 Frequencies --    278.4122               302.8936               325.1395
 Red. masses --      1.1276                 2.7995                 2.8489
 Frc consts  --      0.0515                 0.1513                 0.1774
 IR Inten    --    104.6276                 0.1107                 4.9384

                     10                     11                     12
                      A                      A                      A
 Frequencies --    350.8870               357.2694               396.4376
 Red. masses --      4.7198                 1.1549                 2.5062
 Frc consts  --      0.3424                 0.0869                 0.2321
 IR Inten    --      2.8303                24.3874                 2.4870

                     13                     14                     15
                      A                      A                      A
 Frequencies --    439.8465               514.4660               518.2345
 Red. masses --      3.1726                 3.5346                 2.8750
 Frc consts  --      0.3616                 0.5512                 0.4549
 IR Inten    --      3.9538                18.9904                40.6741

                     16                     17                     18
                      A                      A                      A
 Frequencies --    545.7672               595.1294               603.4133
 Red. masses --      4.4557                 2.5652                 3.9142
 Frc consts  --      0.7820                 0.5353                 0.8397
 IR Inten    --      1.6952                95.0377                 2.9224

                     19                     20                     21
                      A                      A                      A
 Frequencies --    618.8909               733.7222               774.6448
 Red. masses --      1.7567                 5.7721                 4.3858
 Frc consts  --      0.3964                 1.8308                 1.5506
 IR Inten    --    178.2642                 0.0691                 9.1732

                     22                     23                     24
                      A                      A                      A
 Frequencies --    828.8224               857.8943               886.6131
 Red. masses --      1.4328                 3.5967                 3.5302
 Frc consts  --      0.5799                 1.5596                 1.6350
 IR Inten    --     29.6436                23.3421                 9.3109

                     25                     26                     27
                      A                      A                      A
 Frequencies --    930.8867               950.0722               978.5739
 Red. masses --      1.5431                 1.3188                 2.2413
 Frc consts  --      0.7878                 0.7014                 1.2646
 IR Inten    --      0.6938                 1.0255                10.9457

                     28                     29                     30
                      A                      A                      A
 Frequencies --    985.1921              1036.7539              1066.4312
 Red. masses --      1.4231                 1.3032                 2.4993
 Frc consts  --      0.8138                 0.8253                 1.6747
 IR Inten    --      0.8758                 0.3188                 4.9049

                     31                     32                     33
                      A                      A                      A
 Frequencies --   1115.9381              1127.2402              1197.1284
 Red. masses --      1.6217                 1.6400                 2.1298
 Frc consts  --      1.1899                 1.2278                 1.7983
 IR Inten    --     50.8739                14.3360                57.7034

                     34                     35                     36
                      A                      A                      A
 Frequencies --   1200.6643              1206.7327              1244.8094
 Red. masses --      2.1348                 2.7191                 1.8213
 Frc consts  --      1.8132                 2.3329                 1.6628
 IR Inten    --     20.4957                36.5367                 8.8578

                     37                     38                     39
                      A                      A                      A
 Frequencies --   1315.8114              1333.8171              1364.2317
 Red. masses --      3.1536                 4.3450                 1.6458
 Frc consts  --      3.2169                 4.5544                 1.8047
 IR Inten    --      2.1971                15.8409                 8.9933

                     40                     41                     42
                      A                      A                      A
 Frequencies --   1402.5890              1430.1385              1448.4524
 Red. masses --      1.6346                 1.2284                 1.2496
 Frc consts  --      1.8946                 1.4803                 1.5446
 IR Inten    --     30.4452                 8.8048                 8.3198

                     43                     44                     45
                      A                      A                      A
 Frequencies --   1460.9806              1512.0133              1514.6716
 Red. masses --      2.3909                 1.0551                 1.0565
 Frc consts  --      3.0068                 1.4212                 1.4282
 IR Inten    --     38.5730                 0.8743                 0.4350

                     46                     47                     48
                      A                      A                      A
 Frequencies --   1523.7110              1537.7728              1545.5924
 Red. masses --      1.1389                 1.1737                 1.8648
 Frc consts  --      1.5579                 1.6353                 2.6247
 IR Inten    --     17.4355                14.1368                26.7936

                     49                     50                     51
                      A                      A                      A
 Frequencies --   1628.0612              1649.8790              1700.4151
 Red. masses --      6.0266                 4.6937                 1.1883
 Frc consts  --      9.4115                 7.5279                 2.0243
 IR Inten    --     43.4687                72.1824               110.1997

                     52                     53                     54
                      A                      A                      A
 Frequencies --   3043.4908              3049.8793              3109.1530
 Red. masses --      1.0448                 1.0415                 1.0967
 Frc consts  --      5.7018                 5.7080                 6.2465
 IR Inten    --     17.0289                49.3303                40.8163

                     55                     56                     57
                      A                      A                      A
 Frequencies --   3126.2368              3145.0275              3159.0006
 Red. masses --      1.0913                 1.1012                 1.1015
 Frc consts  --      6.2839                 6.4174                 6.4763
 IR Inten    --     25.5276                16.3579                11.3727

                     58                     59                     60
                      A                      A                      A
 Frequencies --   3162.7701              3184.5635              3235.6903
 Red. masses --      1.0870                 1.0948                 1.0898
 Frc consts  --      6.4063                 6.5419                 6.7228
 IR Inten    --     23.2007                36.3421                 3.1207

                     61                     62                     63
                      A                      A                      A
 Frequencies --   3571.0942              3678.5271              3747.5029
 Red. masses --      1.0500                 1.0955                 1.0661
 Frc consts  --      7.8894                 8.7343                 8.8212
 IR Inten    --     10.6122                15.9592                10.0115

 - Thermochemistry -
 -------------------
 Temperature   298.150 Kelvin.  Pressure   1.00000 Atm.
 Atom     1 has atomic number  6 and mass  12.00000

 Molecular mass:   152.09496 amu.
 Principal axes and moments of inertia in atomic units:
                           1         2         3
     Eigenvalues --  1016.183441902.852932519.21799
           X            1.00000  -0.00306   0.00073
           Y            0.00306   0.99998   0.00615
           Z           -0.00075  -0.00614   0.99998
 This molecule is an asymmetric top.
 Rotational symmetry number  1.
 Warning -- assumption of classical behavior for rotation
           may cause significant error
 Rotational temperatures (Kelvin)      0.08523     0.04552     0.03438
 Rotational constants (GHZ):           1.77600     0.94844     0.71639
 Zero-point vibrational energy     512465.1 (Joules/Mol)
                                  122.48210 (Kcal/Mol)
 Warning -- explicit consideration of  19 degrees of freedom as
           vibrations may cause significant error
 Vibrational temperatures:    122.15   167.89   290.03   316.89   343.79
          (Kelvin)            381.45   400.57   435.80   467.80   504.85
                              514.03   570.39   632.84   740.20   745.62
                              785.24   856.26   868.18   890.45  1055.66
                             1114.54  1192.49  1234.32  1275.64  1339.34
                             1366.94  1407.95  1417.47  1491.66  1534.36
                             1605.59  1621.85  1722.40  1727.49  1736.22
                             1791.00  1893.16  1919.07  1962.83  2018.01
                             2057.65  2084.00  2102.03  2175.45  2179.27
                             2192.28  2212.51  2223.76  2342.42  2373.81
                             2446.52  4378.90  4388.10  4473.38  4497.96
                             4524.99  4545.10  4550.52  4581.88  4655.44
                             5138.01  5292.58  5391.82

 Zero-point correction=                           0.195188 (Hartree/Particle)
 Thermal correction to Energy=                    0.205986
 Thermal correction to Enthalpy=                  0.206930
 Thermal correction to Gibbs Free Energy=         0.159951
 Sum of electronic and zero-point Energies=           -496.639026
 Sum of electronic and thermal Energies=              -496.628228
 Sum of electronic and thermal Enthalpies=            -496.627283
 Sum of electronic and thermal Free Energies=         -496.674263

                     E (Thermal)             CV                S
                      KCal/Mol        Cal/Mol-Kelvin    Cal/Mol-Kelvin
 Total                  129.258             42.692             98.876
 Electronic               0.000              0.000              0.000
 Translational            0.889              2.981             40.968
 Rotational               0.889              2.981             29.967
 Vibrational            127.481             36.730             27.941
 Vibration     1          0.601              1.960              3.774
 Vibration     2          0.608              1.936              3.154
 Vibration     3          0.638              1.838              2.119
 Vibration     4          0.647              1.810              1.957
 Vibration     5          0.657              1.781              1.811
 Vibration     6          0.671              1.737              1.628
 Vibration     7          0.679              1.713              1.543
 Vibration     8          0.694              1.668              1.401
 Vibration     9          0.709              1.625              1.284
 Vibration    10          0.728              1.573              1.162
 Vibration    11          0.732              1.560              1.134
 Vibration    12          0.763              1.478              0.976
 Vibration    13          0.800              1.383              0.827
 Vibration    14          0.870              1.218              0.623
 Vibration    15          0.873              1.210              0.614
 Vibration    16          0.901              1.149              0.553
 Vibration    17          0.953              1.042              0.458
 Vibration    18          0.962              1.025              0.444
 Vibration    19          0.979              0.992              0.418

                           ! Non-Optimized Parameters !
 Normal termination of Gaussian 16 at Tue Dec  8 19:18:43 2020.

 ----------------------------------------------------------------------
 # B3LYP/6-311++G(d,p) empiricaldispersion=gd3bj scf=xqc pop=npa geom=c
 heck
 ----------------------------------------------------------------------

 --------------------------------------
 CID_64087933_JID_1102_Energie_neutraal
 --------------------------------------
 Structure from the checkpoint file:  "JID_1102.chk"
 Charge =  0 Multiplicity = 1

 SCF Done:  E(RB3LYP) =  -496.986125977     A.U. after   15 cycles
 Normal termination of Gaussian 16 at Tue Dec  8 19:20:58 2020.

 ----------------------------------------------------------------------
 # B3LYP/6-311++G(d,p) empiricaldispersion=gd3bj scf=xqc pop=npa geom=c
 heck
 ----------------------------------------------------------------------

 ------------------------------------
 CID_64087933_JID_1102_Energie_kation
 ------------------------------------
 Structure from the checkpoint file:  "JID_1102.chk"
 Charge =  1 Multiplicity = 2

 SCF Done:  E(UB3LYP) =  -496.679734289     A.U. after   26 cycles
 Normal termination of Gaussian 16 at Tue Dec  8 19:26:20 2020.
 Gaussian 16:  ES64L-G16RevA.03 25-Dec-2016

 ----------------------------------------------------------------------
 # B3LYP/6-311++G(d,p) empiricaldispersion=gd3bj scf=xqc pop=npa geom=c
 heck
 ----------------------------------------------------------------------

 -----------------------------------
 CID_64087933_JID_1102_Energie_anion
 -----------------------------------
 Structure from the checkpoint file:  "JID_1102.chk"
 Charge = -1 Multiplicity = 2

                         Standard orientation:
 ---------------------------------------------------------------------
 Center     Atomic      Atomic             Coordinates (Angstroms)
 Number     Number       Type             X           Y           Z
 ---------------------------------------------------------------------
      1          6           0        2.022420    0.501663   -1.250090
      2          6           0        1.469359   -0.217209   -0.007056
      3          6           0        2.042376    0.356422    1.304386
      4          6           0       -0.060369   -0.217702    0.002927
      5          6           0       -0.839022    0.963565    0.001664
      6          6           0       -2.236279    0.822916   -0.004900
      7          6           0       -2.800939   -0.443305   -0.004444
      8          7           0       -2.087069   -1.574695    0.006643
      9          6           0       -0.754896   -1.432802    0.009164
     10          7           0       -0.299082    2.247273   -0.056711
     11          8           0        1.873582   -1.593568   -0.076200
     12          1           0        1.695197    1.541037   -1.323719
     13          1           0        1.681855   -0.025277   -2.145624
     14          1           0        3.120325    0.489096   -1.232654
     15          1           0        1.767152    1.399646    1.491350
     16          1           0        1.683770   -0.242200    2.145795
     17          1           0        3.138746    0.312388    1.284338
     18          1           0       -2.868533    1.707612   -0.012015
     19          1           0       -3.884341   -0.554462   -0.007761
     20          1           0       -0.180463   -2.351619    0.013297
     21          1           0       -0.944514    2.980537    0.209046
     22          1           0        0.608096    2.378466    0.365203
     23          1           0        2.841220   -1.596015   -0.137093
 ---------------------------------------------------------------------

 SCF Done:  E(UB3LYP) =  -496.978639321     A.U. after   33 cycles
 SCF Done:  E(UB3LYP) =  -496.978639322     a.u. after    1 cycles

 The electronic state is 2-A.
 Alpha  occ. eigenvalues --  -19.01992 -14.21824 -14.19313 -10.13932 -10.12593
 Alpha  occ. eigenvalues --  -10.09884 -10.09142 -10.07748 -10.06973 -10.05898
 Alpha  occ. eigenvalues --  -10.05706  -0.92770  -0.83895  -0.81322  -0.69741
 Alpha  occ. eigenvalues --   -0.66599  -0.64090  -0.59318  -0.53864  -0.52323
 Alpha  occ. eigenvalues --   -0.48234  -0.42559  -0.42225  -0.38831  -0.37321
 Alpha  occ. eigenvalues --   -0.34731  -0.34243  -0.33515  -0.33151  -0.30904
 Alpha  occ. eigenvalues --   -0.30383  -0.28443  -0.28310  -0.25742  -0.24467
 Alpha  occ. eigenvalues --   -0.23492  -0.23403  -0.18137  -0.15349  -0.15092
 Alpha  occ. eigenvalues --   -0.12544   0.04218
 Alpha virt. eigenvalues --    0.06530   0.08054   0.08598   0.08757   0.09561
 Alpha virt. eigenvalues --    0.09869   0.10135   0.11123   0.12434   0.12787
 Alpha virt. eigenvalues --    0.12931   0.13130   0.14380   0.15759   0.16116

  Beta  occ. eigenvalues --  -19.01959 -14.21746 -14.19311 -10.13931 -10.12584
  Beta  occ. eigenvalues --  -10.09883 -10.09138 -10.07743 -10.06956 -10.05841
  Beta  occ. eigenvalues --  -10.05672  -0.92699  -0.83863  -0.81253  -0.69696
  Beta  occ. eigenvalues --   -0.66550  -0.64057  -0.59235  -0.53815  -0.52264
  Beta  occ. eigenvalues --   -0.48162  -0.42492  -0.42165  -0.38759  -0.37279
  Beta  occ. eigenvalues --   -0.34686  -0.34168  -0.33478  -0.33112  -0.30867
  Beta  occ. eigenvalues --   -0.30332  -0.28399  -0.28272  -0.25706  -0.24434
  Beta  occ. eigenvalues --   -0.23440  -0.23354  -0.18098  -0.15337  -0.15078
  Beta  occ. eigenvalues --   -0.12490
  Beta virt. eigenvalues --    0.07180   0.07844   0.08542   0.08759   0.09084
  Beta virt. eigenvalues --    0.10145   0.10399   0.10525   0.11587   0.12717
  Beta virt. eigenvalues --    0.12996   0.13651   0.13886   0.14606   0.15938

 Mulliken charges and spin densities:
               1          2
     1  C    0.839122  -1.348207
     2  C   -1.198158   1.189858
     3  C    1.325377  -1.829486
     4  C    3.941424  -3.235591
     5  C   -4.158731   3.055863
     6  C    1.125766  -0.976638
     7  C   -0.333836  -0.127721
     8  N   -0.098025   0.014317
     9  C    0.428439  -0.388187
    10  N   -0.391996   0.143259
    11  O   -0.194746   0.001579
    12  H   -0.288607   0.426039
    13  H    0.205011  -0.030806
    14  H   -0.433513   0.581738
    15  H   -0.843101   0.967134
    16  H    0.202943  -0.025143
    17  H   -0.550707   0.706260
    18  H   -0.318784   0.478773
    19  H    0.142785   0.009251
    20  H    0.140940   0.077588
    21  H   -0.636810   0.909599
    22  H    0.256620  -0.017072
    23  H   -0.161411   0.417593
 Sum of Mulliken charges =  -1.00000   1.00000

 Dipole moment (field-independent basis, Debye):
    X=             -3.1043    Y=             -3.7262    Z=             -1.4908  Tot=              5.0739
 Quadrupole moment (field-independent basis, Debye-Ang):
   XX=           -119.3603   YY=           -120.7645   ZZ=            -91.5542
   XY=             -1.5066   XZ=             -1.7918   YZ=             -4.4480

 Summary of Natural Population Analysis:

                                       Natural Population
                Natural  -----------------------------------------------
    Atom  No    Charge         Core      Valence    Rydberg      Total
 -----------------------------------------------------------------------
      C    1   -0.29544      0.99961     2.28919    0.00664     3.29544
      C    2    0.12275      0.99954     1.86299    0.01472     2.87725
      C    3   -0.28956      0.99961     2.28312    0.00683     3.28956
      C    4   -0.06438      0.99942     2.05261    0.01235     3.06438
      C    5    0.10509      0.99945     1.88338    0.01208     2.89491
      C    6   -0.14439      0.99952     2.13521    0.00966     3.14439
      C    7    0.02379      0.99959     1.96131    0.01531     2.97621
      N    8   -0.25406      0.99972     2.74304    0.01130     3.75406
      C    9    0.03735      0.99953     1.94980    0.01331     2.96265
      N   10   -0.39168      0.99971     2.88122    0.01075     3.89168
      O   11   -0.37662      0.99989     3.37043    0.00631     4.37662
      H   12    0.10823      0.00000     0.39027    0.00150     0.39177
      H   13    0.10359      0.00000     0.39540    0.00102     0.39641
      H   14    0.09947      0.00000     0.39899    0.00155     0.40053
      H   15    0.09808      0.00000     0.39963    0.00229     0.40192
      H   16    0.10531      0.00000     0.39351    0.00117     0.39469
      H   17    0.10195      0.00000     0.39566    0.00238     0.39805
      H   18    0.10336      0.00000     0.39557    0.00107     0.39664
      H   19    0.08582      0.00000     0.41298    0.00120     0.41418
      H   20    0.10301      0.00000     0.39513    0.00186     0.39699
      H   21    0.19246      0.00000     0.29809    0.00945     0.30754
      H   22    0.19383      0.00000     0.30113    0.00504     0.30617
      H   23    0.23203      0.00000     0.26427    0.00370     0.26797
 =======================================================================
   * Total *   -0.00000     10.99559    29.85293    0.15148    41.00000

 Normal termination of Gaussian 16 at Tue Dec  8 19:33:12 2020.
