 Gaussian 16, Revision A.03,

 -----------------------------------------------------------
 # opt freq B3LYP/6-31G(d) empiricaldispersion=gd3bj scf=xqc
 -----------------------------------------------------------

 ------------------------------
 CID_54539311_JID_9088_neutraal
 ------------------------------
 Symbolic Z-matrix:
 Charge =  0 Multiplicity = 1

 SCF Done:  E(RB3LYP) =  -1130.90080147     A.U. after   17 cycles
 SCF Done:  E(RB3LYP) =  -1130.90701518     A.U. after   13 cycles
 SCF Done:  E(RB3LYP) =  -1130.90909378     A.U. after   13 cycles
 SCF Done:  E(RB3LYP) =  -1130.90977981     A.U. after   13 cycles
 SCF Done:  E(RB3LYP) =  -1130.91109081     A.U. after   13 cycles
 SCF Done:  E(RB3LYP) =  -1130.91127787     A.U. after   13 cycles
 SCF Done:  E(RB3LYP) =  -1130.91125032     A.U. after   12 cycles
 SCF Done:  E(RB3LYP) =  -1130.91133206     A.U. after   12 cycles
 SCF Done:  E(RB3LYP) =  -1130.91137210     A.U. after   11 cycles
 SCF Done:  E(RB3LYP) =  -1130.91138303     A.U. after   11 cycles
 SCF Done:  E(RB3LYP) =  -1130.91141210     A.U. after   11 cycles
 SCF Done:  E(RB3LYP) =  -1130.91141381     A.U. after   10 cycles
 SCF Done:  E(RB3LYP) =  -1130.91141322     A.U. after   10 cycles
 SCF Done:  E(RB3LYP) =  -1130.91141436     A.U. after   10 cycles
 SCF Done:  E(RB3LYP) =  -1130.91141285     A.U. after   11 cycles
 SCF Done:  E(RB3LYP) =  -1130.91141482     A.U. after   10 cycles
 Optimization completed.
    -- Stationary point found.
 Normal termination of Gaussian 16 at Mon Dec 14 13:36:36 2020.

 --------------------------------------------------------------------
 #N Geom=AllCheck Guess=TCheck SCRF=Check GenChk RB3LYP/6-31G(d) Freq
 --------------------------------------------------------------------

 Structure from the checkpoint file:  "JID_9088.chk"
 ------------------------------
 CID_54539311_JID_9088_neutraal
 ------------------------------
 Charge =  0 Multiplicity = 1

 SCF Done:  E(RB3LYP) =  -1130.91141482     A.U. after    1 cycles

  Exact polarizability: 340.955  17.914 252.482  20.761   1.081 108.949
 Approx polarizability: 476.657  72.131 454.103  47.310   6.542 183.067

                      1                      2                      3
                      A                      A                      A
 Frequencies --     17.2660                18.2488                35.9464
 Red. masses --      4.3765                 1.0867                 4.4227
 Frc consts  --      0.0008                 0.0002                 0.0034
 IR Inten    --      0.7234                 0.2294                 0.5108

                      4                      5                      6
                      A                      A                      A
 Frequencies --     45.8364                71.4298                88.4758
 Red. masses --      3.7700                 4.3450                 4.0214
 Frc consts  --      0.0047                 0.0131                 0.0185
 IR Inten    --      0.9005                 1.1796                 4.6487

                      7                      8                      9
                      A                      A                      A
 Frequencies --     98.4437               140.9420               157.0273
 Red. masses --      4.8115                 3.7778                 4.3916
 Frc consts  --      0.0275                 0.0442                 0.0638
 IR Inten    --      0.6400                 2.1203                 1.3102

                     10                     11                     12
                      A                      A                      A
 Frequencies --    193.8359               212.2665               216.3608
 Red. masses --      5.1366                 2.0628                 3.9431
 Frc consts  --      0.1137                 0.0548                 0.1088
 IR Inten    --      1.7555                 0.5063                 0.6422

                     13                     14                     15
                      A                      A                      A
 Frequencies --    258.2337               278.1041               281.0968
 Red. masses --      4.4826                 3.5459                 1.5522
 Frc consts  --      0.1761                 0.1616                 0.0723
 IR Inten    --      0.8952                 1.5330                 0.6651

                     16                     17                     18
                      A                      A                      A
 Frequencies --    305.1587               349.3735               365.1731
 Red. masses --      3.3651                 3.7612                 3.5480
 Frc consts  --      0.1846                 0.2705                 0.2788
 IR Inten    --      0.9986                 1.3867                 2.0579

                     19                     20                     21
                      A                      A                      A
 Frequencies --    422.8186               438.4403               458.3833
 Red. masses --      3.1156                 4.9435                 3.3426
 Frc consts  --      0.3282                 0.5599                 0.4138
 IR Inten    --      0.7204                 2.3583                 1.6263

                     22                     23                     24
                      A                      A                      A
 Frequencies --    467.0814               514.7787               533.3198
 Red. masses --      4.2474                 4.5818                 4.1576
 Frc consts  --      0.5460                 0.7154                 0.6967
 IR Inten    --      1.3676                12.3357                14.6896

                     25                     26                     27
                      A                      A                      A
 Frequencies --    582.3018               590.4776               616.1131
 Red. masses --      4.3249                 3.8460                 6.4784
 Frc consts  --      0.8640                 0.7901                 1.4489
 IR Inten    --      9.6438                 1.1452                 9.9040

                     28                     29                     30
                      A                      A                      A
 Frequencies --    643.0165               661.5688               697.4060
 Red. masses --      5.2255                 5.9003                 2.2290
 Frc consts  --      1.2730                 1.5215                 0.6388
 IR Inten    --      1.0050                 2.9138                 8.9564

                     31                     32                     33
                      A                      A                      A
 Frequencies --    702.6949               737.4828               780.4388
 Red. masses --      4.7983                 3.3288                 4.7180
 Frc consts  --      1.3960                 1.0667                 1.6931
 IR Inten    --      4.2108                 3.5168                14.9853

                     34                     35                     36
                      A                      A                      A
 Frequencies --    788.9371               829.5899               845.3737
 Red. masses --      1.5803                 3.8226                 1.6392
 Frc consts  --      0.5795                 1.5500                 0.6902
 IR Inten    --     35.3708                 2.1327                27.9241

                     37                     38                     39
                      A                      A                      A
 Frequencies --    858.6476               875.7362               881.2852
 Red. masses --      1.2548                 1.4439                 1.5270
 Frc consts  --      0.5451                 0.6524                 0.6987
 IR Inten    --      4.6555                 7.2295                 7.3373

                     40                     41                     42
                      A                      A                      A
 Frequencies --    914.8481               945.2101               966.4916
 Red. masses --      1.8774                 3.7639                 1.2729
 Frc consts  --      0.9258                 1.9813                 0.7006
 IR Inten    --      7.9169                 2.9243                 0.1142

                     43                     44                     45
                      A                      A                      A
 Frequencies --    973.7839               978.5562              1014.2792
 Red. masses --      1.3203                 1.2950                 5.3808
 Frc consts  --      0.7376                 0.7306                 3.2614
 IR Inten    --      4.1634                 2.4419                 5.4545

                     46                     47                     48
                      A                      A                      A
 Frequencies --   1019.0650              1022.9311              1034.9500
 Red. masses --      1.3942                 1.1795                 4.3404
 Frc consts  --      0.8530                 0.7272                 2.7391
 IR Inten    --     10.0744                35.1816                19.7460

                     49                     50                     51
                      A                      A                      A
 Frequencies --   1064.0344              1074.6882              1093.9419
 Red. masses --      3.2203                 1.5329                 3.7216
 Frc consts  --      2.1481                 1.0431                 2.6240
 IR Inten    --     20.4103                 7.0710                63.4467

                     52                     53                     54
                      A                      A                      A
 Frequencies --   1133.6042              1151.7700              1173.9591
 Red. masses --      1.6408                 1.5521                 2.4557
 Frc consts  --      1.2423                 1.2131                 1.9940
 IR Inten    --      5.1121                46.8223                60.2146

                     55                     56                     57
                      A                      A                      A
 Frequencies --   1186.4330              1203.2554              1216.2803
 Red. masses --      1.2709                 1.3227                 1.3427
 Frc consts  --      1.0540                 1.1283                 1.1703
 IR Inten    --      0.8113                61.8336                21.3904

                     58                     59                     60
                      A                      A                      A
 Frequencies --   1222.5792              1234.0862              1247.6209
 Red. masses --      1.1611                 1.5242                 3.0059
 Frc consts  --      1.0226                 1.3677                 2.7567
 IR Inten    --     42.7927                41.9807                 2.5287

                     61                     62                     63
                      A                      A                      A
 Frequencies --   1298.8358              1328.0657              1336.6560
 Red. masses --      3.1509                 4.5460                 2.1986
 Frc consts  --      3.1318                 4.7241                 2.3144
 IR Inten    --    363.7169               108.1869                66.6234

                     64                     65                     66
                      A                      A                      A
 Frequencies --   1341.2506              1354.8427              1359.9763
 Red. masses --      1.9967                 1.8935                 2.0128
 Frc consts  --      2.1163                 2.0479                 2.1934
 IR Inten    --     16.5594                 1.1022                43.7592

                     67                     68                     69
                      A                      A                      A
 Frequencies --   1364.7181              1390.3188              1442.1286
 Red. masses --      1.3974                 3.8425                 1.2493
 Frc consts  --      1.5334                 4.3761                 1.5308
 IR Inten    --     20.7036                15.7314                 0.3192

                     70                     71                     72
                      A                      A                      A
 Frequencies --   1456.0234              1483.7176              1502.5172
 Red. masses --      2.6650                 2.6154                 1.3311
 Frc consts  --      3.3287                 3.3922                 1.7706
 IR Inten    --     10.3045                19.8374                 5.3220

                     73                     74                     75
                      A                      A                      A
 Frequencies --   1514.7417              1521.4009              1521.5567
 Red. masses --      1.0493                 1.1105                 1.0476
 Frc consts  --      1.4185                 1.5144                 1.4290
 IR Inten    --      6.0333                 9.9506                 6.1359

                     76                     77                     78
                      A                      A                      A
 Frequencies --   1535.8069              1545.2779              1555.3281
 Red. masses --      1.0611                 2.4048                 2.4656
 Frc consts  --      1.4746                 3.3833                 3.5141
 IR Inten    --     42.2045                29.4931                 0.6736

                     79                     80                     81
                      A                      A                      A
 Frequencies --   1616.4788              1633.0847              1662.5783
 Red. masses --      5.2915                 4.7110                 4.8698
 Frc consts  --      8.1464                 7.4026                 7.9309
 IR Inten    --      0.5870               204.3194               105.6542

                     82                     83                     84
                      A                      A                      A
 Frequencies --   1665.4992              1669.3802              3027.6849
 Red. masses --      5.9825                 5.6149                 1.0348
 Frc consts  --      9.7774                 9.2193                 5.5890
 IR Inten    --     89.7494                43.8437                62.4756

                     85                     86                     87
                      A                      A                      A
 Frequencies --   3044.6770              3087.2620              3098.8648
 Red. masses --      1.0387                 1.1068                 1.0988
 Frc consts  --      5.6729                 6.2152                 6.2169
 IR Inten    --     31.0886                41.3698                18.1391

                     88                     89                     90
                      A                      A                      A
 Frequencies --   3129.6246              3162.9402              3182.6812
 Red. masses --      1.1016                 1.0998                 1.0893
 Frc consts  --      6.3570                 6.4826                 6.5009
 IR Inten    --     15.6051                26.4832                19.1987

                     91                     92                     93
                      A                      A                      A
 Frequencies --   3184.5802              3190.5373              3195.0587
 Red. masses --      1.0889                 1.0901                 1.0877
 Frc consts  --      6.5065                 6.5379                 6.5421
 IR Inten    --     18.8673                 1.4205                17.5884

                     94                     95                     96
                      A                      A                      A
 Frequencies --   3204.5240              3207.8054              3217.1158
 Red. masses --      1.0886                 1.0899                 1.0922
 Frc consts  --      6.5866                 6.6076                 6.6601
 IR Inten    --      5.0134                 4.7059                 6.9214

                     97                     98                     99
                      A                      A                      A
 Frequencies --   3221.9257              3224.1490              3234.1419
 Red. masses --      1.0924                 1.0910                 1.0922
 Frc consts  --      6.6814                 6.6821                 6.7306
 IR Inten    --      2.8694                 7.9663                12.7502

 - Thermochemistry -
 -------------------
 Temperature   298.150 Kelvin.  Pressure   1.00000 Atm.
 Atom     1 has atomic number  6 and mass  12.00000

 Molecular mass:   268.09219 amu.
 Principal axes and moments of inertia in atomic units:
                           1         2         3
     Eigenvalues --  3483.39258********************
           X            0.99987  -0.01627   0.00073
           Y            0.01627   0.99987  -0.00205
           Z           -0.00070   0.00206   1.00000
 This molecule is an asymmetric top.
 Rotational symmetry number  1.
 Warning -- assumption of classical behavior for rotation
           may cause significant error
 Rotational temperatures (Kelvin)      0.02486     0.00728     0.00583
 Rotational constants (GHZ):           0.51810     0.15176     0.12146
 Zero-point vibrational energy     745544.1 (Joules/Mol)
                                  178.18931 (Kcal/Mol)
 Warning -- explicit consideration of  27 degrees of freedom as
           vibrations may cause significant error
 Vibrational temperatures:     24.84    26.26    51.72    65.95   102.77
          (Kelvin)            127.30   141.64   202.78   225.93   278.89
                              305.40   311.29   371.54   400.13   404.44
                              439.06   502.67   525.40   608.34   630.82
                              659.51   672.03   740.65   767.33   837.80
                              849.57   886.45   925.16   951.85  1003.41
                             1011.02  1061.07  1122.88  1135.10  1193.59
                             1216.30  1235.40  1259.99  1267.97  1316.26
                             1359.95  1390.57  1401.06  1407.92  1459.32
                             1466.21  1471.77  1489.06  1530.91  1546.24
                             1573.94  1631.00  1657.14  1689.07  1707.01
                             1731.22  1749.96  1759.02  1775.57  1795.05
                             1868.74  1910.79  1923.15  1929.76  1949.32
                             1956.70  1963.52  2000.36  2074.90  2094.89
                             2134.74  2161.79  2179.38  2188.96  2189.18
                             2209.68  2223.31  2237.77  2325.75  2349.64
                             2392.08  2396.28  2401.87  4356.16  4380.61
                             4441.88  4458.58  4502.83  4550.77  4579.17
                             4581.90  4590.47  4596.98  4610.60  4615.32
                             4628.71  4635.63  4638.83  4653.21

 Zero-point correction=                           0.283963 (Hartree/Particle)
 Thermal correction to Energy=                    0.301792
 Thermal correction to Enthalpy=                  0.302736
 Thermal correction to Gibbs Free Energy=         0.234597
 Sum of electronic and zero-point Energies=          -1130.627452
 Sum of electronic and thermal Energies=             -1130.609623
 Sum of electronic and thermal Enthalpies=           -1130.608679
 Sum of electronic and thermal Free Energies=        -1130.676818

                     E (Thermal)             CV                S
                      KCal/Mol        Cal/Mol-Kelvin    Cal/Mol-Kelvin
 Total                  189.377             66.727            143.410
 Electronic               0.000              0.000              0.000
 Translational            0.889              2.981             42.658
 Rotational               0.889              2.981             34.775
 Vibrational            187.600             60.766             65.978
 Vibration     1          0.593              1.986              6.926
 Vibration     2          0.593              1.986              6.816
 Vibration     3          0.594              1.982              5.471
 Vibration     4          0.595              1.979              4.989
 Vibration     5          0.598              1.968              4.114
 Vibration     6          0.601              1.957              3.693
 Vibration     7          0.604              1.950              3.485
 Vibration     8          0.615              1.912              2.791
 Vibration     9          0.621              1.895              2.585
 Vibration    10          0.635              1.848              2.191
 Vibration    11          0.643              1.822              2.024
 Vibration    12          0.645              1.816              1.989
 Vibration    13          0.667              1.749              1.674
 Vibration    14          0.679              1.714              1.545
 Vibration    15          0.681              1.709              1.527
 Vibration    16          0.696              1.664              1.388
 Vibration    17          0.727              1.577              1.169
 Vibration    18          0.738              1.544              1.100
 Vibration    19          0.785              1.421              0.882
 Vibration    20          0.799              1.386              0.832
 Vibration    21          0.816              1.342              0.771
 Vibration    22          0.824              1.323              0.746
 Vibration    23          0.870              1.217              0.622
 Vibration    24          0.888              1.176              0.580
 Vibration    25          0.939              1.070              0.481
 Vibration    26          0.948              1.052              0.466
 Vibration    27          0.976              0.998              0.423

                           ! Non-Optimized Parameters !
 Normal termination of Gaussian 16 at Mon Dec 14 13:51:02 2020.

 ----------------------------------------------------------------------
 # B3LYP/6-311++G(d,p) empiricaldispersion=gd3bj scf=xqc pop=npa geom=c
 heck
 ----------------------------------------------------------------------

 --------------------------------------
 CID_54539311_JID_9088_Energie_neutraal
 --------------------------------------
 Structure from the checkpoint file:  "JID_9088.chk"
 Charge =  0 Multiplicity = 1

 SCF Done:  E(RB3LYP) =  -1131.12526088     A.U. after   19 cycles
 Normal termination of Gaussian 16 at Mon Dec 14 13:59:14 2020.

 ----------------------------------------------------------------------
 # B3LYP/6-311++G(d,p) empiricaldispersion=gd3bj scf=xqc pop=npa geom=c
 heck
 ----------------------------------------------------------------------

 ------------------------------------
 CID_54539311_JID_9088_Energie_kation
 ------------------------------------
 Structure from the checkpoint file:  "JID_9088.chk"
 Charge =  1 Multiplicity = 2

 SCF Done:  E(UB3LYP) =  -1130.85436466     A.U. after   31 cycles
 Normal termination of Gaussian 16 at Mon Dec 14 14:18:30 2020.
 Gaussian 16:  ES64L-G16RevA.03 25-Dec-2016

 ----------------------------------------------------------------------
 # B3LYP/6-311++G(d,p) empiricaldispersion=gd3bj scf=xqc pop=npa geom=c
 heck
 ----------------------------------------------------------------------

 -----------------------------------
 CID_54539311_JID_9088_Energie_anion
 -----------------------------------
 Structure from the checkpoint file:  "JID_9088.chk"
 Charge = -1 Multiplicity = 2

                         Standard orientation:
 ---------------------------------------------------------------------
 Center     Atomic      Atomic             Coordinates (Angstroms)
 Number     Number       Type             X           Y           Z
 ---------------------------------------------------------------------
      1          6           0        4.790941   -3.288425   -0.162349
      2          6           0        4.005718   -2.001770   -0.126372
      3          6           0        4.308952   -1.003978    0.813185
      4          6           0        3.591453    0.182960    0.858491
      5          6           0        2.518355    0.408499   -0.021336
      6          6           0        2.212704   -0.589142   -0.962439
      7          6           0        2.953816   -1.767387   -1.017384
      8          6           0        1.771036    1.686493    0.010381
      9         16           0        2.551705    3.137057    0.252596
     10          6           0        0.327215    1.678501   -0.162751
     11          6           0       -0.471786    0.600344    0.029773
     12          6           0       -1.927422    0.570670   -0.063168
     13          6           0       -2.581577   -0.631898    0.233047
     14          6           0       -3.974939   -0.735512    0.161407
     15          6           0       -4.734128    0.377515   -0.213299
     16          6           0       -4.081337    1.580113   -0.511513
     17          6           0       -2.701365    1.688395   -0.441947
     18          8           0       -4.491569   -1.957706    0.473755
     19          6           0       -5.900281   -2.116041    0.421992
     20          1           0        5.870059   -3.096614   -0.156920
     21          1           0        4.570535   -3.910470    0.714671
     22          1           0        4.555357   -3.876745   -1.054274
     23          1           0        5.124464   -1.162587    1.514750
     24          1           0        3.845340    0.953415    1.578495
     25          1           0        1.415304   -0.422340   -1.678662
     26          1           0        2.712906   -2.515019   -1.768866
     27          1           0       -0.108146    2.650916   -0.370898
     28          1           0       -0.008555   -0.343101    0.306090
     29          1           0       -2.015178   -1.510332    0.526906
     30          1           0       -5.814165    0.323789   -0.276745
     31          1           0       -4.674515    2.442037   -0.803247
     32          1           0       -2.222085    2.631074   -0.680615
     33          1           0       -6.406405   -1.443218    1.126505
     34          1           0       -6.288022   -1.937021   -0.589400
     35          1           0       -6.095753   -3.151063    0.706322
 ---------------------------------------------------------------------

 SCF Done:  E(UB3LYP) =  -1131.17665962     A.U. after   25 cycles

 The electronic state is 2-A.
 Alpha  occ. eigenvalues --  -88.63993 -19.06363 -10.14738 -10.12901 -10.07789
 Alpha  occ. eigenvalues --  -10.07129 -10.07121 -10.06708 -10.06397 -10.06075
 Alpha  occ. eigenvalues --  -10.05968 -10.05786 -10.05563 -10.05455 -10.05432
 Alpha  occ. eigenvalues --  -10.05375 -10.05151 -10.03401 -10.03078  -7.72768
 Alpha  occ. eigenvalues --   -5.69036  -5.68918  -5.68265  -0.97998  -0.74974
 Alpha  occ. eigenvalues --   -0.74746  -0.69329  -0.66796  -0.66102  -0.63839
 Alpha  occ. eigenvalues --   -0.63272  -0.60407  -0.59182  -0.56797  -0.51038
 Alpha  occ. eigenvalues --   -0.50126  -0.49125  -0.47910  -0.45910  -0.42220
 Alpha  occ. eigenvalues --   -0.41325  -0.39098  -0.38893  -0.38406  -0.36209
 Alpha  occ. eigenvalues --   -0.35528  -0.34266  -0.33913  -0.32926  -0.32393
 Alpha  occ. eigenvalues --   -0.31074  -0.30748  -0.29550  -0.29077  -0.28580
 Alpha  occ. eigenvalues --   -0.27554  -0.26098  -0.25005  -0.24791  -0.23776
 Alpha  occ. eigenvalues --   -0.23546  -0.22970  -0.21540  -0.19961  -0.19514
 Alpha  occ. eigenvalues --   -0.16536  -0.14270  -0.12857  -0.12072  -0.09367
 Alpha  occ. eigenvalues --   -0.05822   0.00047
 Alpha virt. eigenvalues --    0.05670   0.06878   0.07892   0.08189   0.09046
 Alpha virt. eigenvalues --    0.09298   0.09473   0.09697   0.09786   0.10035
 Alpha virt. eigenvalues --    0.10364   0.10891   0.11588   0.12218   0.12639

  Beta  occ. eigenvalues --  -88.63817 -19.06367 -10.14737 -10.12944 -10.07796
  Beta  occ. eigenvalues --  -10.07175 -10.07036 -10.06734 -10.06262 -10.06099
  Beta  occ. eigenvalues --  -10.06000 -10.05829 -10.05395 -10.05342 -10.05246
  Beta  occ. eigenvalues --  -10.05130 -10.05081 -10.03445 -10.02758  -7.72609
  Beta  occ. eigenvalues --   -5.68953  -5.68363  -5.68159  -0.98008  -0.74825
  Beta  occ. eigenvalues --   -0.74630  -0.68902  -0.66615  -0.65974  -0.63495
  Beta  occ. eigenvalues --   -0.63203  -0.60293  -0.58936  -0.56442  -0.50737
  Beta  occ. eigenvalues --   -0.50051  -0.49046  -0.47672  -0.45675  -0.41858
  Beta  occ. eigenvalues --   -0.41098  -0.39046  -0.38893  -0.38309  -0.36098
  Beta  occ. eigenvalues --   -0.35365  -0.34182  -0.33790  -0.32839  -0.32327
  Beta  occ. eigenvalues --   -0.30892  -0.30722  -0.29470  -0.28944  -0.28364
  Beta  occ. eigenvalues --   -0.27477  -0.25907  -0.24915  -0.24579  -0.23627
  Beta  occ. eigenvalues --   -0.23228  -0.22888  -0.21317  -0.19357  -0.18479
  Beta  occ. eigenvalues --   -0.15377  -0.14105  -0.12409  -0.11527  -0.07517
  Beta  occ. eigenvalues --   -0.05311
  Beta virt. eigenvalues --    0.05664   0.05707   0.06871   0.07889   0.08714
  Beta virt. eigenvalues --    0.09041   0.09311   0.09583   0.09778   0.09850
  Beta virt. eigenvalues --    0.10156   0.10602   0.10969   0.11589   0.12223

 Mulliken charges and spin densities:
               1          2
     1  C   -0.585425  -0.006735
     2  C    0.602951   0.051790
     3  C   -0.313646  -0.029784
     4  C   -0.165684   0.047634
     5  C    2.533543  -0.011269
     6  C   -0.967455  -0.004847
     7  C   -0.640710  -0.010837
     8  C   -1.224799   0.370558
     9  S   -1.019201   0.377291
    10  C   -0.402192  -0.188366
    11  C    0.137524   0.235334
    12  C    1.559876  -0.032136
    13  C   -0.458714   0.116078
    14  C   -0.181738  -0.028617
    15  C    0.318543   0.107658
    16  C   -0.575393  -0.030670
    17  C   -1.157432   0.060610
    18  O   -0.156735   0.000336
    19  C   -0.310693   0.001142
    20  H    0.128946   0.002229
    21  H    0.143957   0.004252
    22  H    0.130604   0.000825
    23  H    0.137864   0.001052
    24  H    0.130269  -0.002351
    25  H    0.153178  -0.002953
    26  H    0.121873   0.000423
    27  H    0.070290   0.007150
    28  H    0.049770  -0.018770
    29  H    0.171497  -0.004944
    30  H    0.125443  -0.008000
    31  H    0.156151   0.002346
    32  H    0.054056  -0.005677
    33  H    0.139341  -0.000433
    34  H    0.138498  -0.000323
    35  H    0.155642   0.000001
 Sum of Mulliken charges =  -1.00000   1.00000

 Dipole moment (field-independent basis, Debye):
    X=             -6.0967    Y=             -7.7857    Z=             -0.5737  Tot=              9.9054
 Quadrupole moment (field-independent basis, Debye-Ang):
   XX=           -158.5289   YY=           -156.2622   ZZ=           -130.1802
   XY=            -17.2719   XZ=              1.2457   YZ=             -1.9853

 Summary of Natural Population Analysis:

                                       Natural Population
                Natural  -----------------------------------------------
    Atom  No    Charge         Core      Valence    Rydberg      Total
 -----------------------------------------------------------------------
      C    1   -0.29120      0.99964     2.28703    0.00452     3.29120
      C    2   -0.01050      0.99952     2.00309    0.00789     3.01050
      C    3   -0.11671      0.99952     2.10893    0.00826     3.11671
      C    4   -0.06620      0.99952     2.05784    0.00883     3.06620
      C    5   -0.04456      0.99946     2.03310    0.01200     3.04456
      C    6   -0.07833      0.99953     2.07059    0.00821     3.07833
      C    7   -0.11617      0.99952     2.10818    0.00847     3.11617
      C    8   -0.00257      0.99953     1.98831    0.01473     3.00257
      S    9    0.01408      4.99949     2.97169    0.01474     7.98592
      C   10   -0.11612      0.99951     2.10615    0.01046     3.11612
      C   11   -0.02120      0.99944     2.01372    0.00804     3.02120
      C   12   -0.03276      0.99954     2.02392    0.00930     3.03276
      C   13   -0.08532      0.99950     2.07742    0.00841     3.08532
      C   14    0.14711      0.99938     1.84183    0.01168     2.85289
      C   15   -0.13344      0.99953     2.12559    0.00832     3.13344
      C   16   -0.11114      0.99961     2.10200    0.00953     3.11114
      C   17   -0.08065      0.99944     2.07299    0.00821     3.08065
      O   18   -0.27646      0.99985     3.26707    0.00953     4.27646
      C   19   -0.10047      0.99961     2.09263    0.00822     3.10047
      H   20    0.09890      0.00000     0.40013    0.00097     0.40110
      H   21    0.09960      0.00000     0.39940    0.00100     0.40040
      H   22    0.09747      0.00000     0.40166    0.00087     0.40253
      H   23    0.09216      0.00000     0.40651    0.00133     0.40784
      H   24    0.10845      0.00000     0.38991    0.00164     0.39155
      H   25    0.10432      0.00000     0.39423    0.00145     0.39568
      H   26    0.09250      0.00000     0.40615    0.00135     0.40750
      H   27    0.09730      0.00000     0.40069    0.00202     0.40270
      H   28    0.09204      0.00000     0.40620    0.00176     0.40796
      H   29    0.10061      0.00000     0.39795    0.00144     0.39939
      H   30    0.09504      0.00000     0.40386    0.00110     0.40496
      H   31    0.09382      0.00000     0.40513    0.00105     0.40618
      H   32    0.09915      0.00000     0.39930    0.00154     0.40085
      H   33    0.08129      0.00000     0.41714    0.00157     0.41871
      H   34    0.08107      0.00000     0.41736    0.00157     0.41893
      H   35    0.08889      0.00000     0.41033    0.00078     0.41111
 =======================================================================
   * Total *    0.00001     22.99115    47.80803    0.20081    70.99999

 Normal termination of Gaussian 16 at Mon Dec 14 14:34:36 2020.
