 Gaussian 16, Revision A.03,

 -----------------------------------------------------------
 # opt freq B3LYP/6-31G(d) empiricaldispersion=gd3bj scf=xqc
 -----------------------------------------------------------

 ------------------------------
 CID_83128435_JID_2238_neutraal
 ------------------------------
 Symbolic Z-matrix:
 Charge =  0 Multiplicity = 1

 SCF Done:  E(RB3LYP) =  -564.533495568     A.U. after   18 cycles
 SCF Done:  E(RB3LYP) =  -564.537194617     A.U. after   15 cycles
 SCF Done:  E(RB3LYP) =  -564.538312251     A.U. after   14 cycles
 SCF Done:  E(RB3LYP) =  -564.539051431     A.U. after   13 cycles
 SCF Done:  E(RB3LYP) =  -564.540446620     A.U. after   16 cycles
 SCF Done:  E(RB3LYP) =  -564.498406375     A.U. after   15 cycles
 SCF Done:  E(RB3LYP) =  -564.532047307     A.U. after   15 cycles
 SCF Done:  E(RB3LYP) =  -564.540514128     A.U. after   11 cycles
 SCF Done:  E(RB3LYP) =  -564.545099575     A.U. after   17 cycles
 SCF Done:  E(RB3LYP) =  -564.546637196     A.U. after   17 cycles
 SCF Done:  E(RB3LYP) =  -564.546336119     A.U. after   14 cycles
 SCF Done:  E(RB3LYP) =  -564.546818428     A.U. after   11 cycles
 SCF Done:  E(RB3LYP) =  -564.546839833     A.U. after   13 cycles
 SCF Done:  E(RB3LYP) =  -564.546823581     A.U. after   11 cycles
 SCF Done:  E(RB3LYP) =  -564.546853550     A.U. after   11 cycles
 Optimization completed.
    -- Stationary point found.
 Normal termination of Gaussian 16 at Wed Dec  9 16:55:31 2020.

 --------------------------------------------------------------------
 #N Geom=AllCheck Guess=TCheck SCRF=Check GenChk RB3LYP/6-31G(d) Freq
 --------------------------------------------------------------------

 Structure from the checkpoint file:  "JID_2238.chk"
 ------------------------------
 CID_83128435_JID_2238_neutraal
 ------------------------------
 Charge =  0 Multiplicity = 1

 SCF Done:  E(RB3LYP) =  -564.546853550     A.U. after    1 cycles

  Exact polarizability: 178.472  12.613  99.411   0.003   0.007  42.231
 Approx polarizability: 288.975  54.832 197.829   0.004   0.026  64.941

                      1                      2                      3
                      A                      A                      A
 Frequencies --     41.2073                59.2104               112.3589
 Red. masses --      6.7762                 4.6675                 8.2377
 Frc consts  --      0.0068                 0.0096                 0.0613
 IR Inten    --      2.3868                 0.4488                 1.8777

                      4                      5                      6
                      A                      A                      A
 Frequencies --    117.5197               183.3065               206.5133
 Red. masses --      9.5835                 1.0330                 6.3178
 Frc consts  --      0.0780                 0.0204                 0.1588
 IR Inten    --      0.0601                 0.1970                 1.1667

                      7                      8                      9
                      A                      A                      A
 Frequencies --    296.4825               321.1229               393.0789
 Red. masses --      5.8010                 5.2432                 8.9907
 Frc consts  --      0.3004                 0.3186                 0.8185
 IR Inten    --      0.3436                 1.6520                 3.2985

                     10                     11                     12
                      A                      A                      A
 Frequencies --    421.7422               453.9193               496.2568
 Red. masses --      3.3579                 3.7672                 4.0635
 Frc consts  --      0.3519                 0.4573                 0.5896
 IR Inten    --      2.7241                 1.3238                 1.6309

                     13                     14                     15
                      A                      A                      A
 Frequencies --    541.0547               543.7066               595.7323
 Red. masses --     13.6531                 7.7130                 2.3420
 Frc consts  --      2.3549                 1.3434                 0.4897
 IR Inten    --      8.0058                19.1725                 6.1833

                     16                     17                     18
                      A                      A                      A
 Frequencies --    638.8963               646.5167               741.9423
 Red. masses --      4.7182                 8.4364                 7.3029
 Frc consts  --      1.1347                 2.0776                 2.3686
 IR Inten    --     11.9013                 3.5007                20.1226

                     19                     20                     21
                      A                      A                      A
 Frequencies --    770.2002               851.9993               854.5696
 Red. masses --      4.7835                 1.4333                 8.3357
 Frc consts  --      1.6719                 0.6130                 3.5866
 IR Inten    --      0.8811                27.7259                 1.9944

                     22                     23                     24
                      A                      A                      A
 Frequencies --    952.3249               973.7539               973.9228
 Red. masses --      1.4035                 2.0872                 1.3272
 Frc consts  --      0.7500                 1.1660                 0.7417
 IR Inten    --      4.5187                39.9993                 0.6564

                     25                     26                     27
                      A                      A                      A
 Frequencies --   1037.1523              1053.4427              1122.1085
 Red. masses --      3.3990                 1.8560                 2.9649
 Frc consts  --      2.1542                 1.2135                 2.1995
 IR Inten    --      8.9998                 1.1704                 9.6827

                     28                     29                     30
                      A                      A                      A
 Frequencies --   1175.8916              1191.6155              1275.3611
 Red. masses --      1.8994                 2.0378                 3.2943
 Frc consts  --      1.5474                 1.7048                 3.1570
 IR Inten    --     70.2808                15.0552               226.7183

                     31                     32                     33
                      A                      A                      A
 Frequencies --   1314.2629              1340.6061              1381.7358
 Red. masses --      4.6296                 1.8175                 5.1075
 Frc consts  --      4.7115                 1.9245                 5.7453
 IR Inten    --     50.2978                 6.0559               171.4988

                     34                     35                     36
                      A                      A                      A
 Frequencies --   1410.1249              1445.5907              1501.0381
 Red. masses --      1.3089                 3.4795                 1.0583
 Frc consts  --      1.5335                 4.2841                 1.4049
 IR Inten    --     39.3647                76.4797                10.2470

                     37                     38                     39
                      A                      A                      A
 Frequencies --   1509.3410              1521.6030              1612.7123
 Red. masses --      1.0481                 2.8389                 5.6797
 Frc consts  --      1.4068                 3.8726                 8.7034
 IR Inten    --     10.3705                24.9307                14.2436

                     40                     41                     42
                      A                      A                      A
 Frequencies --   1638.6832              1805.5925              2270.4010
 Red. masses --      5.8359                11.2508                13.9814
 Frc consts  --      9.2331                21.6108                42.4626
 IR Inten    --     87.8298               173.1492               805.1274

                     43                     44                     45
                      A                      A                      A
 Frequencies --   3051.8544              3111.1874              3172.8647
 Red. masses --      1.0387                 1.1001                 1.1006
 Frc consts  --      5.7001                 6.2739                 6.5281
 IR Inten    --      3.6653                10.7029                11.4441

                     46                     47                     48
                      A                      A                      A
 Frequencies --   3185.9883              3199.0221              3229.3679
 Red. masses --      1.0913                 1.0900                 1.0926
 Frc consts  --      6.5263                 6.5724                 6.7137
 IR Inten    --     14.6337                 5.3047                 5.1478

 - Thermochemistry -
 -------------------
 Temperature   298.150 Kelvin.  Pressure   1.00000 Atm.
 Atom     1 has atomic number  6 and mass  12.00000

 Molecular mass:   162.05416 amu.
 Principal axes and moments of inertia in atomic units:
                           1         2         3
     Eigenvalues --   572.452683986.652364547.85095
           X            0.99978  -0.02088   0.00001
           Y            0.02088   0.99978  -0.00001
           Z           -0.00001   0.00001   1.00000
 This molecule is an asymmetric top.
 Rotational symmetry number  1.
 Warning -- assumption of classical behavior for rotation
           may cause significant error
 Rotational temperatures (Kelvin)      0.15130     0.02173     0.01905
 Rotational constants (GHZ):           3.15265     0.45270     0.39683
 Zero-point vibrational energy     339409.8 (Joules/Mol)
                                   81.12089 (Kcal/Mol)
 Warning -- explicit consideration of  15 degrees of freedom as
           vibrations may cause significant error
 Vibrational temperatures:     59.29    85.19   161.66   169.08   263.74
          (Kelvin)            297.13   426.57   462.02   565.55   606.79
                              653.09   714.00   778.46   782.27   857.13
                              919.23   930.19  1067.49  1108.15  1225.84
                             1229.53  1370.18  1401.01  1401.26  1492.23
                             1515.67  1614.46  1691.85  1714.47  1834.96
                             1890.93  1928.83  1988.01  2028.86  2079.88
                             2159.66  2171.61  2189.25  2320.33  2357.70
                             2597.84  3266.60  4390.94  4476.30  4565.04
                             4583.93  4602.68  4646.34

 Zero-point correction=                           0.129274 (Hartree/Particle)
 Thermal correction to Energy=                    0.139700
 Thermal correction to Enthalpy=                  0.140644
 Thermal correction to Gibbs Free Energy=         0.092020
 Sum of electronic and zero-point Energies=           -564.417579
 Sum of electronic and thermal Energies=              -564.407154
 Sum of electronic and thermal Enthalpies=            -564.406209
 Sum of electronic and thermal Free Energies=         -564.454833

                     E (Thermal)             CV                S
                      KCal/Mol        Cal/Mol-Kelvin    Cal/Mol-Kelvin
 Total                   87.663             37.818            102.338
 Electronic               0.000              0.000              0.000
 Translational            0.889              2.981             41.157
 Rotational               0.889              2.981             30.718
 Vibrational             85.886             31.857             30.462
 Vibration     1          0.594              1.981              5.200
 Vibration     2          0.597              1.974              4.483
 Vibration     3          0.607              1.939              3.228
 Vibration     4          0.608              1.935              3.141
 Vibration     5          0.631              1.863              2.294
 Vibration     6          0.641              1.831              2.074
 Vibration     7          0.690              1.680              1.437
 Vibration     8          0.707              1.633              1.304
 Vibration     9          0.760              1.485              0.988
 Vibration    10          0.784              1.423              0.886
 Vibration    11          0.812              1.352              0.784
 Vibration    12          0.852              1.258              0.668
 Vibration    13          0.896              1.159              0.563
 Vibration    14          0.899              1.153              0.557
 Vibration    15          0.954              1.041              0.457

                           ! Non-Optimized Parameters !
 Normal termination of Gaussian 16 at Wed Dec  9 16:59:00 2020.

 ----------------------------------------------------------------------
 # B3LYP/6-311++G(d,p) empiricaldispersion=gd3bj scf=xqc pop=npa geom=c
 heck
 ----------------------------------------------------------------------

 --------------------------------------
 CID_83128435_JID_2238_Energie_neutraal
 --------------------------------------
 Structure from the checkpoint file:  "JID_2238.chk"
 Charge =  0 Multiplicity = 1

 SCF Done:  E(RB3LYP) =  -564.698989225     A.U. after   18 cycles
 Normal termination of Gaussian 16 at Wed Dec  9 17:01:34 2020.

 ----------------------------------------------------------------------
 # B3LYP/6-311++G(d,p) empiricaldispersion=gd3bj scf=xqc pop=npa geom=c
 heck
 ----------------------------------------------------------------------

 ------------------------------------
 CID_83128435_JID_2238_Energie_kation
 ------------------------------------
 Structure from the checkpoint file:  "JID_2238.chk"
 Charge =  1 Multiplicity = 2

 SCF Done:  E(UB3LYP) =  -564.371112202     A.U. after   33 cycles
 SCF Done:  E(UB3LYP) =  -564.371396094     a.u. after    4 cycles
 Normal termination of Gaussian 16 at Wed Dec  9 17:16:37 2020.
 Gaussian 16:  ES64L-G16RevA.03 25-Dec-2016

 ----------------------------------------------------------------------
 # B3LYP/6-311++G(d,p) empiricaldispersion=gd3bj scf=xqc pop=npa geom=c
 heck
 ----------------------------------------------------------------------

 -----------------------------------
 CID_83128435_JID_2238_Energie_anion
 -----------------------------------
 Structure from the checkpoint file:  "JID_2238.chk"
 Charge = -1 Multiplicity = 2

                         Standard orientation:
 ---------------------------------------------------------------------
 Center     Atomic      Atomic             Coordinates (Angstroms)
 Number     Number       Type             X           Y           Z
 ---------------------------------------------------------------------
      1          6           0       -3.449958    1.406681   -0.000767
      2          6           0       -2.835313    0.015695    0.000190
      3          8           0       -3.531845   -0.979889    0.001156
      4          6           0       -1.329113   -0.091524   -0.000021
      5          7           0       -0.824939   -1.339877   -0.000297
      6          6           0        0.489567   -1.493737   -0.000486
      7          6           0        1.394477   -0.416326   -0.000328
      8          6           0        0.879150    0.881307    0.000072
      9          6           0       -0.502940    1.039800    0.000283
     10          7           0        2.765359   -0.748235   -0.000433
     11          7           0        3.583147    0.183706    0.000086
     12          7           0        4.434320    0.941041    0.000612
     13          1           0       -4.536040    1.304898    0.000248
     14          1           0       -3.140951    1.975691   -0.885807
     15          1           0       -3.139679    1.977763    0.882498
     16          1           0        0.878795   -2.509856   -0.000597
     17          1           0        1.538047    1.744996    0.000419
     18          1           0       -0.925842    2.037799    0.000560
 ---------------------------------------------------------------------

 SCF Done:  E(UB3LYP) =  -564.730033401     A.U. after   25 cycles

 The electronic state is 2-A.
 Alpha  occ. eigenvalues --  -18.93487 -14.34485 -14.25092 -14.24227 -14.15114
 Alpha  occ. eigenvalues --  -10.08445 -10.07405 -10.06362 -10.04537 -10.04479
 Alpha  occ. eigenvalues --  -10.04334 -10.04085  -1.01596  -0.87658  -0.86157
 Alpha  occ. eigenvalues --   -0.79347  -0.66988  -0.64258  -0.60194  -0.53602
 Alpha  occ. eigenvalues --   -0.49521  -0.43769  -0.41794  -0.39167  -0.38697
 Alpha  occ. eigenvalues --   -0.35136  -0.33419  -0.32726  -0.31368  -0.30881
 Alpha  occ. eigenvalues --   -0.28482  -0.27678  -0.26771  -0.25676  -0.24247
 Alpha  occ. eigenvalues --   -0.22024  -0.18783  -0.18670  -0.14973  -0.10935
 Alpha  occ. eigenvalues --   -0.09942  -0.09288   0.03061
 Alpha virt. eigenvalues --    0.08444   0.08684   0.10389   0.10456   0.11566
 Alpha virt. eigenvalues --    0.11792   0.12442   0.12781   0.14586   0.15262
 Alpha virt. eigenvalues --    0.16014   0.16506   0.17730   0.18802   0.19179

  Beta  occ. eigenvalues --  -18.93060 -14.34206 -14.24722 -14.24414 -14.14814
  Beta  occ. eigenvalues --  -10.08268 -10.07070 -10.06463 -10.04521 -10.04415
  Beta  occ. eigenvalues --  -10.04104 -10.04102  -1.01111  -0.86906  -0.85979
  Beta  occ. eigenvalues --   -0.78863  -0.66485  -0.63831  -0.59995  -0.53093
  Beta  occ. eigenvalues --   -0.49467  -0.43416  -0.41431  -0.38470  -0.37865
  Beta  occ. eigenvalues --   -0.34792  -0.33047  -0.32217  -0.31217  -0.30328
  Beta  occ. eigenvalues --   -0.28357  -0.27511  -0.25713  -0.25439  -0.23976
  Beta  occ. eigenvalues --   -0.20311  -0.18808  -0.17229  -0.14086  -0.10545
  Beta  occ. eigenvalues --   -0.08865  -0.08541
  Beta virt. eigenvalues --    0.08637   0.08782   0.09055   0.10360   0.10896
  Beta virt. eigenvalues --    0.11575   0.12406   0.12423   0.14312   0.14574
  Beta virt. eigenvalues --    0.15251   0.16477   0.16508   0.17723   0.18790

 Mulliken charges and spin densities:
               1          2
     1  C   -0.323571  -0.010806
     2  C   -0.319754   0.103782
     3  O   -0.364094   0.154232
     4  C    0.128468   0.138924
     5  N   -0.032692   0.143187
     6  C    0.159995  -0.060288
     7  C   -0.856523   0.207187
     8  C    0.092393   0.106574
     9  C   -0.267625   0.002684
    10  N    0.035041  -0.097288
    11  N    0.166551   0.081425
    12  N   -0.278374   0.212824
    13  H    0.159701  -0.001297
    14  H    0.108788   0.009428
    15  H    0.108638   0.009424
    16  H    0.187659   0.004328
    17  H    0.148502  -0.007547
    18  H    0.146896   0.003227
 Sum of Mulliken charges =  -1.00000   1.00000

 Dipole moment (field-independent basis, Debye):
    X=              1.8552    Y=              3.5248    Z=             -0.0022  Tot=              3.9832
 Quadrupole moment (field-independent basis, Debye-Ang):
   XX=           -127.9002   YY=            -81.8095   ZZ=            -74.4143
   XY=            -15.5076   XZ=              0.0062   YZ=              0.0022

 Summary of Natural Population Analysis:

                                       Natural Population
                Natural  -----------------------------------------------
    Atom  No    Charge         Core      Valence    Rydberg      Total
 -----------------------------------------------------------------------
      C    1   -0.33387      0.99964     2.32995    0.00428     3.33387
      C    2    0.28048      0.99967     1.69800    0.02185     2.71952
      O    3   -0.24465      0.99987     3.23628    0.00849     4.24465
      C    4    0.08021      0.99950     1.90646    0.01382     2.91979
      N    5   -0.16635      0.99968     2.65557    0.01109     3.66635
      C    6   -0.00061      0.99956     1.98677    0.01428     3.00061
      C    7    0.09491      0.99943     1.89474    0.01092     2.90509
      C    8   -0.10590      0.99954     2.09782    0.00854     3.10590
      C    9   -0.10955      0.99955     2.10202    0.00798     3.10955
      N   10   -0.20714      0.99966     2.69362    0.01386     3.70714
      N   11    0.14324      0.99971     2.34070    0.01634     3.35676
      N   12   -0.00780      0.99982     2.49459    0.01339     3.50780
      H   13    0.10183      0.00000     0.39627    0.00190     0.39817
      H   14    0.10000      0.00000     0.39876    0.00124     0.40000
      H   15    0.09998      0.00000     0.39878    0.00124     0.40002
      H   16    0.08449      0.00000     0.41412    0.00139     0.41551
      H   17    0.09515      0.00000     0.40297    0.00187     0.40485
      H   18    0.09555      0.00000     0.40324    0.00120     0.40445
 =======================================================================
   * Total *   -0.00000     11.99562    29.85069    0.15369    42.00000

 Normal termination of Gaussian 16 at Wed Dec  9 17:20:43 2020.
