 Gaussian 16, Revision A.03,

 -----------------------------------------------------------
 # opt freq B3LYP/6-31G(d) empiricaldispersion=gd3bj scf=xqc
 -----------------------------------------------------------

 -------------------------------
 CID_150473626_JID_2823_neutraal
 -------------------------------
 Symbolic Z-matrix:
 Charge =  0 Multiplicity = 1

 SCF Done:  E(RB3LYP) =  -585.559882075     A.U. after   16 cycles
 SCF Done:  E(RB3LYP) =  -585.565423851     A.U. after   16 cycles
 SCF Done:  E(RB3LYP) =  -585.566304135     A.U. after   15 cycles
 SCF Done:  E(RB3LYP) =  -585.567157502     A.U. after   13 cycles
 SCF Done:  E(RB3LYP) =  -585.566989341     A.U. after   14 cycles
 SCF Done:  E(RB3LYP) =  -585.567591031     A.U. after   13 cycles
 SCF Done:  E(RB3LYP) =  -585.567633375     A.U. after   12 cycles
 SCF Done:  E(RB3LYP) =  -585.567648304     A.U. after   10 cycles
 SCF Done:  E(RB3LYP) =  -585.567652390     A.U. after   10 cycles
 SCF Done:  E(RB3LYP) =  -585.567653790     A.U. after    9 cycles
 SCF Done:  E(RB3LYP) =  -585.567654535     A.U. after    9 cycles
 SCF Done:  E(RB3LYP) =  -585.567654688     A.U. after    8 cycles
 SCF Done:  E(RB3LYP) =  -585.567654722     A.U. after    8 cycles
 Optimization completed.
    -- Stationary point found.
 Normal termination of Gaussian 16 at Wed Dec  9 17:58:55 2020.

 --------------------------------------------------------------------
 #N Geom=AllCheck Guess=TCheck SCRF=Check GenChk RB3LYP/6-31G(d) Freq
 --------------------------------------------------------------------

 Structure from the checkpoint file:  "JID_2823.chk"
 -------------------------------
 CID_150473626_JID_2823_neutraal
 -------------------------------
 Charge =  0 Multiplicity = 1

 SCF Done:  E(RB3LYP) =  -585.567654722     A.U. after    1 cycles

  Exact polarizability: 174.588 -24.858 101.326  10.793   3.818  65.059
 Approx polarizability: 323.449 -63.964 139.629  28.917   4.824 115.770

                      1                      2                      3
                      A                      A                      A
 Frequencies --     31.5258                38.5333                70.2439
 Red. masses --      5.4420                 7.4271                 6.9090
 Frc consts  --      0.0032                 0.0065                 0.0201
 IR Inten    --      1.7572                 0.0480                 0.2880

                      4                      5                      6
                      A                      A                      A
 Frequencies --    109.1341               132.2657               142.7531
 Red. masses --      5.0343                 2.6570                 4.5644
 Frc consts  --      0.0353                 0.0274                 0.0548
 IR Inten    --      0.9455                 1.4925                 0.0932

                      7                      8                      9
                      A                      A                      A
 Frequencies --    156.7546               212.9713               285.8799
 Red. masses --      3.1732                 5.8473                 2.9805
 Frc consts  --      0.0459                 0.1563                 0.1435
 IR Inten    --      4.6828                 1.1981                 0.2588

                     10                     11                     12
                      A                      A                      A
 Frequencies --    296.5610               307.3455               435.0105
 Red. masses --      5.2934                 4.0924                 4.7772
 Frc consts  --      0.2743                 0.2278                 0.5326
 IR Inten    --      0.3890                 5.3467                 3.7089

                     13                     14                     15
                      A                      A                      A
 Frequencies --    485.4821               496.1952               518.9514
 Red. masses --      2.8931                 1.8778                10.3873
 Frc consts  --      0.4018                 0.2724                 1.6482
 IR Inten    --      9.6334                 1.8832                 4.1032

                     16                     17                     18
                      A                      A                      A
 Frequencies --    537.1457               603.3477               625.7249
 Red. masses --      3.5737                 4.2210                 4.4459
 Frc consts  --      0.6075                 0.9053                 1.0256
 IR Inten    --      1.1377                20.1643                 1.4826

                     19                     20                     21
                      A                      A                      A
 Frequencies --    681.7812               728.4541               808.4583
 Red. masses --      3.2020                 2.5285                 3.7876
 Frc consts  --      0.8769                 0.7905                 1.4586
 IR Inten    --     14.9839                 7.3829                14.1792

                     22                     23                     24
                      A                      A                      A
 Frequencies --    841.3534               890.6435               926.3614
 Red. masses --      1.4977                 6.5764                 1.3794
 Frc consts  --      0.6246                 3.0736                 0.6974
 IR Inten    --     21.8191                14.1499                31.9265

                     25                     26                     27
                      A                      A                      A
 Frequencies --    937.1329               994.8458              1019.3864
 Red. masses --      3.0809                 1.3691                 1.1025
 Frc consts  --      1.5941                 0.7983                 0.6750
 IR Inten    --      6.3317                21.1457                11.3134

                     28                     29                     30
                      A                      A                      A
 Frequencies --   1031.0775              1033.4246              1072.0938
 Red. masses --      1.5810                 1.0845                 5.1688
 Frc consts  --      0.9903                 0.6824                 3.5003
 IR Inten    --     36.8242                22.2584                 4.2187

                     31                     32                     33
                      A                      A                      A
 Frequencies --   1076.1861              1242.7795              1270.9814
 Red. masses --      2.1841                 2.2139                 2.7105
 Frc consts  --      1.4904                 2.0146                 2.5797
 IR Inten    --    167.2699               214.7234               292.5468

                     34                     35                     36
                      A                      A                      A
 Frequencies --   1323.5421              1336.4649              1373.6076
 Red. masses --      1.3156                 1.5364                 4.9129
 Frc consts  --      1.3579                 1.6168                 5.4616
 IR Inten    --      2.6477                14.0329                88.0085

                     37                     38                     39
                      A                      A                      A
 Frequencies --   1389.6667              1459.3174              1472.8026
 Red. masses --      2.0466                 1.2424                 1.3364
 Frc consts  --      2.3287                 1.5589                 1.7080
 IR Inten    --    111.1833                24.1211                18.0777

                     40                     41                     42
                      A                      A                      A
 Frequencies --   1685.9563              1707.1986              1724.3045
 Red. masses --      4.7769                 4.4758                 5.9794
 Frc consts  --      8.0000                 7.6858                10.4745
 IR Inten    --     11.4895                 9.6965                68.6558

                     43                     44                     45
                      A                      A                      A
 Frequencies --   1838.0558              2271.2943              3174.9440
 Red. masses --     11.7545                13.7862                 1.0796
 Frc consts  --     23.3977                41.9026                 6.4121
 IR Inten    --    212.9000              1184.2502                 6.9414

                     46                     47                     48
                      A                      A                      A
 Frequencies --   3181.4392              3187.8098              3199.1568
 Red. masses --      1.0591                 1.0689                 1.0919
 Frc consts  --      6.3160                 6.3996                 6.5840
 IR Inten    --      4.7839                 2.4113                16.2646

                     49                     50                     51
                      A                      A                      A
 Frequencies --   3217.1893              3270.4661              3271.3711
 Red. masses --      1.0942                 1.1172                 1.1161
 Frc consts  --      6.6728                 7.0407                 7.0376
 IR Inten    --      3.3855                10.0081                 5.7906

 - Thermochemistry -
 -------------------
 Temperature   298.150 Kelvin.  Pressure   1.00000 Atm.
 Atom     1 has atomic number  6 and mass  12.00000

 Molecular mass:   165.05383 amu.
 Principal axes and moments of inertia in atomic units:
                           1         2         3
     Eigenvalues --  1519.471362753.574883733.35888
           X            0.99966   0.02380   0.01106
           Y           -0.02396   0.99962   0.01392
           Z           -0.01072  -0.01418   0.99984
 This molecule is an asymmetric top.
 Rotational symmetry number  1.
 Warning -- assumption of classical behavior for rotation
           may cause significant error
 Rotational temperatures (Kelvin)      0.05700     0.03146     0.02320
 Rotational constants (GHZ):           1.18774     0.65542     0.48341
 Zero-point vibrational energy     359629.6 (Joules/Mol)
                                   85.95354 (Kcal/Mol)
 Warning -- explicit consideration of  17 degrees of freedom as
           vibrations may cause significant error
 Vibrational temperatures:     45.36    55.44   101.07   157.02   190.30
          (Kelvin)            205.39   225.53   306.42   411.32   426.69
                              442.20   625.88   698.50   713.91   746.66
                              772.83   868.08   900.28   980.93  1048.08
                             1163.19  1210.52  1281.44  1332.83  1348.33
                             1431.36  1466.67  1483.49  1486.87  1542.50
                             1548.39  1788.08  1828.66  1904.28  1922.87
                             1976.31  1999.42  2099.63  2119.03  2425.72
                             2456.28  2480.89  2644.55  3267.89  4568.04
                             4577.38  4586.55  4602.87  4628.82  4705.47
                             4706.77

 Zero-point correction=                           0.136976 (Hartree/Particle)
 Thermal correction to Energy=                    0.149071
 Thermal correction to Enthalpy=                  0.150015
 Thermal correction to Gibbs Free Energy=         0.096932
 Sum of electronic and zero-point Energies=           -585.430679
 Sum of electronic and thermal Energies=              -585.418584
 Sum of electronic and thermal Enthalpies=            -585.417640
 Sum of electronic and thermal Free Energies=         -585.470722

                     E (Thermal)             CV                S
                      KCal/Mol        Cal/Mol-Kelvin    Cal/Mol-Kelvin
 Total                   93.543             42.198            111.722
 Electronic               0.000              0.000              0.000
 Translational            0.889              2.981             41.212
 Rotational               0.889              2.981             31.125
 Vibrational             91.766             36.236             39.386
 Vibration     1          0.594              1.983              5.731
 Vibration     2          0.594              1.981              5.333
 Vibration     3          0.598              1.968              4.147
 Vibration     4          0.606              1.942              3.284
 Vibration     5          0.612              1.921              2.913
 Vibration     6          0.616              1.910              2.767
 Vibration     7          0.620              1.895              2.589
 Vibration     8          0.644              1.821              2.018
 Vibration     9          0.684              1.700              1.498
 Vibration    10          0.690              1.680              1.436
 Vibration    11          0.697              1.660              1.377
 Vibration    12          0.796              1.394              0.842
 Vibration    13          0.842              1.282              0.695
 Vibration    14          0.852              1.258              0.668
 Vibration    15          0.874              1.208              0.612
 Vibration    16          0.892              1.168              0.571
 Vibration    17          0.962              1.025              0.444

                           ! Non-Optimized Parameters !
 Normal termination of Gaussian 16 at Wed Dec  9 18:02:57 2020.

 ----------------------------------------------------------------------
 # B3LYP/6-311++G(d,p) empiricaldispersion=gd3bj scf=xqc pop=npa geom=c
 heck
 ----------------------------------------------------------------------

 ---------------------------------------
 CID_150473626_JID_2823_Energie_neutraal
 ---------------------------------------
 Structure from the checkpoint file:  "JID_2823.chk"
 Charge =  0 Multiplicity = 1

 SCF Done:  E(RB3LYP) =  -585.736724376     A.U. after   16 cycles
 Normal termination of Gaussian 16 at Wed Dec  9 18:04:54 2020.

 ----------------------------------------------------------------------
 # B3LYP/6-311++G(d,p) empiricaldispersion=gd3bj scf=xqc pop=npa geom=c
 heck
 ----------------------------------------------------------------------

 -------------------------------------
 CID_150473626_JID_2823_Energie_kation
 -------------------------------------
 Structure from the checkpoint file:  "JID_2823.chk"
 Charge =  1 Multiplicity = 2

 SCF Done:  E(UB3LYP) =  -585.439950157     A.U. after   23 cycles
 Normal termination of Gaussian 16 at Wed Dec  9 18:08:06 2020.
 Gaussian 16:  ES64L-G16RevA.03 25-Dec-2016

 ----------------------------------------------------------------------
 # B3LYP/6-311++G(d,p) empiricaldispersion=gd3bj scf=xqc pop=npa geom=c
 heck
 ----------------------------------------------------------------------

 ------------------------------------
 CID_150473626_JID_2823_Energie_anion
 ------------------------------------
 Structure from the checkpoint file:  "JID_2823.chk"
 Charge = -1 Multiplicity = 2

                         Standard orientation:
 ---------------------------------------------------------------------
 Center     Atomic      Atomic             Coordinates (Angstroms)
 Number     Number       Type             X           Y           Z
 ---------------------------------------------------------------------
      1          6           0       -1.929656    2.639883   -0.068536
      2          6           0       -0.609237    2.413193   -0.030551
      3          6           0        0.002589    1.109298   -0.179917
      4          6           0        1.332590    0.897640   -0.134143
      5          7           0        1.860205   -0.386877   -0.296354
      6          7           0        3.085362   -0.523517   -0.174754
      7          7           0        4.190861   -0.795505   -0.095901
      8          8           0       -0.858315    0.048283   -0.432398
      9          6           0       -1.110193   -0.830961    0.598304
     10          8           0       -0.636277   -0.722395    1.702913
     11          6           0       -2.035564   -1.907542    0.185140
     12          6           0       -2.541400   -2.039324   -1.043448
     13          1           0       -2.638595    1.833470   -0.224698
     14          1           0       -2.330462    3.639943    0.056039
     15          1           0        0.083833    3.238289    0.120931
     16          1           0        2.013108    1.727927    0.031200
     17          1           0       -2.272052   -2.603490    0.984031
     18          1           0       -3.215309   -2.854920   -1.288597
     19          1           0       -2.293560   -1.340150   -1.835056
 ---------------------------------------------------------------------

 SCF Done:  E(UB3LYP) =  -585.750354611     A.U. after   31 cycles

 The electronic state is 2-A.
 Alpha  occ. eigenvalues --  -19.02057 -18.95337 -14.34348 -14.24927 -14.24212
 Alpha  occ. eigenvalues --  -10.14083 -10.08636 -10.07086 -10.04187 -10.03665
 Alpha  occ. eigenvalues --  -10.03144 -10.02248  -1.01297  -0.95884  -0.87518
 Alpha  occ. eigenvalues --   -0.85758  -0.68123  -0.64211  -0.62459  -0.53740
 Alpha  occ. eigenvalues --   -0.49899  -0.45576  -0.41857  -0.40493  -0.38740
 Alpha  occ. eigenvalues --   -0.36242  -0.35470  -0.34816  -0.32948  -0.32574
 Alpha  occ. eigenvalues --   -0.30093  -0.29444  -0.27795  -0.26093  -0.24235
 Alpha  occ. eigenvalues --   -0.22968  -0.20716  -0.18352  -0.16991  -0.16452
 Alpha  occ. eigenvalues --   -0.14782  -0.13185  -0.08022   0.04308
 Alpha virt. eigenvalues --    0.07389   0.08757   0.09238   0.09596   0.10632
 Alpha virt. eigenvalues --    0.12045   0.12526   0.13569   0.14012   0.14517
 Alpha virt. eigenvalues --    0.15378   0.16402   0.17309   0.17934   0.18589

  Beta  occ. eigenvalues --  -19.02062 -18.95140 -14.34086 -14.24664 -14.24359
  Beta  occ. eigenvalues --  -10.13910 -10.08531 -10.06862 -10.04149 -10.03613
  Beta  occ. eigenvalues --  -10.02848 -10.02047  -1.00886  -0.95723  -0.87233
  Beta  occ. eigenvalues --   -0.85636  -0.67757  -0.63779  -0.62085  -0.53280
  Beta  occ. eigenvalues --   -0.49399  -0.45216  -0.41603  -0.40344  -0.37661
  Beta  occ. eigenvalues --   -0.36046  -0.35263  -0.34479  -0.32577  -0.32137
  Beta  occ. eigenvalues --   -0.29923  -0.29087  -0.27322  -0.25642  -0.24034
  Beta  occ. eigenvalues --   -0.22787  -0.20003  -0.18386  -0.16474  -0.15682
  Beta  occ. eigenvalues --   -0.13384  -0.12967  -0.06823
  Beta virt. eigenvalues --    0.08842   0.09133   0.09331   0.09536   0.09851
  Beta virt. eigenvalues --    0.10617   0.12023   0.12479   0.13535   0.14471
  Beta virt. eigenvalues --    0.15028   0.15556   0.16388   0.17561   0.17970

 Mulliken charges and spin densities:
               1          2
     1  C   -0.587364   0.212109
     2  C    0.066459   0.004087
     3  C    0.350995   0.018041
     4  C   -0.598049   0.191820
     5  N   -0.019608  -0.054671
     6  N    0.398132   0.044876
     7  N   -0.428256   0.162468
     8  O   -0.004969  -0.008425
     9  C   -0.252620   0.130542
    10  O   -0.273464   0.065492
    11  C    0.195594  -0.024094
    12  C   -0.647755   0.308855
    13  H    0.101980  -0.008490
    14  H    0.109608  -0.008260
    15  H    0.097309   0.001809
    16  H    0.127448  -0.008239
    17  H    0.150197  -0.002892
    18  H    0.092997  -0.014134
    19  H    0.121366  -0.010894
 Sum of Mulliken charges =  -1.00000   1.00000

 Dipole moment (field-independent basis, Debye):
    X=              0.0758    Y=              1.2625    Z=             -1.1846  Tot=              1.7329
 Quadrupole moment (field-independent basis, Debye-Ang):
   XX=           -105.7792   YY=            -83.9332   ZZ=            -84.6602
   XY=              7.5499   XZ=             -0.2743   YZ=              1.2936

 Summary of Natural Population Analysis:

                                       Natural Population
                Natural  -----------------------------------------------
    Atom  No    Charge         Core      Valence    Rydberg      Total
 -----------------------------------------------------------------------
      C    1   -0.16114      0.99960     2.15278    0.00876     3.16114
      C    2   -0.11335      0.99953     2.10519    0.00863     3.11335
      C    3    0.14338      0.99935     1.84273    0.01454     2.85662
      C    4    0.00760      0.99942     1.98218    0.01080     2.99240
      N    5   -0.18785      0.99965     2.67264    0.01555     3.68785
      N    6    0.14215      0.99971     2.34267    0.01547     3.35785
      N    7   -0.03050      0.99982     2.51745    0.01323     3.53050
      O    8   -0.29164      0.99985     3.27971    0.01208     4.29164
      C    9    0.40937      0.99964     1.56742    0.02357     2.59063
      O   10   -0.28490      0.99987     3.27925    0.00578     4.28490
      C   11   -0.14694      0.99953     2.13738    0.01003     3.14694
      C   12   -0.10478      0.99960     2.09787    0.00731     3.10478
      H   13    0.09411      0.00000     0.40479    0.00110     0.40589
      H   14    0.08244      0.00000     0.41656    0.00099     0.41756
      H   15    0.08905      0.00000     0.40982    0.00113     0.41095
      H   16    0.08520      0.00000     0.41363    0.00117     0.41480
      H   17    0.09370      0.00000     0.40524    0.00105     0.40630
      H   18    0.07978      0.00000     0.41907    0.00115     0.42022
      H   19    0.09432      0.00000     0.40467    0.00101     0.40568
 =======================================================================
   * Total *    0.00000     11.99557    30.85109    0.15334    43.00000

 Normal termination of Gaussian 16 at Wed Dec  9 18:14:29 2020.
