 Gaussian 16, Revision A.03,

 ----------------------------------------------------------------------
 # opt=(cartesian,calcfc) freq B3LYP/6-31G(d) empiricaldispersion=gd3bj
  scf=xqc
 ----------------------------------------------------------------------

 -------------------------------
 CID_149692402_JID_6335_neutraal
 -------------------------------
 Symbolic Z-matrix:
 Charge =  0 Multiplicity = 1

 SCF Done:  E(RB3LYP) =  -746.476050972     A.U. after   16 cycles
 SCF Done:  E(RB3LYP) =  -746.479515848     A.U. after   13 cycles
 SCF Done:  E(RB3LYP) =  -746.479545772     A.U. after   12 cycles
 SCF Done:  E(RB3LYP) =  -746.479564316     A.U. after   11 cycles
 SCF Done:  E(RB3LYP) =  -746.479545127     A.U. after   12 cycles
 SCF Done:  E(RB3LYP) =  -746.479567761     A.U. after    9 cycles
 SCF Done:  E(RB3LYP) =  -746.479568332     A.U. after    8 cycles
 SCF Done:  E(RB3LYP) =  -746.479560149     A.U. after   10 cycles
 SCF Done:  E(RB3LYP) =  -746.479568368     A.U. after    8 cycles
 SCF Done:  E(RB3LYP) =  -746.479568349     A.U. after    8 cycles
 SCF Done:  E(RB3LYP) =  -746.479568395     A.U. after    7 cycles
 SCF Done:  E(RB3LYP) =  -746.479568383     A.U. after    6 cycles
 SCF Done:  E(RB3LYP) =  -746.479568410     A.U. after    7 cycles
 SCF Done:  E(RB3LYP) =  -746.479568421     A.U. after    7 cycles
 Optimization completed.
    -- Stationary point found.
 Normal termination of Gaussian 16 at Mon Jan  4 09:44:36 2021.

 --------------------------------------------------------------------
 #N Geom=AllCheck Guess=TCheck SCRF=Check GenChk RB3LYP/6-31G(d) Freq
 --------------------------------------------------------------------

 Structure from the checkpoint file:  "JID_6335.chk"
 -------------------------------
 CID_149692402_JID_6335_neutraal
 -------------------------------
 Charge =  0 Multiplicity = 1

 SCF Done:  E(RB3LYP) =  -746.479568421     A.U. after    1 cycles

  Exact polarizability: 183.618 -15.545 125.442  23.070 -13.514 140.478
 Approx polarizability: 230.281 -37.289 184.601  59.744 -42.555 242.569

                      1                      2                      3
                      A                      A                      A
 Frequencies --     25.6857                27.8586                32.3377
 Red. masses --      4.9701                 3.4026                 2.8045
 Frc consts  --      0.0019                 0.0016                 0.0017
 IR Inten    --      0.0360                 0.0080                 0.0158

                      4                      5                      6
                      A                      A                      A
 Frequencies --     42.8701                66.4485                75.9830
 Red. masses --      3.6480                 5.8078                 4.0953
 Frc consts  --      0.0040                 0.0151                 0.0139
 IR Inten    --      0.3840                 0.1229                 0.2792

                      7                      8                      9
                      A                      A                      A
 Frequencies --    111.8269               123.7387               141.8575
 Red. masses --      3.4402                 1.9609                 2.6781
 Frc consts  --      0.0253                 0.0177                 0.0318
 IR Inten    --      0.0266                 0.0219                 0.4931

                     10                     11                     12
                      A                      A                      A
 Frequencies --    142.7461               159.3629               175.5356
 Red. masses --      2.4488                 2.2230                 2.4668
 Frc consts  --      0.0294                 0.0333                 0.0448
 IR Inten    --      0.3116                 0.3293                 5.5243

                     13                     14                     15
                      A                      A                      A
 Frequencies --    193.4893               220.8629               223.6147
 Red. masses --      2.0077                 4.2248                 1.4670
 Frc consts  --      0.0443                 0.1214                 0.0432
 IR Inten    --      1.2914                 1.3178                 2.8218

                     16                     17                     18
                      A                      A                      A
 Frequencies --    247.5615               270.6851               287.4286
 Red. masses --      2.4107                 2.4847                 2.2666
 Frc consts  --      0.0870                 0.1073                 0.1103
 IR Inten    --      6.5654                 7.7940                 0.3623

                     19                     20                     21
                      A                      A                      A
 Frequencies --    316.6423               343.0237               355.9184
 Red. masses --      2.5834                 4.0407                 2.2133
 Frc consts  --      0.1526                 0.2801                 0.1652
 IR Inten    --      1.1202                 2.6795                 3.7468

                     22                     23                     24
                      A                      A                      A
 Frequencies --    366.9201               441.9316               475.1664
 Red. masses --      3.6392                 2.6635                 3.0352
 Frc consts  --      0.2887                 0.3065                 0.4038
 IR Inten    --      4.1295                 0.9294                 1.3321

                     25                     26                     27
                      A                      A                      A
 Frequencies --    529.9787               532.2882               609.3483
 Red. masses --      4.7172                 6.4978                 3.8296
 Frc consts  --      0.7806                 1.0847                 0.8378
 IR Inten    --      7.7090                 8.5508                 7.9247

                     28                     29                     30
                      A                      A                      A
 Frequencies --    654.9381               689.4463               743.2743
 Red. masses --      4.4109                 5.3043                 1.8788
 Frc consts  --      1.1147                 1.4855                 0.6115
 IR Inten    --      8.7069                10.2767                 3.3940

                     31                     32                     33
                      A                      A                      A
 Frequencies --    765.0803               804.7148               816.5611
 Red. masses --      1.1825                 1.6681                 1.2108
 Frc consts  --      0.4078                 0.6364                 0.4757
 IR Inten    --      3.2435                 5.0820                 0.9969

                     34                     35                     36
                      A                      A                      A
 Frequencies --    836.5076               888.5268               896.1766
 Red. masses --      1.7759                 2.2640                 2.2150
 Frc consts  --      0.7322                 1.0531                 1.0481
 IR Inten    --      8.4819                 1.8339                 2.3698

                     37                     38                     39
                      A                      A                      A
 Frequencies --    941.7984               964.4651               973.7851
 Red. masses --      1.6299                 2.1126                 1.3242
 Frc consts  --      0.8518                 1.1578                 0.7398
 IR Inten    --      0.4087                14.7853                 1.0919

                     40                     41                     42
                      A                      A                      A
 Frequencies --    996.7627              1001.4633              1030.0671
 Red. masses --      1.3491                 1.3879                 2.3857
 Frc consts  --      0.7897                 0.8201                 1.4914
 IR Inten    --      8.2078                31.7574                22.7414

                     43                     44                     45
                      A                      A                      A
 Frequencies --   1032.3757              1063.0747              1067.9368
 Red. masses --      3.0946                 2.5153                 5.8202
 Frc consts  --      1.9433                 1.6748                 3.9109
 IR Inten    --     58.8652                 4.4338                54.4188

                     46                     47                     48
                      A                      A                      A
 Frequencies --   1088.3783              1093.4637              1124.2051
 Red. masses --      3.0493                 2.5124                 2.5855
 Frc consts  --      2.1282                 1.7699                 1.9252
 IR Inten    --    107.2551                23.1042                39.5302

                     49                     50                     51
                      A                      A                      A
 Frequencies --   1135.8257              1157.8634              1163.8854
 Red. masses --      2.2647                 2.4897                 2.0938
 Frc consts  --      1.7214                 1.9666                 1.6711
 IR Inten    --    110.6654               112.4728                15.5660

                     52                     53                     54
                      A                      A                      A
 Frequencies --   1177.3044              1192.9367              1259.8744
 Red. masses --      2.9162                 1.8436                 1.2760
 Frc consts  --      2.3815                 1.5458                 1.1933
 IR Inten    --    105.7504                 3.8035                32.8967

                     55                     56                     57
                      A                      A                      A
 Frequencies --   1262.9990              1300.5501              1305.5532
 Red. masses --      1.2667                 1.1875                 1.3197
 Frc consts  --      1.1905                 1.1834                 1.3253
 IR Inten    --      4.0427                 1.5456                10.3322

                     58                     59                     60
                      A                      A                      A
 Frequencies --   1311.0517              1331.7115              1346.5248
 Red. masses --      1.3620                 1.1171                 1.2175
 Frc consts  --      1.3793                 1.1672                 1.3006
 IR Inten    --      5.7172                 1.7006                39.3423

                     61                     62                     63
                      A                      A                      A
 Frequencies --   1351.0651              1359.5462              1370.8284
 Red. masses --      1.1403                 1.7149                 1.5654
 Frc consts  --      1.2264                 1.8676                 1.7332
 IR Inten    --      5.5914                25.6323                25.6526

                     64                     65                     66
                      A                      A                      A
 Frequencies --   1376.6527              1387.6626              1396.5338
 Red. masses --      2.0225                 1.3751                 1.4295
 Frc consts  --      2.2584                 1.5601                 1.6426
 IR Inten    --     91.8779                 1.4508                 6.8365

                     67                     68                     69
                      A                      A                      A
 Frequencies --   1418.0906              1436.2040              1442.2140
 Red. masses --      1.4304                 1.2481                 1.2627
 Frc consts  --      1.6947                 1.5168                 1.5475
 IR Inten    --     22.1319                12.2113                 3.1275

                     70                     71                     72
                      A                      A                      A
 Frequencies --   1445.4169              1451.0036              1464.6380
 Red. masses --      1.2552                 1.2319                 1.4756
 Frc consts  --      1.5451                 1.5282                 1.8649
 IR Inten    --      2.6491                14.1450                 3.4768

                     73                     74                     75
                      A                      A                      A
 Frequencies --   1503.3463              1518.6256              1521.7047
 Red. masses --      1.0931                 1.0693                 1.0752
 Frc consts  --      1.4555                 1.4530                 1.4668
 IR Inten    --      3.9942                 0.9145                 1.5332

                     76                     77                     78
                      A                      A                      A
 Frequencies --   1524.3564              1527.9158              1528.2815
 Red. masses --      1.0799                 1.0537                 1.0690
 Frc consts  --      1.4785                 1.4494                 1.4711
 IR Inten    --      1.7008                 3.5545                 5.2920

                     79                     80                     81
                      A                      A                      A
 Frequencies --   1535.0351              1539.0137              1545.3161
 Red. masses --      1.0576                 1.0654                 1.0552
 Frc consts  --      1.4682                 1.4868                 1.4846
 IR Inten    --      6.3971                 5.7713                 8.7858

                     82                     83                     84
                      A                      A                      A
 Frequencies --   1558.2126              1730.9717              2265.7749
 Red. masses --      1.0859                 5.5235                13.7851
 Frc consts  --      1.5534                 9.7508                41.6959
 IR Inten    --      1.4742                50.8620               871.5355

                     85                     86                     87
                      A                      A                      A
 Frequencies --   2998.6951              3017.4166              3034.2460
 Red. masses --      1.0687                 1.0847                 1.0653
 Frc consts  --      5.6618                 5.8189                 5.7787
 IR Inten    --     28.5708                62.9497                25.6815

                     88                     89                     90
                      A                      A                      A
 Frequencies --   3042.2945              3044.2688              3046.0863
 Red. masses --      1.0601                 1.0652                 1.0620
 Frc consts  --      5.7810                 5.8160                 5.8060
 IR Inten    --     30.3000                35.5527                19.6079

                     91                     92                     93
                      A                      A                      A
 Frequencies --   3046.8472              3050.5437              3052.2506
 Red. masses --      1.0390                 1.0595                 1.0544
 Frc consts  --      5.6827                 5.8092                 5.7873
 IR Inten    --     18.9318                20.4498                30.4727

                     94                     95                     96
                      A                      A                      A
 Frequencies --   3069.4162              3072.1926              3090.3274
 Red. masses --      1.0948                 1.0952                 1.0952
 Frc consts  --      6.0772                 6.0903                 6.1626
 IR Inten    --      9.6713                23.4972                21.2653

                     97                     98                     99
                      A                      A                      A
 Frequencies --   3093.1857              3094.7616              3109.0925
 Red. masses --      1.1028                 1.0927                 1.0994
 Frc consts  --      6.2169                 6.1662                 6.2612
 IR Inten    --     68.7107                 8.3635                34.1440

                    100                    101                    102
                      A                      A                      A
 Frequencies --   3111.8533              3112.7348              3119.3530
 Red. masses --      1.1015                 1.1002                 1.1019
 Frc consts  --      6.2846                 6.2807                 6.3170
 IR Inten    --     51.7461                45.4210                49.2742

                    103                    104                    105
                      A                      A                      A
 Frequencies --   3141.5583              3173.7131              3218.5668
 Red. masses --      1.1000                 1.0891                 1.0923
 Frc consts  --      6.3962                 6.4636                 6.6668
 IR Inten    --     25.1319                14.6625                 1.5010

 - Thermochemistry -
 -------------------
 Temperature   298.150 Kelvin.  Pressure   1.00000 Atm.
 Atom     1 has atomic number  6 and mass  12.00000

 Molecular mass:   227.16338 amu.
 Principal axes and moments of inertia in atomic units:
                           1         2         3
     Eigenvalues --  2150.113308844.753299348.76633
           X            0.99980   0.01771  -0.00941
           Y           -0.01756   0.99973   0.01510
           Z            0.00967  -0.01493   0.99984
 This molecule is an asymmetric top.
 Rotational symmetry number  1.
 Warning -- assumption of classical behavior for rotation
           may cause significant error
 Rotational temperatures (Kelvin)      0.04028     0.00979     0.00926
 Rotational constants (GHZ):           0.83937     0.20405     0.19305
 Zero-point vibrational energy     848738.6 (Joules/Mol)
                                  202.85339 (Kcal/Mol)
 Warning -- explicit consideration of  27 degrees of freedom as
           vibrations may cause significant error
 Vibrational temperatures:     36.96    40.08    46.53    61.68    95.60
          (Kelvin)            109.32   160.89   178.03   204.10   205.38
                              229.29   252.56   278.39   317.77   321.73
                              356.19   389.46   413.55   455.58   493.53
                              512.09   527.92   635.84   683.66   762.52
                              765.84   876.72   942.31   991.96  1069.41
                             1100.78  1157.81  1174.85  1203.55  1278.39
                             1289.40  1355.04  1387.65  1401.06  1434.12
                             1440.88  1482.04  1485.36  1529.53  1536.52
                             1565.93  1573.25  1617.48  1634.20  1665.91
                             1674.57  1693.88  1716.37  1812.68  1817.17
                             1871.20  1878.40  1886.31  1916.04  1937.35
                             1943.88  1956.08  1972.32  1980.70  1996.54
                             2009.30  2040.32  2066.38  2075.02  2079.63
                             2087.67  2107.29  2162.98  2184.96  2189.39
                             2193.21  2198.33  2198.86  2208.57  2214.30
                             2223.37  2241.92  2490.48  3259.94  4314.45
                             4341.39  4365.60  4377.18  4380.02  4382.64
                             4383.73  4389.05  4391.51  4416.21  4420.20
                             4446.29  4450.40  4452.67  4473.29  4477.26
                             4478.53  4488.05  4520.00  4566.27  4630.80

 Zero-point correction=                           0.323267 (Hartree/Particle)
 Thermal correction to Energy=                    0.342137
 Thermal correction to Enthalpy=                  0.343082
 Thermal correction to Gibbs Free Energy=         0.273598
 Sum of electronic and zero-point Energies=           -746.156301
 Sum of electronic and thermal Energies=              -746.137431
 Sum of electronic and thermal Enthalpies=            -746.136487
 Sum of electronic and thermal Free Energies=         -746.205970

                     E (Thermal)             CV                S
                      KCal/Mol        Cal/Mol-Kelvin    Cal/Mol-Kelvin
 Total                  214.694             66.745            146.240
 Electronic               0.000              0.000              0.000
 Translational            0.889              2.981             42.164
 Rotational               0.889              2.981             33.541
 Vibrational            212.917             60.783             70.536
 Vibration     1          0.593              1.985              6.137
 Vibration     2          0.593              1.984              5.976
 Vibration     3          0.594              1.983              5.681
 Vibration     4          0.595              1.980              5.122
 Vibration     5          0.598              1.970              4.256
 Vibration     6          0.599              1.965              3.992
 Vibration     7          0.607              1.940              3.237
 Vibration     8          0.610              1.929              3.041
 Vibration     9          0.615              1.911              2.779
 Vibration    10          0.616              1.910              2.767
 Vibration    11          0.621              1.892              2.557
 Vibration    12          0.627              1.873              2.375
 Vibration    13          0.635              1.849              2.194
 Vibration    14          0.648              1.809              1.952
 Vibration    15          0.649              1.805              1.930
 Vibration    16          0.661              1.767              1.748
 Vibration    17          0.674              1.727              1.592
 Vibration    18          0.685              1.697              1.489
 Vibration    19          0.704              1.642              1.327
 Vibration    20          0.722              1.589              1.198
 Vibration    21          0.731              1.563              1.140
 Vibration    22          0.740              1.540              1.093
 Vibration    23          0.802              1.379              0.821
 Vibration    24          0.832              1.305              0.723
 Vibration    25          0.885              1.184              0.587
 Vibration    26          0.887              1.179              0.582
 Vibration    27          0.968              1.012              0.434

 Optimization completed.
    -- Stationary point found.
 Normal termination of Gaussian 16 at Mon Jan  4 09:55:30 2021.

 ----------------------------------------------------------------------
 # B3LYP/6-311++G(d,p) empiricaldispersion=gd3bj scf=xqc pop=npa geom=c
 heck
 ----------------------------------------------------------------------

 ---------------------------------------
 CID_149692402_JID_6335_Energie_neutraal
 ---------------------------------------
 Structure from the checkpoint file:  "JID_6335.chk"
 Charge =  0 Multiplicity = 1

 SCF Done:  E(RB3LYP) =  -746.691609867     A.U. after   15 cycles
 Normal termination of Gaussian 16 at Mon Jan  4 10:00:49 2021.

 ----------------------------------------------------------------------
 # B3LYP/6-311++G(d,p) empiricaldispersion=gd3bj scf=xqc pop=npa geom=c
 heck
 ----------------------------------------------------------------------

 -------------------------------------
 CID_149692402_JID_6335_Energie_kation
 -------------------------------------
 Structure from the checkpoint file:  "JID_6335.chk"
 Charge =  1 Multiplicity = 2

 SCF Done:  E(UB3LYP) =  -746.390285641     A.U. after   23 cycles
 Normal termination of Gaussian 16 at Mon Jan  4 10:11:42 2021.
 Gaussian 16:  ES64L-G16RevA.03 25-Dec-2016

 ----------------------------------------------------------------------
 # B3LYP/6-311++G(d,p) empiricaldispersion=gd3bj scf=xqc pop=npa geom=c
 heck
 ----------------------------------------------------------------------

 ------------------------------------
 CID_149692402_JID_6335_Energie_anion
 ------------------------------------
 Structure from the checkpoint file:  "JID_6335.chk"
 Charge = -1 Multiplicity = 2

                         Standard orientation:
 ---------------------------------------------------------------------
 Center     Atomic      Atomic             Coordinates (Angstroms)
 Number     Number       Type             X           Y           Z
 ---------------------------------------------------------------------
      1          6           0       -4.909718   -1.400848    1.307160
      2          6           0       -4.896289   -1.080326   -0.191633
      3          6           0       -3.718390   -0.200878   -0.632432
      4          6           0       -2.363253   -0.867282   -0.451573
      5          8           0       -1.366334    0.016132   -0.968386
      6          6           0       -0.051875   -0.356422   -0.654362
      7          6           0        0.861748    0.407466   -1.616583
      8          6           0        2.338513    0.166432   -1.476860
      9          6           0        2.962683   -0.391672   -0.433247
     10          7           0        4.368546   -0.560632   -0.466311
     11          7           0        4.898426   -1.071541    0.527674
     12          7           0        5.512974   -1.530001    1.374886
     13          8           0        0.248934   -0.201308    0.725353
     14          6           0       -0.239164    0.940903    1.439223
     15          6           0        0.337193    2.310133    1.032659
     16          6           0       -0.603689    3.144377    0.154860
     17          1           0       -4.044127   -2.002660    1.605321
     18          1           0       -5.809391   -1.962314    1.581530
     19          1           0       -4.894887   -0.480799    1.904495
     20          1           0       -4.888288   -2.016143   -0.767809
     21          1           0       -5.829167   -0.568072   -0.457864
     22          1           0       -3.827405    0.067051   -1.690437
     23          1           0       -3.722752    0.741191   -0.067928
     24          1           0       -2.158260   -1.080155    0.604029
     25          1           0       -2.323129   -1.823278   -0.998298
     26          1           0        0.089334   -1.435610   -0.814949
     27          1           0        0.548280    0.113733   -2.627132
     28          1           0        0.648335    1.480331   -1.552279
     29          1           0        2.952735    0.486231   -2.316676
     30          1           0        2.435359   -0.721727    0.455851
     31          1           0        0.036732    0.709343    2.471668
     32          1           0       -1.335265    0.969763    1.388880
     33          1           0        0.553001    2.876075    1.948173
     34          1           0        1.305654    2.149937    0.545904
     35          1           0       -1.498076    3.431076    0.721479
     36          1           0       -0.946438    2.585446   -0.720286
     37          1           0       -0.119219    4.065917   -0.186419
 ---------------------------------------------------------------------

 SCF Done:  E(UB3LYP) =  -746.683912437     A.U. after   33 cycles
 SCF Done:  E(UB3LYP) =  -746.683912437     a.u. after    1 cycles

 The electronic state is 2-A.
 Alpha  occ. eigenvalues --  -19.04482 -19.03677 -14.34813 -14.25586 -14.25044
 Alpha  occ. eigenvalues --  -10.18280 -10.12860 -10.12771 -10.10633 -10.08582
 Alpha  occ. eigenvalues --  -10.08160 -10.07824 -10.07718 -10.07263 -10.07208
 Alpha  occ. eigenvalues --  -10.06737  -1.02106  -0.98520  -0.92181  -0.86863
 Alpha  occ. eigenvalues --   -0.72183  -0.70591  -0.69478  -0.65890  -0.62292
 Alpha  occ. eigenvalues --   -0.60253  -0.56099  -0.53604  -0.50741  -0.48961
 Alpha  occ. eigenvalues --   -0.47948  -0.44894  -0.43034  -0.42397  -0.40306
 Alpha  occ. eigenvalues --   -0.39310  -0.38638  -0.36911  -0.36117  -0.35022
 Alpha  occ. eigenvalues --   -0.34714  -0.34338  -0.33929  -0.32755  -0.31979
 Alpha  occ. eigenvalues --   -0.31197  -0.30087  -0.29503  -0.28524  -0.28181
 Alpha  occ. eigenvalues --   -0.26857  -0.26029  -0.25113  -0.24839  -0.24448
 Alpha  occ. eigenvalues --   -0.23931  -0.22304  -0.21760  -0.20038  -0.19110
 Alpha  occ. eigenvalues --   -0.17644  -0.11567   0.04075
 Alpha virt. eigenvalues --    0.05233   0.06256   0.06980   0.07330   0.08101
 Alpha virt. eigenvalues --    0.08280   0.08550   0.08884   0.09928   0.09997
 Alpha virt. eigenvalues --    0.10389   0.10986   0.11347   0.11633   0.12516

  Beta  occ. eigenvalues --  -19.04476 -19.03675 -14.34496 -14.25212 -14.25083
  Beta  occ. eigenvalues --  -10.18278 -10.12851 -10.12761 -10.10565 -10.08577
  Beta  occ. eigenvalues --  -10.08153 -10.07800 -10.07707 -10.07266 -10.07195
  Beta  occ. eigenvalues --  -10.06701  -1.01527  -0.98511  -0.92172  -0.86589
  Beta  occ. eigenvalues --   -0.72154  -0.70544  -0.69456  -0.65811  -0.62223
  Beta  occ. eigenvalues --   -0.60211  -0.56029  -0.53565  -0.50621  -0.48903
  Beta  occ. eigenvalues --   -0.47856  -0.44794  -0.42998  -0.42356  -0.39819
  Beta  occ. eigenvalues --   -0.39046  -0.38202  -0.36875  -0.35835  -0.34936
  Beta  occ. eigenvalues --   -0.34685  -0.34173  -0.33284  -0.32696  -0.31906
  Beta  occ. eigenvalues --   -0.30992  -0.30021  -0.29455  -0.28488  -0.28139
  Beta  occ. eigenvalues --   -0.26821  -0.25992  -0.25092  -0.24803  -0.24409
  Beta  occ. eigenvalues --   -0.23896  -0.22212  -0.21709  -0.19456  -0.19038
  Beta  occ. eigenvalues --   -0.17574  -0.11501
  Beta virt. eigenvalues --    0.06034   0.06652   0.07062   0.07508   0.08204
  Beta virt. eigenvalues --    0.08579   0.08612   0.08843   0.09362   0.10051
  Beta virt. eigenvalues --    0.10194   0.10603   0.11148   0.11547   0.11788

 Mulliken charges and spin densities:
               1          2
     1  C    0.987436  -1.554604
     2  C   -0.342327   0.073217
     3  C   -0.311325   0.324404
     4  C    0.148175  -0.477461
     5  O    0.023920   0.011821
     6  C   -0.483539   0.011331
     7  C   -0.015848  -0.239058
     8  C   -0.101976   0.481152
     9  C   -0.173456  -0.769111
    10  N   -0.212045   0.277369
    11  N    0.379318  -0.040626
    12  N   -0.232320   0.046246
    13  O   -0.081236  -0.001072
    14  C   -0.066032  -0.160455
    15  C   -0.406654   0.140983
    16  C   -0.029457  -0.481547
    17  H   -0.177577   0.313588
    18  H   -0.453666   0.604545
    19  H   -0.171645   0.304629
    20  H    0.000711   0.111964
    21  H   -0.494136   0.668479
    22  H    0.036700   0.115902
    23  H    0.046988   0.075537
    24  H    0.301760  -0.092282
    25  H   -0.032812   0.186044
    26  H    0.035106   0.077184
    27  H    0.110156   0.073687
    28  H    0.178934  -0.047859
    29  H   -0.084076   0.297458
    30  H    0.230236  -0.006058
    31  H    0.036966   0.146043
    32  H    0.196445  -0.101421
    33  H    0.017468   0.133003
    34  H    0.196033  -0.012090
    35  H   -0.103144   0.243564
    36  H    0.041148   0.136069
    37  H    0.005771   0.129425
 Sum of Mulliken charges =  -1.00000   1.00000

 Dipole moment (field-independent basis, Debye):
    X=              1.5819    Y=              2.1794    Z=             -2.0316  Tot=              3.3733
 Quadrupole moment (field-independent basis, Debye-Ang):
   XX=           -240.5999   YY=           -133.8670   ZZ=           -129.3668
   XY=              1.7186   XZ=              3.8041   YZ=              4.6997

 Summary of Natural Population Analysis:

                                       Natural Population
                Natural  -----------------------------------------------
    Atom  No    Charge         Core      Valence    Rydberg      Total
 -----------------------------------------------------------------------
      C    1   -0.28808      0.99967     2.28244    0.00597     3.28808
      C    2   -0.19087      0.99964     2.18275    0.00848     3.19087
      C    3   -0.19778      0.99962     2.18864    0.00952     3.19778
      C    4   -0.00906      0.99956     1.99989    0.00961     3.00906
      O    5   -0.30589      0.99987     3.29727    0.00874     4.30589
      C    6    0.22802      0.99957     1.75431    0.01811     2.77198
      C    7   -0.22294      0.99958     2.21382    0.00954     3.22294
      C    8   -0.12031      0.99954     2.11064    0.01014     3.12031
      C    9   -0.00868      0.99944     1.99815    0.01109     3.00868
      N   10   -0.19788      0.99967     2.68362    0.01460     3.69788
      N   11    0.14257      0.99971     2.34211    0.01561     3.35743
      N   12   -0.00821      0.99982     2.49426    0.01412     3.50821
      O   13   -0.31379      0.99988     3.30477    0.00914     4.31379
      C   14   -0.01245      0.99956     1.99941    0.01349     3.01245
      C   15   -0.21448      0.99964     2.20715    0.00770     3.21448
      C   16   -0.28982      0.99966     2.28554    0.00461     3.28982
      H   17    0.09471      0.00000     0.40407    0.00122     0.40529
      H   18    0.10133      0.00000     0.39725    0.00142     0.39867
      H   19    0.09744      0.00000     0.40129    0.00127     0.40256
      H   20    0.09263      0.00000     0.40620    0.00116     0.40737
      H   21    0.09886      0.00000     0.39971    0.00144     0.40114
      H   22    0.09948      0.00000     0.39918    0.00134     0.40052
      H   23    0.09735      0.00000     0.40095    0.00171     0.40265
      H   24    0.08635      0.00000     0.41187    0.00178     0.41365
      H   25    0.07919      0.00000     0.41946    0.00136     0.42081
      H   26    0.07747      0.00000     0.42097    0.00156     0.42253
      H   27    0.10672      0.00000     0.39205    0.00123     0.39328
      H   28    0.10624      0.00000     0.39212    0.00164     0.39376
      H   29    0.09902      0.00000     0.39934    0.00164     0.40098
      H   30    0.10022      0.00000     0.39810    0.00168     0.39978
      H   31    0.09086      0.00000     0.40817    0.00097     0.40914
      H   32    0.08334      0.00000     0.41516    0.00149     0.41666
      H   33    0.09690      0.00000     0.40213    0.00097     0.40310
      H   34    0.10501      0.00000     0.39368    0.00131     0.39499
      H   35    0.09665      0.00000     0.40208    0.00127     0.40335
      H   36    0.10396      0.00000     0.39462    0.00143     0.39604
      H   37    0.09594      0.00000     0.40322    0.00084     0.40406
 =======================================================================
   * Total *   -0.00000     15.99441    45.80640    0.19919    62.00000

 Normal termination of Gaussian 16 at Mon Jan  4 10:27:34 2021.
