 Gaussian 16, Revision A.03,

 -----------------------------------------------------------
 # opt freq B3LYP/6-31G(d) empiricaldispersion=gd3bj scf=xqc
 -----------------------------------------------------------

 -------------------------------
 CID_113290448_JID_8294_neutraal
 -------------------------------
 Symbolic Z-matrix:
 Charge =  0 Multiplicity = 1

 SCF Done:  E(RB3LYP) =  -783.233238037     A.U. after   15 cycles
 SCF Done:  E(RB3LYP) =  -783.239097633     A.U. after   12 cycles
 SCF Done:  E(RB3LYP) =  -783.240662526     A.U. after   13 cycles
 SCF Done:  E(RB3LYP) =  -783.241436022     A.U. after   12 cycles
 SCF Done:  E(RB3LYP) =  -783.241823278     A.U. after   12 cycles
 SCF Done:  E(RB3LYP) =  -783.242003126     A.U. after   12 cycles
 SCF Done:  E(RB3LYP) =  -783.242072959     A.U. after   11 cycles
 SCF Done:  E(RB3LYP) =  -783.242092078     A.U. after   11 cycles
 SCF Done:  E(RB3LYP) =  -783.242098249     A.U. after   10 cycles
 SCF Done:  E(RB3LYP) =  -783.242099780     A.U. after    8 cycles
 SCF Done:  E(RB3LYP) =  -783.242100519     A.U. after    8 cycles
 SCF Done:  E(RB3LYP) =  -783.242100953     A.U. after    8 cycles
 SCF Done:  E(RB3LYP) =  -783.242101106     A.U. after    8 cycles
 SCF Done:  E(RB3LYP) =  -783.242101184     A.U. after    7 cycles
 SCF Done:  E(RB3LYP) =  -783.242101208     A.U. after    7 cycles
 Optimization completed.
    -- Stationary point found.
 Normal termination of Gaussian 16 at Fri Dec 11 19:51:55 2020.

 --------------------------------------------------------------------
 #N Geom=AllCheck Guess=TCheck SCRF=Check GenChk RB3LYP/6-31G(d) Freq
 --------------------------------------------------------------------

 Structure from the checkpoint file:  "JID_8294.chk"
 -------------------------------
 CID_113290448_JID_8294_neutraal
 -------------------------------
 Charge =  0 Multiplicity = 1

 SCF Done:  E(RB3LYP) =  -783.242101208     A.U. after    1 cycles

  Exact polarizability: 328.511  -0.360 164.748 -16.885 -11.420  89.184
 Approx polarizability: 430.810   4.685 290.762 -32.835 -24.579 133.198

                      1                      2                      3
                      A                      A                      A
 Frequencies --     16.6355                28.5789                43.9206
 Red. masses --      3.9589                 3.7866                 3.1915
 Frc consts  --      0.0006                 0.0018                 0.0036
 IR Inten    --      0.4069                 0.2584                 0.1052

                      4                      5                      6
                      A                      A                      A
 Frequencies --     51.5773                70.9135                85.3682
 Red. masses --      6.0314                 3.9504                 3.9918
 Frc consts  --      0.0095                 0.0117                 0.0171
 IR Inten    --      0.0334                 0.3047                 0.0364

                      7                      8                      9
                      A                      A                      A
 Frequencies --    118.1623               164.3051               217.7593
 Red. masses --      4.1691                 6.0901                 1.9697
 Frc consts  --      0.0343                 0.0969                 0.0550
 IR Inten    --      0.3465                 0.3031                 2.9205

                     10                     11                     12
                      A                      A                      A
 Frequencies --    222.4297               234.9752               252.5238
 Red. masses --      1.8095                 1.3940                 2.0045
 Frc consts  --      0.0527                 0.0453                 0.0753
 IR Inten    --      2.3780                 0.4341                 1.0405

                     13                     14                     15
                      A                      A                      A
 Frequencies --    269.9218               281.8279               299.4079
 Red. masses --      1.8651                 3.4133                 1.0711
 Frc consts  --      0.0801                 0.1597                 0.0566
 IR Inten    --      0.6271                 2.8253                18.8402

                     16                     17                     18
                      A                      A                      A
 Frequencies --    326.9723               354.6666               358.8757
 Red. masses --      3.2380                 3.2702                 4.0460
 Frc consts  --      0.2040                 0.2424                 0.3070
 IR Inten    --      0.8954                 2.9195                 0.1815

                     19                     20                     21
                      A                      A                      A
 Frequencies --    414.5490               424.6008               442.4154
 Red. masses --      2.9646                 2.2219                 3.0553
 Frc consts  --      0.3002                 0.2360                 0.3523
 IR Inten    --      0.2190                 0.5021                 6.4981

                     22                     23                     24
                      A                      A                      A
 Frequencies --    456.0730               511.3906               539.9401
 Red. masses --      3.0875                 4.3034                 6.3666
 Frc consts  --      0.3784                 0.6631                 1.0936
 IR Inten    --      7.1066                 6.0765                14.2258

                     25                     26                     27
                      A                      A                      A
 Frequencies --    576.1348               601.5069               629.7174
 Red. masses --      1.9742                 6.0804                 2.0914
 Frc consts  --      0.3861                 1.2962                 0.4886
 IR Inten    --    161.8649                12.3690               206.8073

                     28                     29                     30
                      A                      A                      A
 Frequencies --    677.9979               694.2006               735.9279
 Red. masses --      4.8386                 2.4959                 4.2667
 Frc consts  --      1.3105                 0.7087                 1.3615
 IR Inten    --      9.7982                 7.3834                 2.8814

                     31                     32                     33
                      A                      A                      A
 Frequencies --    762.3312               788.4559               800.8557
 Red. masses --      4.9496                 1.7292                 3.9703
 Frc consts  --      1.6948                 0.6334                 1.5003
 IR Inten    --      0.4658                35.9150                24.0391

                     34                     35                     36
                      A                      A                      A
 Frequencies --    831.9481               838.6056               856.1103
 Red. masses --      4.5936                 2.8043                 1.6378
 Frc consts  --      1.8732                 1.1619                 0.7072
 IR Inten    --      9.4097                 1.3465                25.7587

                     37                     38                     39
                      A                      A                      A
 Frequencies --    869.2359               896.6151               902.6089
 Red. masses --      1.5594                 1.8234                 1.7945
 Frc consts  --      0.6942                 0.8636                 0.8614
 IR Inten    --      0.6491                 1.2719                 4.2395

                     40                     41                     42
                      A                      A                      A
 Frequencies --    923.4216               946.7702               963.9809
 Red. masses --      5.6929                 1.1947                 1.2623
 Frc consts  --      2.8601                 0.6310                 0.6911
 IR Inten    --      2.7335                 3.3189                 0.0467

                     43                     44                     45
                      A                      A                      A
 Frequencies --    967.7501               981.4167               995.8206
 Red. masses --      1.9712                 1.5163                 2.6638
 Frc consts  --      1.0877                 0.8605                 1.5564
 IR Inten    --      2.6482                 0.1232                 3.0443

                     46                     47                     48
                      A                      A                      A
 Frequencies --   1015.4946              1019.5409              1020.0363
 Red. masses --      5.8242                 6.5416                 1.1696
 Frc consts  --      3.5387                 4.0063                 0.7170
 IR Inten    --      2.4643                 1.8117                28.2286

                     49                     50                     51
                      A                      A                      A
 Frequencies --   1056.1516              1109.2845              1134.1621
 Red. masses --      6.3818                 1.6651                 1.6315
 Frc consts  --      4.1942                 1.2072                 1.2365
 IR Inten    --      7.1212                 1.5331                16.5413

                     52                     53                     54
                      A                      A                      A
 Frequencies --   1151.5794              1152.6124              1205.9140
 Red. masses --      1.3781                 2.1719                 1.6159
 Frc consts  --      1.0768                 1.7000                 1.3845
 IR Inten    --      2.7221                 1.9117                13.5905

                     55                     56                     57
                      A                      A                      A
 Frequencies --   1206.2949              1214.9381              1262.0806
 Red. masses --      1.1927                 1.8452                 1.5074
 Frc consts  --      1.0225                 1.6047                 1.4147
 IR Inten    --      3.8219                11.1126                 1.3489

                     58                     59                     60
                      A                      A                      A
 Frequencies --   1278.3401              1324.3357              1330.9954
 Red. masses --      1.7590                 1.3320                 1.6818
 Frc consts  --      1.6936                 1.3764                 1.7554
 IR Inten    --     21.4203                24.7491                64.3023

                     61                     62                     63
                      A                      A                      A
 Frequencies --   1345.2559              1358.8950              1373.2029
 Red. masses --      3.1273                 2.7213                 1.4008
 Frc consts  --      3.3345                 2.9607                 1.5563
 IR Inten    --      7.7676                47.6424                10.5643

                     64                     65                     66
                      A                      A                      A
 Frequencies --   1385.8635              1387.9663              1391.9259
 Red. masses --      1.8223                 2.7033                 1.4496
 Frc consts  --      2.0622                 3.0683                 1.6548
 IR Inten    --     57.9596                 8.3504                 7.2852

                     67                     68                     69
                      A                      A                      A
 Frequencies --   1411.1767              1432.8640              1451.1493
 Red. masses --      3.5457                 1.3061                 1.2363
 Frc consts  --      4.1602                 1.5799                 1.5339
 IR Inten    --    161.0296                 6.9831                 4.3973

                     70                     71                     72
                      A                      A                      A
 Frequencies --   1499.6506              1513.0923              1517.4725
 Red. masses --      1.1259                 3.1596                 1.0466
 Frc consts  --      1.4919                 4.2620                 1.4199
 IR Inten    --      3.7492                43.6560                 0.4725

                     73                     74                     75
                      A                      A                      A
 Frequencies --   1524.3642              1534.9598              1538.3614
 Red. masses --      1.0584                 1.0586                 1.0546
 Frc consts  --      1.4490                 1.4696                 1.4705
 IR Inten    --      1.8639                 2.6247                 8.9624

                     76                     77                     78
                      A                      A                      A
 Frequencies --   1541.2353              1562.9186              1601.0964
 Red. masses --      2.7150                 5.8863                 7.8903
 Frc consts  --      3.7998                 8.4715                11.9173
 IR Inten    --      6.3559                23.3585               156.5403

                     79                     80                     81
                      A                      A                      A
 Frequencies --   1643.6369              1664.6507              1696.0785
 Red. masses --      5.3776                 4.0158                 1.2523
 Frc consts  --      8.5595                 6.5564                 2.1225
 IR Inten    --     30.7055                35.0143               103.3772

                     82                     83                     84
                      A                      A                      A
 Frequencies --   1710.8093              3038.4141              3043.0504
 Red. masses --      5.2996                 1.0365                 1.0580
 Frc consts  --      9.1390                 5.6378                 5.7726
 IR Inten    --    243.8431                29.8977                 8.8362

                     85                     86                     87
                      A                      A                      A
 Frequencies --   3047.0806              3054.1202              3100.6039
 Red. masses --      1.0617                 1.0610                 1.1018
 Frc consts  --      5.8081                 5.8308                 6.2409
 IR Inten    --     19.2620                27.5812                 2.9167

                     88                     89                     90
                      A                      A                      A
 Frequencies --   3103.9023              3111.4472              3114.3320
 Red. masses --      1.1015                 1.1014                 1.1014
 Frc consts  --      6.2523                 6.2823                 6.2938
 IR Inten    --     11.0062                47.9234                53.7528

                     91                     92                     93
                      A                      A                      A
 Frequencies --   3123.6315              3180.6296              3181.8129
 Red. masses --      1.1017                 1.0873                 1.0898
 Frc consts  --      6.3333                 6.4806                 6.5004
 IR Inten    --     46.2791                10.2079                 0.6239

                     94                     95                     96
                      A                      A                      A
 Frequencies --   3188.6323              3194.8433              3210.0868
 Red. masses --      1.0890                 1.0896                 1.0963
 Frc consts  --      6.5238                 6.5528                 6.6557
 IR Inten    --      9.6766                17.5949                23.8866

                     97                     98                     99
                      A                      A                      A
 Frequencies --   3222.9827              3555.3075              3654.1508
 Red. masses --      1.0885                 1.0479                 1.0984
 Frc consts  --      6.6621                 7.8040                 8.6411
 IR Inten    --      9.2969                16.2068                 9.5264

 - Thermochemistry -
 -------------------
 Temperature   298.150 Kelvin.  Pressure   1.00000 Atm.
 Atom     1 has atomic number  6 and mass  12.00000

 Molecular mass:   243.13716 amu.
 Principal axes and moments of inertia in atomic units:
                           1         2         3
     Eigenvalues --  1495.77941********************
           X            0.99997   0.00632   0.00431
           Y           -0.00624   0.99981  -0.01845
           Z           -0.00443   0.01842   0.99982
 This molecule is an asymmetric top.
 Rotational symmetry number  1.
 Warning -- assumption of classical behavior for rotation
           may cause significant error
 Rotational temperatures (Kelvin)      0.05791     0.00622     0.00584
 Rotational constants (GHZ):           1.20656     0.12970     0.12179
 Zero-point vibrational energy     766343.4 (Joules/Mol)
                                  183.16048 (Kcal/Mol)
 Warning -- explicit consideration of  26 degrees of freedom as
           vibrations may cause significant error
 Vibrational temperatures:     23.93    41.12    63.19    74.21   102.03
          (Kelvin)            122.83   170.01   236.40   313.31   320.03
                              338.08   363.33   388.36   405.49   430.78
                              470.44   510.29   516.34   596.44   610.91
                              636.54   656.19   735.78   776.85   828.93
                              865.43   906.02   975.49   998.80  1058.84
                             1096.82  1134.41  1152.25  1196.99  1206.57
                             1231.75  1250.64  1290.03  1298.65  1328.60
                             1362.19  1386.95  1392.38  1412.04  1432.76
                             1461.07  1466.89  1467.60  1519.57  1596.01
                             1631.81  1656.87  1658.35  1735.04  1735.59
                             1748.02  1815.85  1839.25  1905.42  1915.01
                             1935.52  1955.15  1975.73  1993.95  1996.97
                             2002.67  2030.37  2061.57  2087.88  2157.66
                             2177.00  2183.30  2193.22  2208.46  2213.36
                             2217.49  2248.69  2303.62  2364.83  2395.06
                             2440.28  2461.47  4371.60  4378.27  4384.07
                             4394.20  4461.08  4465.82  4476.68  4480.83
                             4494.21  4576.22  4577.92  4587.73  4596.67
                             4618.60  4637.15  5115.29  5257.51

 Zero-point correction=                           0.291885 (Hartree/Particle)
 Thermal correction to Energy=                    0.309168
 Thermal correction to Enthalpy=                  0.310113
 Thermal correction to Gibbs Free Energy=         0.244323
 Sum of electronic and zero-point Energies=           -782.950216
 Sum of electronic and thermal Energies=              -782.932933
 Sum of electronic and thermal Enthalpies=            -782.931989
 Sum of electronic and thermal Free Energies=         -782.997778

                     E (Thermal)             CV                S
                      KCal/Mol        Cal/Mol-Kelvin    Cal/Mol-Kelvin
 Total                  194.006             65.353            138.465
 Electronic               0.000              0.000              0.000
 Translational            0.889              2.981             42.366
 Rotational               0.889              2.981             34.088
 Vibrational            192.229             59.392             62.010
 Vibration     1          0.593              1.986              7.000
 Vibration     2          0.593              1.984              5.926
 Vibration     3          0.595              1.980              5.074
 Vibration     4          0.596              1.977              4.756
 Vibration     5          0.598              1.968              4.128
 Vibration     6          0.601              1.959              3.764
 Vibration     7          0.608              1.934              3.130
 Vibration     8          0.623              1.886              2.500
 Vibration     9          0.646              1.814              1.978
 Vibration    10          0.648              1.807              1.939
 Vibration    11          0.655              1.787              1.841
 Vibration    12          0.664              1.759              1.713
 Vibration    13          0.674              1.729              1.597
 Vibration    14          0.681              1.707              1.523
 Vibration    15          0.692              1.675              1.420
 Vibration    16          0.711              1.622              1.275
 Vibration    17          0.731              1.566              1.145
 Vibration    18          0.734              1.557              1.127
 Vibration    19          0.778              1.439              0.911
 Vibration    20          0.787              1.417              0.876
 Vibration    21          0.802              1.378              0.819
 Vibration    22          0.814              1.347              0.778
 Vibration    23          0.866              1.225              0.630
 Vibration    24          0.895              1.162              0.565
 Vibration    25          0.933              1.083              0.493
 Vibration    26          0.960              1.029              0.447

 Optimization completed.
    -- Stationary point found.
 Normal termination of Gaussian 16 at Fri Dec 11 20:02:36 2020.

 ----------------------------------------------------------------------
 # B3LYP/6-311++G(d,p) empiricaldispersion=gd3bj scf=xqc pop=npa geom=c
 heck
 ----------------------------------------------------------------------

 ---------------------------------------
 CID_113290448_JID_8294_Energie_neutraal
 ---------------------------------------
 Structure from the checkpoint file:  "JID_8294.chk"
 Charge =  0 Multiplicity = 1

 SCF Done:  E(RB3LYP) =  -783.455266329     A.U. after   15 cycles
 Normal termination of Gaussian 16 at Fri Dec 11 20:07:08 2020.

 ----------------------------------------------------------------------
 # B3LYP/6-311++G(d,p) empiricaldispersion=gd3bj scf=xqc pop=npa geom=c
 heck
 ----------------------------------------------------------------------

 -------------------------------------
 CID_113290448_JID_8294_Energie_kation
 -------------------------------------
 Structure from the checkpoint file:  "JID_8294.chk"
 Charge =  1 Multiplicity = 2

 SCF Done:  E(UB3LYP) =  -783.171384567     A.U. after   23 cycles
 Normal termination of Gaussian 16 at Fri Dec 11 20:16:35 2020.
 Gaussian 16:  ES64L-G16RevA.03 25-Dec-2016

 ----------------------------------------------------------------------
 # B3LYP/6-311++G(d,p) empiricaldispersion=gd3bj scf=xqc pop=npa geom=c
 heck
 ----------------------------------------------------------------------

 ------------------------------------
 CID_113290448_JID_8294_Energie_anion
 ------------------------------------
 Structure from the checkpoint file:  "JID_8294.chk"
 Charge = -1 Multiplicity = 2

                         Standard orientation:
 ---------------------------------------------------------------------
 Center     Atomic      Atomic             Coordinates (Angstroms)
 Number     Number       Type             X           Y           Z
 ---------------------------------------------------------------------
      1          6           0        4.833295    0.231943    1.708579
      2          6           0        4.882944    0.889005    0.324986
      3          6           0        6.293869    1.388349   -0.002343
      4          6           0        4.396009   -0.079925   -0.774366
      5          6           0        2.973074   -0.491735   -0.588040
      6          7           0        2.621893   -1.738419   -0.376473
      7          8           0        1.218419   -1.661600   -0.236085
      8          6           0        0.887333   -0.359991   -0.376834
      9          7           0        1.928148    0.406818   -0.595326
     10          6           0       -0.492251    0.050486   -0.282477
     11          6           0       -1.510179   -0.804437   -0.053313
     12          6           0       -2.928141   -0.474470    0.055797
     13          6           0       -3.416426    0.832380   -0.102680
     14          6           0       -4.781967    1.112837    0.008639
     15          6           0       -5.672453    0.056943    0.282269
     16          6           0       -5.195196   -1.239693    0.437543
     17          6           0       -3.834113   -1.514328    0.326233
     18          7           0       -5.251739    2.423173   -0.091445
     19          1           0        5.493257   -0.644056    1.747256
     20          1           0        3.821780   -0.102995    1.960344
     21          1           0        5.160118    0.933228    2.484542
     22          1           0        4.198620    1.747653    0.324700
     23          1           0        7.007667    0.554897   -0.025827
     24          1           0        6.326825    1.885942   -0.978665
     25          1           0        6.641680    2.102624    0.752401
     26          1           0        4.489147    0.408009   -1.752678
     27          1           0        5.022023   -0.979087   -0.791154
     28          1           0       -0.643248    1.116823   -0.410434
     29          1           0       -1.266980   -1.858036    0.067894
     30          1           0       -2.730098    1.647878   -0.312820
     31          1           0       -6.735464    0.264998    0.375534
     32          1           0       -5.894426   -2.044417    0.645840
     33          1           0       -3.465479   -2.528536    0.447124
     34          1           0       -6.220108    2.509839   -0.372938
     35          1           0       -4.655569    3.052854   -0.613690
 ---------------------------------------------------------------------

 SCF Done:  E(UB3LYP) =  -783.484583730     A.U. after   21 cycles

 The electronic state is 2-A.
 Alpha  occ. eigenvalues --  -19.05387 -14.21342 -14.21315 -14.15987 -10.11183
 Alpha  occ. eigenvalues --  -10.09872 -10.08922 -10.08416 -10.07856 -10.07388
 Alpha  occ. eigenvalues --  -10.06599 -10.04584 -10.04096 -10.03550 -10.03161
 Alpha  occ. eigenvalues --  -10.02986 -10.01741 -10.01666  -1.00597  -0.81015
 Alpha  occ. eigenvalues --   -0.78881  -0.73450  -0.71617  -0.71011  -0.64995
 Alpha  occ. eigenvalues --   -0.61057  -0.60541  -0.59804  -0.59509  -0.51805
 Alpha  occ. eigenvalues --   -0.48901  -0.48220  -0.46572  -0.45798  -0.42614
 Alpha  occ. eigenvalues --   -0.40174  -0.38588  -0.37078  -0.36125  -0.35772
 Alpha  occ. eigenvalues --   -0.35635  -0.33779  -0.32815  -0.30837  -0.30491
 Alpha  occ. eigenvalues --   -0.30316  -0.29962  -0.29283  -0.27151  -0.26714
 Alpha  occ. eigenvalues --   -0.26414  -0.24958  -0.24577  -0.24041  -0.23492
 Alpha  occ. eigenvalues --   -0.22180  -0.21434  -0.20947  -0.19290  -0.18600
 Alpha  occ. eigenvalues --   -0.17622  -0.15284  -0.14738  -0.09966  -0.08567
 Alpha  occ. eigenvalues --    0.02596
 Alpha virt. eigenvalues --    0.06441   0.06980   0.08771   0.08804   0.09193
 Alpha virt. eigenvalues --    0.09802   0.10200   0.11459   0.11543   0.11791
 Alpha virt. eigenvalues --    0.12049   0.12428   0.12852   0.13090   0.13392

  Beta  occ. eigenvalues --  -19.05182 -14.21326 -14.21130 -14.15837 -10.11022
  Beta  occ. eigenvalues --  -10.09915 -10.09001 -10.08419 -10.07855 -10.07386
  Beta  occ. eigenvalues --  -10.06599 -10.04606 -10.04067 -10.03317 -10.03064
  Beta  occ. eigenvalues --  -10.02791 -10.01555 -10.01318  -1.00264  -0.81021
  Beta  occ. eigenvalues --   -0.78602  -0.73155  -0.71382  -0.70870  -0.64444
  Beta  occ. eigenvalues --   -0.60958  -0.60302  -0.59793  -0.59113  -0.51094
  Beta  occ. eigenvalues --   -0.48846  -0.48094  -0.46370  -0.45713  -0.42335
  Beta  occ. eigenvalues --   -0.40110  -0.38442  -0.36993  -0.35931  -0.35602
  Beta  occ. eigenvalues --   -0.35485  -0.33490  -0.32282  -0.30730  -0.30360
  Beta  occ. eigenvalues --   -0.30257  -0.29876  -0.29210  -0.27092  -0.26343
  Beta  occ. eigenvalues --   -0.26208  -0.24893  -0.24403  -0.24009  -0.23465
  Beta  occ. eigenvalues --   -0.21938  -0.21250  -0.20244  -0.19004  -0.17431
  Beta  occ. eigenvalues --   -0.16615  -0.15071  -0.13460  -0.09090  -0.07135
  Beta virt. eigenvalues --    0.06436   0.06943   0.08112   0.08740   0.08803
  Beta virt. eigenvalues --    0.09188   0.09802   0.10197   0.11441   0.11642
  Beta virt. eigenvalues --    0.12006   0.12243   0.12474   0.12887   0.13271

 Mulliken charges and spin densities:
               1          2
     1  C   -0.674853  -0.001446
     2  C    0.431455   0.005588
     3  C   -0.566000  -0.000504
     4  C   -0.372429  -0.000932
     5  C    0.413503  -0.030818
     6  N   -0.342017   0.103245
     7  O    0.142952   0.049121
     8  C   -0.464889   0.102955
     9  N   -0.010448   0.062260
    10  C   -0.277514   0.112354
    11  C   -0.234553   0.267776
    12  C    1.140482   0.004931
    13  C   -1.263104   0.154834
    14  C   -0.360744  -0.043425
    15  C    0.056120   0.189467
    16  C   -0.297883  -0.006580
    17  C   -0.330231   0.094823
    18  N   -0.326966  -0.000928
    19  H    0.116685  -0.000265
    20  H    0.189779   0.001070
    21  H    0.118331   0.000617
    22  H    0.178210  -0.000387
    23  H    0.124242   0.000194
    24  H    0.122961  -0.000073
    25  H    0.126365  -0.000088
    26  H    0.156140  -0.001201
    27  H    0.152272  -0.000190
    28  H    0.148588  -0.011522
    29  H    0.128720  -0.023054
    30  H    0.033792  -0.012642
    31  H    0.091815  -0.015886
    32  H    0.117982   0.000457
    33  H    0.090489  -0.002745
    34  H    0.221879   0.002395
    35  H    0.218869   0.000600
 Sum of Mulliken charges =  -1.00000   1.00000

 Dipole moment (field-independent basis, Debye):
    X=              2.8003    Y=              3.3853    Z=             -0.3959  Tot=              4.4113
 Quadrupole moment (field-independent basis, Debye-Ang):
   XX=           -162.0762   YY=           -121.4784   ZZ=           -119.7749
   XY=              0.6088   XZ=              7.0400   YZ=             -4.6718

 Summary of Natural Population Analysis:

                                       Natural Population
                Natural  -----------------------------------------------
    Atom  No    Charge         Core      Valence    Rydberg      Total
 -----------------------------------------------------------------------
      C    1   -0.28668      0.99966     2.28165    0.00538     3.28668
      C    2   -0.11258      0.99962     2.10617    0.00679     3.11258
      C    3   -0.28256      0.99966     2.27830    0.00460     3.28256
      C    4   -0.20417      0.99957     2.19559    0.00901     3.20417
      C    5    0.15368      0.99965     1.82663    0.02004     2.84632
      N    6   -0.08198      0.99966     2.57054    0.01178     3.58198
      O    7   -0.16477      0.99985     3.15302    0.01189     4.16477
      C    8    0.29690      0.99960     1.68472    0.01878     2.70310
      N    9   -0.26976      0.99967     2.76111    0.00898     3.76976
      C   10   -0.10835      0.99941     2.10032    0.00862     3.10835
      C   11    0.00067      0.99955     1.99042    0.00935     2.99933
      C   12   -0.02671      0.99953     2.01812    0.00905     3.02671
      C   13   -0.07722      0.99949     2.07021    0.00752     3.07722
      C   14    0.06340      0.99950     1.92715    0.00995     2.93660
      C   15   -0.09019      0.99953     2.08144    0.00922     3.09019
      C   16   -0.11290      0.99960     2.10367    0.00963     3.11290
      C   17   -0.08072      0.99943     2.07229    0.00900     3.08072
      N   18   -0.40595      0.99972     2.89666    0.00957     3.90595
      H   19    0.09313      0.00000     0.40596    0.00091     0.40687
      H   20    0.11011      0.00000     0.38919    0.00070     0.38989
      H   21    0.09287      0.00000     0.40635    0.00078     0.40713
      H   22    0.10089      0.00000     0.39694    0.00217     0.39911
      H   23    0.09277      0.00000     0.40626    0.00097     0.40723
      H   24    0.09656      0.00000     0.40262    0.00082     0.40344
      H   25    0.09504      0.00000     0.40415    0.00081     0.40496
      H   26    0.10282      0.00000     0.39601    0.00117     0.39718
      H   27    0.10238      0.00000     0.39646    0.00116     0.39762
      H   28    0.09528      0.00000     0.40283    0.00189     0.40472
      H   29    0.09015      0.00000     0.40829    0.00156     0.40985
      H   30    0.09092      0.00000     0.40754    0.00154     0.40908
      H   31    0.08559      0.00000     0.41280    0.00160     0.41441
      H   32    0.09066      0.00000     0.40819    0.00116     0.40934
      H   33    0.09245      0.00000     0.40589    0.00166     0.40755
      H   34    0.17804      0.00000     0.32047    0.00149     0.32196
      H   35    0.18022      0.00000     0.31834    0.00144     0.31978
 =======================================================================
   * Total *    0.00000     17.99268    46.80631    0.20101    65.00000

 Normal termination of Gaussian 16 at Fri Dec 11 20:25:15 2020.
