 Gaussian 16, Revision A.03,

 -----------------------------------------------------------
 # opt freq B3LYP/6-31G(d) empiricaldispersion=gd3bj scf=xqc
 -----------------------------------------------------------

 ------------------------------
 CID_54818347_JID_7891_neutraal
 ------------------------------
 Symbolic Z-matrix:
 Charge =  0 Multiplicity = 1

 SCF Done:  E(RB3LYP) =  -766.185933167     A.U. after   15 cycles
 SCF Done:  E(RB3LYP) =  -766.190827906     A.U. after   13 cycles
 SCF Done:  E(RB3LYP) =  -766.189459324     A.U. after   13 cycles
 SCF Done:  E(RB3LYP) =  -766.191762718     A.U. after   13 cycles
 SCF Done:  E(RB3LYP) =  -766.192650610     A.U. after   14 cycles
 SCF Done:  E(RB3LYP) =  -766.193767689     A.U. after   12 cycles
 SCF Done:  E(RB3LYP) =  -766.194108469     A.U. after   12 cycles
 SCF Done:  E(RB3LYP) =  -766.194420817     A.U. after   12 cycles
 SCF Done:  E(RB3LYP) =  -766.194540784     A.U. after   11 cycles
 SCF Done:  E(RB3LYP) =  -766.194690902     A.U. after   12 cycles
 SCF Done:  E(RB3LYP) =  -766.202978164     A.U. after    9 cycles
 SCF Done:  E(RB3LYP) =  -766.202978734     A.U. after    8 cycles
 SCF Done:  E(RB3LYP) =  -766.202978809     A.U. after    7 cycles
 SCF Done:  E(RB3LYP) =  -766.202978833     A.U. after    7 cycles
 SCF Done:  E(RB3LYP) =  -766.202978840     A.U. after    6 cycles
 Optimization completed.
    -- Stationary point found.
 Normal termination of Gaussian 16 at Fri Dec 11 13:52:17 2020.

 --------------------------------------------------------------------
 #N Geom=AllCheck Guess=TCheck SCRF=Check GenChk RB3LYP/6-31G(d) Freq
 --------------------------------------------------------------------

 Structure from the checkpoint file:  "JID_7891.chk"
 ------------------------------
 CID_54818347_JID_7891_neutraal
 ------------------------------
 Charge =  0 Multiplicity = 1

 SCF Done:  E(RB3LYP) =  -766.202978840     A.U. after    1 cycles

  Exact polarizability: 236.733   8.660 147.839  13.859 -13.375 100.182
 Approx polarizability: 300.948  22.471 236.936  31.705 -28.185 157.218

                      1                      2                      3
                      A                      A                      A
 Frequencies --     21.4462                30.6846                45.6798
 Red. masses --      4.3802                 3.8304                 3.9491
 Frc consts  --      0.0012                 0.0021                 0.0049
 IR Inten    --      0.5247                 1.2060                 0.2324

                      4                      5                      6
                      A                      A                      A
 Frequencies --     55.9702                71.8097                78.2344
 Red. masses --      2.9040                 3.8765                 4.6361
 Frc consts  --      0.0054                 0.0118                 0.0167
 IR Inten    --      0.4973                 0.1838                 1.6149

                      7                      8                      9
                      A                      A                      A
 Frequencies --     85.3648               134.2277               140.4967
 Red. masses --      3.8939                 3.1469                 3.3994
 Frc consts  --      0.0167                 0.0334                 0.0395
 IR Inten    --      2.8951                 2.1306                 1.8199

                     10                     11                     12
                      A                      A                      A
 Frequencies --    188.7174               192.1883               223.2029
 Red. masses --      4.2650                 1.5224                 2.4248
 Frc consts  --      0.0895                 0.0331                 0.0712
 IR Inten    --      5.1628                 1.1341                 0.8432

                     13                     14                     15
                      A                      A                      A
 Frequencies --    265.0367               277.8922               331.6296
 Red. masses --      2.3341                 2.6180                 4.9307
 Frc consts  --      0.0966                 0.1191                 0.3195
 IR Inten    --      4.6358                 0.9777                 2.3725

                     16                     17                     18
                      A                      A                      A
 Frequencies --    354.3119               370.6028               384.5846
 Red. masses --      2.2851                 3.3733                 4.2601
 Frc consts  --      0.1690                 0.2730                 0.3712
 IR Inten    --      0.3695                 1.8686                 7.1609

                     19                     20                     21
                      A                      A                      A
 Frequencies --    422.3828               433.8288               464.1995
 Red. masses --      4.2092                 3.4042                 1.9833
 Frc consts  --      0.4424                 0.3775                 0.2518
 IR Inten    --      3.1906                 0.5762                 0.5248

                     22                     23                     24
                      A                      A                      A
 Frequencies --    503.3926               534.8399               555.9067
 Red. masses --      3.1399                 2.9379                 1.8173
 Frc consts  --      0.4688                 0.4952                 0.3309
 IR Inten    --      2.5936                 9.2836                23.4437

                     25                     26                     27
                      A                      A                      A
 Frequencies --    574.4339               607.5754               657.9148
 Red. masses --      1.8952                 4.5451                 5.7768
 Frc consts  --      0.3685                 0.9885                 1.4732
 IR Inten    --     57.8788                25.7430                 2.8466

                     28                     29                     30
                      A                      A                      A
 Frequencies --    675.7166               708.8992               724.4049
 Red. masses --      2.0484                 3.3389                 4.1118
 Frc consts  --      0.5510                 0.9886                 1.2713
 IR Inten    --     18.2657                33.8783                 6.7917

                     31                     32                     33
                      A                      A                      A
 Frequencies --    783.7011               820.6907               826.5429
 Red. masses --      3.3017                 1.3722                 1.4395
 Frc consts  --      1.1948                 0.5445                 0.5794
 IR Inten    --     13.4279                61.9448                23.7208

                     34                     35                     36
                      A                      A                      A
 Frequencies --    830.0259               862.2136               874.3157
 Red. masses --      1.2499                 1.8470                 2.7265
 Frc consts  --      0.5073                 0.8090                 1.2280
 IR Inten    --      5.9237                27.3374                26.9057

                     37                     38                     39
                      A                      A                      A
 Frequencies --    910.6406               920.8087               932.9842
 Red. masses --      1.5933                 2.3639                 1.4468
 Frc consts  --      0.7785                 1.1809                 0.7420
 IR Inten    --      5.2461                12.5229                 0.4264

                     40                     41                     42
                      A                      A                      A
 Frequencies --    941.1943               947.5104               951.5405
 Red. masses --      2.2204                 2.0368                 1.6783
 Frc consts  --      1.1589                 1.0774                 0.8953
 IR Inten    --      5.0044                 7.3309                33.2126

                     43                     44                     45
                      A                      A                      A
 Frequencies --   1003.5899              1011.5058              1033.9076
 Red. masses --      1.3140                 1.9085                 1.1008
 Frc consts  --      0.7797                 1.1505                 0.6933
 IR Inten    --      1.3677                47.5068                15.1748

                     46                     47                     48
                      A                      A                      A
 Frequencies --   1036.8259              1075.9680              1090.2486
 Red. masses --      2.5507                 3.9301                 1.7143
 Frc consts  --      1.6156                 2.6807                 1.2006
 IR Inten    --      0.3642                52.7064                36.5895

                     49                     50                     51
                      A                      A                      A
 Frequencies --   1130.9827              1137.1450              1152.4634
 Red. masses --      2.0433                 3.8307                 1.3356
 Frc consts  --      1.5399                 2.9185                 1.0451
 IR Inten    --     48.3546                34.7001                 5.4053

                     52                     53                     54
                      A                      A                      A
 Frequencies --   1174.3870              1205.3876              1212.7783
 Red. masses --      1.8405                 1.6155                 1.1694
 Frc consts  --      1.4956                 1.3830                 1.0134
 IR Inten    --     10.4565                 8.8301                40.6028

                     55                     56                     57
                      A                      A                      A
 Frequencies --   1230.1539              1264.9765              1291.8554
 Red. masses --      1.4285                 2.0381                 3.2407
 Frc consts  --      1.2737                 1.9215                 3.1865
 IR Inten    --      3.6513               142.3217               240.8515

                     58                     59                     60
                      A                      A                      A
 Frequencies --   1322.1042              1330.0738              1333.7003
 Red. masses --      1.2271                 1.5212                 1.4320
 Frc consts  --      1.2638                 1.5856                 1.5008
 IR Inten    --      0.2228                34.1085                 5.7333

                     61                     62                     63
                      A                      A                      A
 Frequencies --   1350.3206              1357.1410              1363.3676
 Red. masses --      1.4404                 2.6180                 1.5122
 Frc consts  --      1.5475                 2.8410                 1.6560
 IR Inten    --      6.3013               110.0647                91.0382

                     64                     65                     66
                      A                      A                      A
 Frequencies --   1380.8048              1421.3424              1429.4834
 Red. masses --      1.2679                 1.2684                 1.8447
 Frc consts  --      1.4242                 1.5097                 2.2209
 IR Inten    --      2.3968                 0.3912               148.2304

                     67                     68                     69
                      A                      A                      A
 Frequencies --   1443.6736              1454.3928              1476.4528
 Red. masses --      1.3011                 2.6929                 1.1810
 Frc consts  --      1.5977                 3.3561                 1.5168
 IR Inten    --     20.4749                 9.8398                 6.1110

                     70                     71                     72
                      A                      A                      A
 Frequencies --   1499.5583              1502.0092              1516.4819
 Red. masses --      2.4578                 1.1029                 1.2230
 Frc consts  --      3.2562                 1.4660                 1.6571
 IR Inten    --     27.9397                 4.2952                10.2597

                     73                     74                     75
                      A                      A                      A
 Frequencies --   1516.8643              1531.8804              1538.2008
 Red. masses --      1.0590                 1.0515                 1.0887
 Frc consts  --      1.4356                 1.4538                 1.5178
 IR Inten    --      6.4522                 2.9596                20.2588

                     76                     77                     78
                      A                      A                      A
 Frequencies --   1547.6770              1568.0548              1636.8763
 Red. masses --      1.1056                 2.5343                 6.4098
 Frc consts  --      1.5602                 3.6714                10.1187
 IR Inten    --      9.7833               302.7737                12.4249

                     79                     80                     81
                      A                      A                      A
 Frequencies --   1679.2242              1729.7930              1784.3958
 Red. masses --      5.8062                 4.4044                 8.0002
 Frc consts  --      9.6463                 7.7647                15.0083
 IR Inten    --     15.2073                 1.7354               477.9969

                     82                     83                     84
                      A                      A                      A
 Frequencies --   3006.7639              3034.1356              3046.1942
 Red. masses --      1.0694                 1.0622                 1.0679
 Frc consts  --      5.6964                 5.7613                 5.8385
 IR Inten    --     44.7798                24.4629                43.6594

                     85                     86                     87
                      A                      A                      A
 Frequencies --   3061.9024              3082.6469              3109.2842
 Red. masses --      1.0362                 1.1017                 1.0917
 Frc consts  --      5.7238                 6.1682                 6.2183
 IR Inten    --     16.5128                24.9319                22.4066

                     88                     89                     90
                      A                      A                      A
 Frequencies --   3112.9891              3131.3220              3145.8010
 Red. masses --      1.0980                 1.1011                 1.1034
 Frc consts  --      6.2692                 6.3608                 6.4334
 IR Inten    --     15.7147                32.3835                41.2973

                     91                     92                     93
                      A                      A                      A
 Frequencies --   3150.9025              3161.0971              3191.1707
 Red. masses --      1.0601                 1.0901                 1.0898
 Frc consts  --      6.2013                 6.4181                 6.5389
 IR Inten    --     21.7749                 6.8235                12.7594

                     94                     95                     96
                      A                      A                      A
 Frequencies --   3193.7014              3216.1935              3232.0283
 Red. masses --      1.0917                 1.0930                 1.0912
 Frc consts  --      6.5605                 6.6609                 6.7162
 IR Inten    --     12.4230                 7.0348                14.7908

                     97                     98                     99
                      A                      A                      A
 Frequencies --   3234.3374              3487.3124              3572.6849
 Red. masses --      1.1153                 1.0738                 1.0752
 Frc consts  --      6.8738                 7.6940                 8.0857
 IR Inten    --     19.5195                 1.8570                22.2681

 - Thermochemistry -
 -------------------
 Temperature   298.150 Kelvin.  Pressure   1.00000 Atm.
 Atom     1 has atomic number  6 and mass  12.00000

 Molecular mass:   234.13683 amu.
 Principal axes and moments of inertia in atomic units:
                           1         2         3
     Eigenvalues --  2021.801419702.12209**********
           X            0.99991  -0.01305  -0.00084
           Y            0.01304   0.99988  -0.00890
           Z            0.00096   0.00889   0.99996
 This molecule is an asymmetric top.
 Rotational symmetry number  1.
 Warning -- assumption of classical behavior for rotation
           may cause significant error
 Rotational temperatures (Kelvin)      0.04284     0.00893     0.00765
 Rotational constants (GHZ):           0.89264     0.18602     0.15938
 Zero-point vibrational energy     781486.0 (Joules/Mol)
                                  186.77964 (Kcal/Mol)
 Warning -- explicit consideration of  26 degrees of freedom as
           vibrations may cause significant error
 Vibrational temperatures:     30.86    44.15    65.72    80.53   103.32
          (Kelvin)            112.56   122.82   193.12   202.14   271.52
                              276.52   321.14   381.33   399.82   477.14
                              509.78   533.21   553.33   607.71   624.18
                              667.88   724.27   769.52   799.83   826.48
                              874.17   946.59   972.21  1019.95  1042.26
                             1127.57  1180.79  1189.21  1194.22  1240.53
                             1257.95  1310.21  1324.84  1342.36  1354.17
                             1363.26  1369.05  1443.94  1455.33  1487.56
                             1491.76  1548.08  1568.62  1627.23  1636.10
                             1658.14  1689.68  1734.28  1744.92  1769.92
                             1820.02  1858.69  1902.21  1913.68  1918.90
                             1942.81  1952.62  1961.58  1986.67  2044.99
                             2056.71  2077.12  2092.55  2124.29  2157.53
                             2161.06  2181.88  2182.43  2204.03  2213.13
                             2226.76  2256.08  2355.10  2416.03  2488.79
                             2567.35  4326.06  4365.44  4382.79  4405.39
                             4435.24  4473.57  4478.90  4505.27  4526.11
                             4533.45  4548.11  4591.38  4595.02  4627.39
                             4650.17  4653.49  5017.46  5140.30

 Zero-point correction=                           0.297652 (Hartree/Particle)
 Thermal correction to Energy=                    0.314986
 Thermal correction to Enthalpy=                  0.315930
 Thermal correction to Gibbs Free Energy=         0.249937
 Sum of electronic and zero-point Energies=           -765.905327
 Sum of electronic and thermal Energies=              -765.887993
 Sum of electronic and thermal Enthalpies=            -765.887049
 Sum of electronic and thermal Free Energies=         -765.953041

                     E (Thermal)             CV                S
                      KCal/Mol        Cal/Mol-Kelvin    Cal/Mol-Kelvin
 Total                  197.657             64.194            138.894
 Electronic               0.000              0.000              0.000
 Translational            0.889              2.981             42.254
 Rotational               0.889              2.981             33.762
 Vibrational            195.879             58.233             62.878
 Vibration     1          0.593              1.985              6.496
 Vibration     2          0.594              1.984              5.785
 Vibration     3          0.595              1.979              4.996
 Vibration     4          0.596              1.975              4.594
 Vibration     5          0.598              1.967              4.103
 Vibration     6          0.600              1.964              3.935
 Vibration     7          0.601              1.959              3.764
 Vibration     8          0.613              1.919              2.885
 Vibration     9          0.615              1.913              2.797
 Vibration    10          0.633              1.855              2.240
 Vibration    11          0.634              1.851              2.207
 Vibration    12          0.649              1.806              1.933
 Vibration    13          0.671              1.737              1.628
 Vibration    14          0.679              1.714              1.547
 Vibration    15          0.714              1.612              1.252
 Vibration    16          0.730              1.566              1.147
 Vibration    17          0.743              1.533              1.077
 Vibration    18          0.754              1.503              1.021
 Vibration    19          0.785              1.422              0.884
 Vibration    20          0.795              1.397              0.846
 Vibration    21          0.822              1.329              0.754
 Vibration    22          0.859              1.242              0.650
 Vibration    23          0.890              1.173              0.576
 Vibration    24          0.911              1.127              0.532
 Vibration    25          0.931              1.087              0.496
 Vibration    26          0.966              1.016              0.437

 Optimization completed.
    -- Stationary point found.
 Normal termination of Gaussian 16 at Fri Dec 11 14:02:01 2020.

 ----------------------------------------------------------------------
 # B3LYP/6-311++G(d,p) empiricaldispersion=gd3bj scf=xqc pop=npa geom=c
 heck
 ----------------------------------------------------------------------

 --------------------------------------
 CID_54818347_JID_7891_Energie_neutraal
 --------------------------------------
 Structure from the checkpoint file:  "JID_7891.chk"
 Charge =  0 Multiplicity = 1

 SCF Done:  E(RB3LYP) =  -766.424777704     A.U. after   16 cycles
 Normal termination of Gaussian 16 at Fri Dec 11 14:06:40 2020.

 ----------------------------------------------------------------------
 # B3LYP/6-311++G(d,p) empiricaldispersion=gd3bj scf=xqc pop=npa geom=c
 heck
 ----------------------------------------------------------------------

 ------------------------------------
 CID_54818347_JID_7891_Energie_kation
 ------------------------------------
 Structure from the checkpoint file:  "JID_7891.chk"
 Charge =  1 Multiplicity = 2

 SCF Done:  E(UB3LYP) =  -766.144649585     A.U. after   23 cycles
 Normal termination of Gaussian 16 at Fri Dec 11 14:15:46 2020.
 Gaussian 16:  ES64L-G16RevA.03 25-Dec-2016

 ----------------------------------------------------------------------
 # B3LYP/6-311++G(d,p) empiricaldispersion=gd3bj scf=xqc pop=npa geom=c
 heck
 ----------------------------------------------------------------------

 -----------------------------------
 CID_54818347_JID_7891_Energie_anion
 -----------------------------------
 Structure from the checkpoint file:  "JID_7891.chk"
 Charge = -1 Multiplicity = 2

                         Standard orientation:
 ---------------------------------------------------------------------
 Center     Atomic      Atomic             Coordinates (Angstroms)
 Number     Number       Type             X           Y           Z
 ---------------------------------------------------------------------
      1          6           0       -5.796336   -0.389969    0.461416
      2          6           0       -4.979315   -1.197998   -0.539951
      3          8           0       -3.685162   -1.537229   -0.039878
      4          6           0       -2.703087   -0.589033   -0.023920
      5          6           0       -2.813847    0.698973   -0.561293
      6          6           0       -1.720474    1.564669   -0.515976
      7          6           0       -0.520264    1.176830    0.081432
      8          6           0       -0.422278   -0.103962    0.646216
      9          6           0       -1.497225   -0.979187    0.575535
     10          7           0        0.553297    2.103083    0.146526
     11          6           0        1.901568    1.890203    0.000934
     12          8           0        2.713421    2.762155    0.288248
     13          6           0        2.373518    0.544362   -0.536883
     14          7           0        2.870230   -0.243172    0.593419
     15          6           0        3.408335   -1.560150    0.223554
     16          6           0        4.677515   -1.528325   -0.589914
     17          6           0        5.842167   -2.024934   -0.172378
     18          1           0       -5.892488   -0.943102    1.400773
     19          1           0       -6.800274   -0.202057    0.064281
     20          1           0       -5.327625    0.573787    0.680511
     21          1           0       -5.456285   -2.163152   -0.730508
     22          1           0       -4.889543   -0.679626   -1.503461
     23          1           0       -3.731710    1.037421   -1.026062
     24          1           0       -1.803022    2.555009   -0.955561
     25          1           0        0.501971   -0.400026    1.134538
     26          1           0       -1.431943   -1.975720    1.000150
     27          1           0        0.340153    3.045071    0.455742
     28          1           0        1.566344   -0.012578   -1.020944
     29          1           0        3.137520    0.774334   -1.295551
     30          1           0        3.595722    0.301076    1.059566
     31          1           0        3.582632   -2.121704    1.149063
     32          1           0        2.614528   -2.086248   -0.324772
     33          1           0        4.622053   -1.046463   -1.565883
     34          1           0        6.743606   -1.969238   -0.776615
     35          1           0        5.935932   -2.514448    0.795528
 ---------------------------------------------------------------------

 SCF Done:  E(UB3LYP) =  -766.414230383     A.U. after   33 cycles
 SCF Done:  E(UB3LYP) =  -766.414230382     a.u. after    1 cycles

 The electronic state is 2-A.
 Alpha  occ. eigenvalues --  -19.05833 -19.00215 -14.25660 -14.22754 -10.18547
 Alpha  occ. eigenvalues --  -10.14151 -10.13292 -10.12324 -10.12079 -10.11820
 Alpha  occ. eigenvalues --  -10.09917 -10.09220 -10.08618 -10.08424 -10.08316
 Alpha  occ. eigenvalues --  -10.08096 -10.07044  -0.97412  -0.95441  -0.84747
 Alpha  occ. eigenvalues --   -0.83295  -0.75828  -0.70808  -0.68314  -0.66147
 Alpha  occ. eigenvalues --   -0.64472  -0.63444  -0.57586  -0.56051  -0.53075
 Alpha  occ. eigenvalues --   -0.51323  -0.48986  -0.48335  -0.45412  -0.43725
 Alpha  occ. eigenvalues --   -0.42712  -0.40175  -0.39232  -0.38663  -0.37277
 Alpha  occ. eigenvalues --   -0.36268  -0.35962  -0.35111  -0.34330  -0.33294
 Alpha  occ. eigenvalues --   -0.32423  -0.31908  -0.31494  -0.30446  -0.30056
 Alpha  occ. eigenvalues --   -0.29300  -0.28822  -0.28367  -0.27950  -0.26123
 Alpha  occ. eigenvalues --   -0.24139  -0.23264  -0.19988  -0.19064  -0.17499
 Alpha  occ. eigenvalues --   -0.16904  -0.15458  -0.12226   0.03989
 Alpha virt. eigenvalues --    0.05261   0.06119   0.06472   0.06902   0.07153
 Alpha virt. eigenvalues --    0.07458   0.07619   0.08315   0.08527   0.08909
 Alpha virt. eigenvalues --    0.09551   0.09915   0.10320   0.10752   0.11024

  Beta  occ. eigenvalues --  -19.05832 -19.00180 -14.25663 -14.22745 -10.18503
  Beta  occ. eigenvalues --  -10.14116 -10.13265 -10.12320 -10.12048 -10.11814
  Beta  occ. eigenvalues --  -10.09880 -10.09181 -10.08579 -10.08422 -10.08306
  Beta  occ. eigenvalues --  -10.08082 -10.07005  -0.97391  -0.95373  -0.84705
  Beta  occ. eigenvalues --   -0.83275  -0.75782  -0.70733  -0.68257  -0.66099
  Beta  occ. eigenvalues --   -0.64408  -0.63392  -0.57525  -0.55984  -0.53013
  Beta  occ. eigenvalues --   -0.51246  -0.48899  -0.48273  -0.45365  -0.43687
  Beta  occ. eigenvalues --   -0.42672  -0.40133  -0.39168  -0.38613  -0.37239
  Beta  occ. eigenvalues --   -0.36218  -0.35891  -0.35056  -0.34284  -0.33255
  Beta  occ. eigenvalues --   -0.32381  -0.31876  -0.31392  -0.30404  -0.29997
  Beta  occ. eigenvalues --   -0.29255  -0.28770  -0.28317  -0.27861  -0.26083
  Beta  occ. eigenvalues --   -0.24031  -0.23229  -0.19795  -0.18996  -0.17465
  Beta  occ. eigenvalues --   -0.16814  -0.15426  -0.12102
  Beta virt. eigenvalues --    0.05574   0.06361   0.06657   0.06807   0.07187
  Beta virt. eigenvalues --    0.07464   0.07619   0.08008   0.08671   0.09053
  Beta virt. eigenvalues --    0.09090   0.09690   0.10184   0.10621   0.10834

 Mulliken charges and spin densities:
               1          2
     1  C    1.115462  -1.495493
     2  C   -0.222745  -0.001162
     3  O   -0.104991   0.008044
     4  C   -0.580095   0.052745
     5  C    1.597735  -1.315485
     6  C   -0.804910   0.613860
     7  C    1.372901  -1.792521
     8  C    0.744548  -0.467638
     9  C   -1.766300   1.515928
    10  N   -0.195396   0.050677
    11  C   -0.227236   0.147469
    12  O   -0.348631   0.025703
    13  C   -0.051645  -0.403992
    14  N   -0.080890   0.057388
    15  C    0.160702  -0.619448
    16  C   -0.314499   0.686277
    17  C   -0.018432  -0.521124
    18  H   -0.012884   0.159460
    19  H   -0.464073   0.600816
    20  H   -0.184475   0.319879
    21  H   -0.454311   0.639279
    22  H   -0.137309   0.270734
    23  H   -0.334485   0.546190
    24  H   -0.661348   0.847427
    25  H    0.286987   0.001467
    26  H    0.018615   0.163953
    27  H    0.114662   0.200102
    28  H    0.247381  -0.073620
    29  H    0.070908   0.094215
    30  H    0.244934  -0.004198
    31  H    0.039687   0.128203
    32  H    0.075370   0.061968
    33  H   -0.074547   0.226305
    34  H   -0.045757   0.171190
    35  H   -0.004932   0.105401
 Sum of Mulliken charges =  -1.00000   1.00000

 Dipole moment (field-independent basis, Debye):
    X=              7.0675    Y=             -2.6672    Z=              1.1609  Tot=              7.6427
 Quadrupole moment (field-independent basis, Debye-Ang):
   XX=           -239.8305   YY=           -153.2650   ZZ=           -126.8962
   XY=             -2.4264   XZ=             -5.3910   YZ=             -0.2222

 Summary of Natural Population Analysis:

                                       Natural Population
                Natural  -----------------------------------------------
    Atom  No    Charge         Core      Valence    Rydberg      Total
 -----------------------------------------------------------------------
      C    1   -0.30053      0.99966     2.29596    0.00490     3.30053
      C    2   -0.01176      0.99958     1.99985    0.01233     3.01176
      O    3   -0.27741      0.99986     3.26799    0.00957     4.27741
      C    4    0.16395      0.99938     1.82278    0.01389     2.83605
      C    5   -0.13942      0.99952     2.13097    0.00893     3.13942
      C    6   -0.09144      0.99953     2.08156    0.01035     3.09144
      C    7    0.05618      0.99945     1.93317    0.01119     2.94382
      C    8   -0.10945      0.99952     2.10191    0.00802     3.10945
      C    9   -0.11414      0.99953     2.10594    0.00866     3.11414
      N   10   -0.30963      0.99964     2.80013    0.00986     3.80963
      C   11    0.34806      0.99968     1.63001    0.02225     2.65194
      O   12   -0.32289      0.99988     3.31696    0.00605     4.32289
      C   13   -0.13121      0.99959     2.12205    0.00957     3.13121
      N   14   -0.33455      0.99975     2.82453    0.01027     3.83455
      C   15   -0.10451      0.99961     2.09336    0.01154     3.10451
      C   16   -0.09107      0.99957     2.08280    0.00870     3.09107
      C   17   -0.18599      0.99957     2.17904    0.00738     3.18599
      H   18    0.09989      0.00000     0.39909    0.00101     0.40011
      H   19    0.10527      0.00000     0.39259    0.00214     0.39473
      H   20    0.10256      0.00000     0.39588    0.00155     0.39744
      H   21    0.09181      0.00000     0.40675    0.00144     0.40819
      H   22    0.08488      0.00000     0.41315    0.00197     0.41512
      H   23    0.10935      0.00000     0.38880    0.00185     0.39065
      H   24    0.10474      0.00000     0.39355    0.00171     0.39526
      H   25    0.11552      0.00000     0.38227    0.00221     0.38448
      H   26    0.10470      0.00000     0.39396    0.00134     0.39530
      H   27    0.19870      0.00000     0.29853    0.00277     0.30130
      H   28    0.10185      0.00000     0.39674    0.00142     0.39815
      H   29    0.09390      0.00000     0.40456    0.00155     0.40610
      H   30    0.17714      0.00000     0.31978    0.00307     0.32286
      H   31    0.09494      0.00000     0.40378    0.00129     0.40506
      H   32    0.09713      0.00000     0.40140    0.00147     0.40287
      H   33    0.09256      0.00000     0.40619    0.00125     0.40744
      H   34    0.09301      0.00000     0.40584    0.00115     0.40699
      H   35    0.08785      0.00000     0.41070    0.00145     0.41215
 =======================================================================
   * Total *   -0.00000     16.99332    45.80255    0.20412    63.00000

 Normal termination of Gaussian 16 at Fri Dec 11 14:29:00 2020.
