 Gaussian 16, Revision A.03,

 -----------------------------------------------------------
 # opt freq B3LYP/6-31G(d) empiricaldispersion=gd3bj scf=xqc
 -----------------------------------------------------------

 ------------------------------
 CID_79599315_JID_4064_neutraal
 ------------------------------
 Symbolic Z-matrix:
 Charge =  0 Multiplicity = 1

 SCF Done:  E(RB3LYP) =  -565.196587013     A.U. after   13 cycles
 SCF Done:  E(RB3LYP) =  -565.199230366     A.U. after   11 cycles
 SCF Done:  E(RB3LYP) =  -565.199691633     A.U. after   10 cycles
 SCF Done:  E(RB3LYP) =  -565.199842269     A.U. after   10 cycles
 SCF Done:  E(RB3LYP) =  -565.199878058     A.U. after   10 cycles
 SCF Done:  E(RB3LYP) =  -565.199911668     A.U. after   10 cycles
 SCF Done:  E(RB3LYP) =  -565.199924458     A.U. after    9 cycles
 SCF Done:  E(RB3LYP) =  -565.199928744     A.U. after    9 cycles
 SCF Done:  E(RB3LYP) =  -565.199930004     A.U. after    9 cycles
 SCF Done:  E(RB3LYP) =  -565.199930844     A.U. after    8 cycles
 SCF Done:  E(RB3LYP) =  -565.199931089     A.U. after    7 cycles
 Optimization completed.
    -- Stationary point found.
 Normal termination of Gaussian 16 at Thu Dec 10 09:15:28 2020.

 --------------------------------------------------------------------
 #N Geom=AllCheck Guess=TCheck SCRF=Check GenChk RB3LYP/6-31G(d) Freq
 --------------------------------------------------------------------

 Structure from the checkpoint file:  "JID_4064.chk"
 ------------------------------
 CID_79599315_JID_4064_neutraal
 ------------------------------
 Charge =  0 Multiplicity = 1

 SCF Done:  E(RB3LYP) =  -565.199931089     A.U. after    1 cycles

  Exact polarizability: 183.841   2.887 133.477  -2.562   3.982 118.018
 Approx polarizability: 221.232   3.933 186.309  -0.153   5.292 174.029

                      1                      2                      3
                      A                      A                      A
 Frequencies --     11.2936                25.3302                35.8370
 Red. masses --      4.0702                 3.4399                 2.5222
 Frc consts  --      0.0003                 0.0013                 0.0019
 IR Inten    --      0.0046                 0.0370                 0.0884

                      4                      5                      6
                      A                      A                      A
 Frequencies --     45.3166                64.3649                83.5898
 Red. masses --      3.2600                 2.7025                 3.3407
 Frc consts  --      0.0039                 0.0066                 0.0138
 IR Inten    --      0.0363                 0.0813                 0.3711

                      7                      8                      9
                      A                      A                      A
 Frequencies --    117.7365               135.5716               144.2650
 Red. masses --      2.4981                 2.6769                 2.6053
 Frc consts  --      0.0204                 0.0290                 0.0319
 IR Inten    --      0.1873                 0.4135                 0.3998

                     10                     11                     12
                      A                      A                      A
 Frequencies --    212.8244               224.2342               231.8226
 Red. masses --      2.3557                 1.7594                 1.2562
 Frc consts  --      0.0629                 0.0521                 0.0398
 IR Inten    --      0.6455                 0.5005                 0.4852

                     13                     14                     15
                      A                      A                      A
 Frequencies --    256.8896               269.7984               291.3661
 Red. masses --      1.4057                 1.7871                 2.1215
 Frc consts  --      0.0547                 0.0766                 0.1061
 IR Inten    --      0.7850                 3.5175                 2.0750

                     16                     17                     18
                      A                      A                      A
 Frequencies --    324.4659               350.4352               381.2880
 Red. masses --      2.9130                 2.2467                 2.1366
 Frc consts  --      0.1807                 0.1626                 0.1830
 IR Inten    --      0.0630                 0.2271                 2.1057

                     19                     20                     21
                      A                      A                      A
 Frequencies --    387.6803               441.7070               452.0342
 Red. masses --      2.1066                 2.0014                 2.6505
 Frc consts  --      0.1865                 0.2301                 0.3191
 IR Inten    --      0.3255                 1.2799                 0.9296

                     22                     23                     24
                      A                      A                      A
 Frequencies --    487.7243               512.1788               577.8259
 Red. masses --      2.1472                 2.2821                 2.8187
 Frc consts  --      0.3009                 0.3527                 0.5545
 IR Inten    --      0.6289                 1.4655                 1.3897

                     25                     26                     27
                      A                      A                      A
 Frequencies --    753.2357               767.2560               786.1012
 Red. masses --      1.6756                 1.3965                 1.1066
 Frc consts  --      0.5601                 0.4844                 0.4029
 IR Inten    --     16.1784                62.9378                12.7917

                     28                     29                     30
                      A                      A                      A
 Frequencies --    815.4986               833.9404               837.8702
 Red. masses --      1.7698                 2.1527                 1.4332
 Frc consts  --      0.6935                 0.8821                 0.5928
 IR Inten    --     18.1008                 1.8325                 8.7751

                     31                     32                     33
                      A                      A                      A
 Frequencies --    845.5118               878.9368               893.2622
 Red. masses --      1.6885                 1.8756                 2.0257
 Frc consts  --      0.7112                 0.8537                 0.9523
 IR Inten    --      9.7353                 5.2845                 8.2149

                     34                     35                     36
                      A                      A                      A
 Frequencies --    911.8084               927.3299               941.8300
 Red. masses --      1.9134                 1.7616                 1.1942
 Frc consts  --      0.9373                 0.8925                 0.6241
 IR Inten    --      1.8047                 9.5488                 1.9976

                     37                     38                     39
                      A                      A                      A
 Frequencies --    946.1867               970.8456               980.6538
 Red. masses --      2.9506                 1.4868                 1.6204
 Frc consts  --      1.5564                 0.8257                 0.9181
 IR Inten    --      8.5092                 4.2821                 1.4931

                     40                     41                     42
                      A                      A                      A
 Frequencies --    991.0902              1015.3101              1027.6474
 Red. masses --      1.6982                 1.7955                 1.2998
 Frc consts  --      0.9828                 1.0905                 0.8088
 IR Inten    --      0.8580                 4.1472                13.0771

                     43                     44                     45
                      A                      A                      A
 Frequencies --   1036.4413              1063.9559              1081.5664
 Red. masses --      1.6290                 1.4174                 1.4639
 Frc consts  --      1.0310                 0.9454                 1.0090
 IR Inten    --     12.6321                 6.5494                 1.7083

                     46                     47                     48
                      A                      A                      A
 Frequencies --   1083.0319              1103.1931              1120.1385
 Red. masses --      1.8552                 2.9713                 2.4516
 Frc consts  --      1.2821                 2.1306                 1.8123
 IR Inten    --      0.3211                15.1429                15.0851

                     49                     50                     51
                      A                      A                      A
 Frequencies --   1146.8961              1159.6212              1163.5397
 Red. masses --      1.1759                 1.9520                 1.5627
 Frc consts  --      0.9113                 1.5465                 1.2465
 IR Inten    --      0.7528                19.3831                11.0105

                     52                     53                     54
                      A                      A                      A
 Frequencies --   1170.9692              1187.1701              1207.6277
 Red. masses --      2.3081                 1.7080                 1.7001
 Frc consts  --      1.8646                 1.4183                 1.4608
 IR Inten    --     19.3059                 1.8709                 0.4158

                     55                     56                     57
                      A                      A                      A
 Frequencies --   1211.2643              1217.1596              1237.9212
 Red. masses --      1.4248                 1.4551                 1.6922
 Frc consts  --      1.2316                 1.2701                 1.5279
 IR Inten    --      1.9077                 8.4256                 1.7519

                     58                     59                     60
                      A                      A                      A
 Frequencies --   1257.0757              1264.7523              1290.5347
 Red. masses --      1.3407                 1.3220                 1.3327
 Frc consts  --      1.2482                 1.2460                 1.3077
 IR Inten    --      0.4532                 4.3229                 1.4267

                     61                     62                     63
                      A                      A                      A
 Frequencies --   1326.4229              1340.8333              1342.1227
 Red. masses --      1.3745                 1.2889                 1.2638
 Frc consts  --      1.4248                 1.3653                 1.3412
 IR Inten    --     15.2630                 8.7982                 6.7716

                     64                     65                     66
                      A                      A                      A
 Frequencies --   1350.5014              1369.6454              1378.4198
 Red. masses --      1.2843                 1.2660                 1.3230
 Frc consts  --      1.3800                 1.3993                 1.4811
 IR Inten    --      9.3107                 5.9352                 0.2487

                     67                     68                     69
                      A                      A                      A
 Frequencies --   1389.3467              1391.2764              1407.0402
 Red. masses --      1.3990                 1.2963                 1.3191
 Frc consts  --      1.5911                 1.4784                 1.5387
 IR Inten    --      0.9657                 4.1449                23.2985

                     70                     71                     72
                      A                      A                      A
 Frequencies --   1423.5371              1431.7926              1442.6123
 Red. masses --      1.3218                 1.3505                 1.5927
 Frc consts  --      1.5781                 1.6312                 1.9529
 IR Inten    --      3.0108                 3.7776                 5.1258

                     73                     74                     75
                      A                      A                      A
 Frequencies --   1450.2384              1495.8224              1506.2423
 Red. masses --      1.2482                 1.0898                 1.0882
 Frc consts  --      1.5467                 1.4366                 1.4546
 IR Inten    --      6.8020                 1.2859                 9.4300

                     76                     77                     78
                      A                      A                      A
 Frequencies --   1509.5188              1510.0252              1515.9976
 Red. masses --      1.1072                 1.1335                 1.1109
 Frc consts  --      1.4864                 1.5228                 1.5043
 IR Inten    --      7.9696                 1.7490                 2.9435

                     79                     80                     81
                      A                      A                      A
 Frequencies --   1517.8485              1518.7458              1529.2067
 Red. masses --      1.0751                 1.0904                 1.0757
 Frc consts  --      1.4593                 1.4818                 1.4821
 IR Inten    --      5.0755                12.2940                15.4431

                     82                     83                     84
                      A                      A                      A
 Frequencies --   1535.9699              1538.0802              1539.6122
 Red. masses --      1.0651                 1.3637                 1.0992
 Frc consts  --      1.4805                 1.9007                 1.5351
 IR Inten    --      4.6341                 1.1395                13.5304

                     85                     86                     87
                      A                      A                      A
 Frequencies --   1549.5213              1755.3020              2920.0867
 Red. masses --      1.0563                 6.0143                 1.0722
 Frc consts  --      1.4943                10.9178                 5.3864
 IR Inten    --      6.3532                 0.2311                59.7095

                     88                     89                     90
                      A                      A                      A
 Frequencies --   3025.2379              3027.8255              3033.3006
 Red. masses --      1.0610                 1.0621                 1.0603
 Frc consts  --      5.7213                 5.7367                 5.7482
 IR Inten    --     25.6426                31.3462                25.4354

                     91                     92                     93
                      A                      A                      A
 Frequencies --   3033.8351              3037.3849              3039.1753
 Red. masses --      1.0418                 1.0570                 1.0599
 Frc consts  --      5.6499                 5.7455                 5.7679
 IR Inten    --     22.8733                 8.2672                53.1064

                     94                     95                     96
                      A                      A                      A
 Frequencies --   3043.1617              3052.3079              3064.5670
 Red. masses --      1.0591                 1.0877                 1.0998
 Frc consts  --      5.7788                 5.9705                 6.0855
 IR Inten    --     22.6650                41.6615                33.5164

                     97                     98                     99
                      A                      A                      A
 Frequencies --   3071.9390              3075.2309              3088.1699
 Red. masses --      1.1013                 1.1024                 1.1049
 Frc consts  --      6.1232                 6.1423                 6.2084
 IR Inten    --     23.0540                44.5356                58.0724

                    100                    101                    102
                      A                      A                      A
 Frequencies --   3098.4431              3104.8165              3111.8374
 Red. masses --      1.0995                 1.1000                 1.1022
 Frc consts  --      6.2193                 6.2474                 6.2884
 IR Inten    --     10.5643                71.2968                29.0495

                    103                    104                    105
                      A                      A                      A
 Frequencies --   3114.3429              3126.8978              3138.6624
 Red. masses --      1.1015                 1.0892                 1.0865
 Frc consts  --      6.2944                 6.2746                 6.3061
 IR Inten    --     58.9905                17.3902                35.0116

                    106                    107                    108
                      A                      A                      A
 Frequencies --   3139.9856              3144.7836              3155.2046
 Red. masses --      1.0509                 1.0591                 1.0890
 Frc consts  --      6.1050                 6.1709                 6.3874
 IR Inten    --     24.3775                16.4234                20.3901

                    109                    110                    111
                      A                      A                      A
 Frequencies --   3213.8075              3228.3577              3502.4586
 Red. masses --      1.1191                 1.1157                 1.0730
 Frc consts  --      6.8102                 6.8510                 7.7549
 IR Inten    --      0.4327                29.2083                 0.5833

 - Thermochemistry -
 -------------------
 Temperature   298.150 Kelvin.  Pressure   1.00000 Atm.
 Atom     1 has atomic number  6 and mass  12.00000

 Molecular mass:   195.19870 amu.
 Principal axes and moments of inertia in atomic units:
                           1         2         3
     Eigenvalues --  1404.843488743.766789214.80079
           X            0.99999  -0.00273  -0.00345
           Y            0.00280   0.99979   0.02012
           Z            0.00340  -0.02012   0.99979
 This molecule is an asymmetric top.
 Rotational symmetry number  1.
 Warning -- assumption of classical behavior for rotation
           may cause significant error
 Rotational temperatures (Kelvin)      0.06165     0.00991     0.00940
 Rotational constants (GHZ):           1.28466     0.20640     0.19585
 Zero-point vibrational energy     950135.5 (Joules/Mol)
                                  227.08784 (Kcal/Mol)
 Warning -- explicit consideration of  24 degrees of freedom as
           vibrations may cause significant error
 Vibrational temperatures:     16.25    36.44    51.56    65.20    92.61
          (Kelvin)            120.27   169.40   195.06   207.57   306.21
                              322.62   333.54   369.61   388.18   419.21
                              466.83   504.20   548.59   557.79   635.52
                              650.38   701.73   736.91   831.36  1083.74
                             1103.91  1131.02  1173.32  1199.85  1205.51
                             1216.50  1264.59  1285.21  1311.89  1334.22
                             1355.08  1361.35  1396.83  1410.94  1425.96
                             1460.80  1478.56  1491.21  1530.80  1556.13
                             1558.24  1587.25  1611.63  1650.13  1668.44
                             1674.07  1684.76  1708.07  1737.51  1742.74
                             1751.22  1781.09  1808.65  1819.70  1856.79
                             1908.43  1929.16  1931.02  1943.07  1970.61
                             1983.24  1998.96  2001.74  2024.42  2048.15
                             2060.03  2075.60  2086.57  2152.15  2167.15
                             2171.86  2172.59  2181.18  2183.85  2185.14
                             2200.19  2209.92  2212.95  2215.16  2229.42
                             2525.49  4201.35  4352.64  4356.37  4364.24
                             4365.01  4370.12  4372.70  4378.43  4391.59
                             4409.23  4419.84  4424.57  4443.19  4457.97
                             4467.14  4477.24  4480.84  4498.91  4515.84
                             4517.74  4524.64  4539.64  4623.95  4644.89
                             5039.26

 Zero-point correction=                           0.361888 (Hartree/Particle)
 Thermal correction to Energy=                    0.378881
 Thermal correction to Enthalpy=                  0.379825
 Thermal correction to Gibbs Free Energy=         0.314003
 Sum of electronic and zero-point Energies=           -564.838044
 Sum of electronic and thermal Energies=              -564.821050
 Sum of electronic and thermal Enthalpies=            -564.820106
 Sum of electronic and thermal Free Energies=         -564.885928

                     E (Thermal)             CV                S
                      KCal/Mol        Cal/Mol-Kelvin    Cal/Mol-Kelvin
 Total                  237.751             62.475            138.535
 Electronic               0.000              0.000              0.000
 Translational            0.889              2.981             41.712
 Rotational               0.889              2.981             33.092
 Vibrational            235.974             56.514             63.731
 Vibration     1          0.593              1.987              7.769
 Vibration     2          0.593              1.985              6.165
 Vibration     3          0.594              1.982              5.477
 Vibration     4          0.595              1.979              5.012
 Vibration     5          0.597              1.971              4.319
 Vibration     6          0.600              1.960              3.805
 Vibration     7          0.608              1.935              3.137
 Vibration     8          0.613              1.918              2.865
 Vibration     9          0.616              1.909              2.747
 Vibration    10          0.644              1.821              2.019
 Vibration    11          0.649              1.804              1.925
 Vibration    12          0.653              1.792              1.865
 Vibration    13          0.666              1.751              1.683
 Vibration    14          0.674              1.729              1.597
 Vibration    15          0.687              1.690              1.466
 Vibration    16          0.709              1.627              1.287
 Vibration    17          0.727              1.574              1.164
 Vibration    18          0.751              1.510              1.034
 Vibration    19          0.756              1.496              1.009
 Vibration    20          0.801              1.379              0.821
 Vibration    21          0.811              1.356              0.790
 Vibration    22          0.844              1.277              0.690
 Vibration    23          0.867              1.223              0.628
 Vibration    24          0.934              1.079              0.489

                           ! Non-Optimized Parameters !
 Normal termination of Gaussian 16 at Thu Dec 10 09:24:59 2020.

 ----------------------------------------------------------------------
 # B3LYP/6-311++G(d,p) empiricaldispersion=gd3bj scf=xqc pop=npa geom=c
 heck
 ----------------------------------------------------------------------

 --------------------------------------
 CID_79599315_JID_4064_Energie_neutraal
 --------------------------------------
 Structure from the checkpoint file:  "JID_4064.chk"
 Charge =  0 Multiplicity = 1

 SCF Done:  E(RB3LYP) =  -565.361128878     A.U. after   13 cycles
 Normal termination of Gaussian 16 at Thu Dec 10 09:29:38 2020.

 ----------------------------------------------------------------------
 # B3LYP/6-311++G(d,p) empiricaldispersion=gd3bj scf=xqc pop=npa geom=c
 heck
 ----------------------------------------------------------------------

 ------------------------------------
 CID_79599315_JID_4064_Energie_kation
 ------------------------------------
 Structure from the checkpoint file:  "JID_4064.chk"
 Charge =  1 Multiplicity = 2

 SCF Done:  E(UB3LYP) =  -565.069920002     A.U. after   20 cycles
 Normal termination of Gaussian 16 at Thu Dec 10 09:39:23 2020.
 Gaussian 16:  ES64L-G16RevA.03 25-Dec-2016

 ----------------------------------------------------------------------
 # B3LYP/6-311++G(d,p) empiricaldispersion=gd3bj scf=xqc pop=npa geom=c
 heck
 ----------------------------------------------------------------------

 -----------------------------------
 CID_79599315_JID_4064_Energie_anion
 -----------------------------------
 Structure from the checkpoint file:  "JID_4064.chk"
 Charge = -1 Multiplicity = 2

                         Standard orientation:
 ---------------------------------------------------------------------
 Center     Atomic      Atomic             Coordinates (Angstroms)
 Number     Number       Type             X           Y           Z
 ---------------------------------------------------------------------
      1          6           0        3.409632   -2.070462    0.132679
      2          6           0        4.148189   -0.746617    0.368246
      3          6           0        5.382565   -0.644902   -0.534992
      4          6           0        3.229896    0.462758    0.147204
      5          7           0        2.103287    0.474600    1.074873
      6          6           0        1.299469    1.692877    1.042770
      7          6           0        0.646305    2.060628   -0.314593
      8          6           0       -0.157583    0.927712   -0.887463
      9          6           0       -1.491182    0.854428   -0.891774
     10          6           0       -2.288233   -0.313734   -1.400498
     11          6           0       -2.996678   -1.102306   -0.278191
     12          6           0       -3.984354   -0.273879    0.517169
     13          6           0       -5.351979    0.013800   -0.054106
     14          6           0       -5.203726   -0.917395    1.126217
     15          1           0        2.999456   -2.112823   -0.885584
     16          1           0        2.584787   -2.208103    0.840358
     17          1           0        4.086659   -2.923915    0.252609
     18          1           0        4.472259   -0.716670    1.417171
     19          1           0        5.096414   -0.664107   -1.594621
     20          1           0        5.934368    0.285261   -0.354972
     21          1           0        6.068287   -1.481988   -0.361977
     22          1           0        3.802950    1.383922    0.319077
     23          1           0        2.927282    0.481271   -0.918937
     24          1           0        1.495818   -0.318728    0.881575
     25          1           0        0.504266    1.578201    1.789329
     26          1           0        1.934385    2.526262    1.372053
     27          1           0        0.005347    2.938438   -0.162376
     28          1           0        1.428753    2.359211   -1.025191
     29          1           0        0.410170    0.092509   -1.303260
     30          1           0       -2.062129    1.689327   -0.482012
     31          1           0       -3.051927    0.039815   -2.107919
     32          1           0       -1.628363   -0.993639   -1.954149
     33          1           0       -3.525169   -1.954826   -0.726704
     34          1           0       -2.238430   -1.521093    0.397321
     35          1           0       -3.536429    0.529476    1.098983
     36          1           0       -5.793143    0.992751    0.110928
     37          1           0       -5.598251   -0.425903   -1.017816
     38          1           0       -5.353218   -1.980800    0.955958
     39          1           0       -5.541092   -0.573503    2.100030
 ---------------------------------------------------------------------

 SCF Done:  E(UB3LYP) =  -565.344817698     A.U. after   33 cycles
 SCF Done:  E(UB3LYP) =  -565.344817698     a.u. after    1 cycles

 The electronic state is 2-A.
 Alpha  occ. eigenvalues --  -14.20364 -10.10274 -10.09577 -10.08732 -10.08167
 Alpha  occ. eigenvalues --  -10.08059 -10.08058 -10.08011 -10.07965 -10.07944
 Alpha  occ. eigenvalues --  -10.07924 -10.07824 -10.06489 -10.06466  -0.81647
 Alpha  occ. eigenvalues --   -0.77311  -0.72095  -0.70508  -0.67253  -0.62233
 Alpha  occ. eigenvalues --   -0.59311  -0.57970  -0.54844  -0.51341  -0.50984
 Alpha  occ. eigenvalues --   -0.47944  -0.47115  -0.45318  -0.40887  -0.40723
 Alpha  occ. eigenvalues --   -0.38451  -0.37321  -0.36768  -0.35423  -0.34333
 Alpha  occ. eigenvalues --   -0.33938  -0.32665  -0.31547  -0.30633  -0.30275
 Alpha  occ. eigenvalues --   -0.29447  -0.28931  -0.28043  -0.27684  -0.27003
 Alpha  occ. eigenvalues --   -0.26405  -0.24947  -0.24055  -0.23694  -0.23394
 Alpha  occ. eigenvalues --   -0.23072  -0.20457  -0.19736  -0.16318  -0.13325
 Alpha  occ. eigenvalues --    0.04242
 Alpha virt. eigenvalues --    0.05530   0.06186   0.06989   0.07326   0.07516
 Alpha virt. eigenvalues --    0.07885   0.08648   0.08868   0.09488   0.09798
 Alpha virt. eigenvalues --    0.09915   0.10187   0.10612   0.11165   0.11399

  Beta  occ. eigenvalues --  -14.20359 -10.10265 -10.09562 -10.08725 -10.08150
  Beta  occ. eigenvalues --  -10.08045 -10.08034 -10.08000 -10.07957 -10.07937
  Beta  occ. eigenvalues --  -10.07920 -10.07816 -10.06460 -10.06433  -0.81632
  Beta  occ. eigenvalues --   -0.77292  -0.72078  -0.70483  -0.67231  -0.62209
  Beta  occ. eigenvalues --   -0.59253  -0.57933  -0.54809  -0.51287  -0.50941
  Beta  occ. eigenvalues --   -0.47903  -0.47060  -0.45278  -0.40862  -0.40683
  Beta  occ. eigenvalues --   -0.38420  -0.37300  -0.36731  -0.35390  -0.34303
  Beta  occ. eigenvalues --   -0.33912  -0.32636  -0.31511  -0.30601  -0.30243
  Beta  occ. eigenvalues --   -0.29416  -0.28905  -0.28018  -0.27656  -0.26981
  Beta  occ. eigenvalues --   -0.26381  -0.24924  -0.24021  -0.23660  -0.23368
  Beta  occ. eigenvalues --   -0.23041  -0.20431  -0.19713  -0.16300  -0.13313
  Beta virt. eigenvalues --    0.06113   0.06451   0.06638   0.07328   0.07780
  Beta virt. eigenvalues --    0.07898   0.08177   0.08822   0.09278   0.09722
  Beta virt. eigenvalues --    0.09900   0.10174   0.10455   0.10898   0.11425

 Mulliken charges and spin densities:
               1          2
     1  C    0.372141  -1.012264
     2  C   -0.957855   1.396828
     3  C    0.661683  -1.297739
     4  C   -0.008719  -0.753135
     5  N   -0.028133   0.046069
     6  C    0.035026  -0.448954
     7  C   -0.074496  -0.117580
     8  C    0.569741  -0.580246
     9  C   -0.928516   0.809357
    10  C    0.183433  -0.460500
    11  C    1.149315  -1.620160
    12  C   -1.445989   1.678284
    13  C    0.656480  -1.190017
    14  C    0.215599  -0.588423
    15  H   -0.033620   0.178436
    16  H   -0.147188   0.269374
    17  H   -0.194040   0.347892
    18  H    0.088331   0.088666
    19  H   -0.195862   0.333554
    20  H   -0.273961   0.400924
    21  H   -0.262395   0.408946
    22  H    0.055601   0.105499
    23  H    0.278615  -0.147374
    24  H    0.299404  -0.100631
    25  H    0.055877   0.132160
    26  H   -0.043193   0.157294
    27  H    0.072564   0.105861
    28  H   -0.152615   0.296389
    29  H   -0.046958   0.206257
    30  H   -0.181575   0.332041
    31  H    0.099261   0.027573
    32  H   -0.162204   0.318662
    33  H   -0.179847   0.326573
    34  H    0.139841  -0.013392
    35  H   -0.064254   0.257661
    36  H   -0.285468   0.439348
    37  H   -0.047483   0.186106
    38  H   -0.075580   0.198794
    39  H   -0.142962   0.281866
 Sum of Mulliken charges =  -1.00000   1.00000

 Dipole moment (field-independent basis, Debye):
    X=             -0.9825    Y=              1.6444    Z=              0.2158  Tot=              1.9277
 Quadrupole moment (field-independent basis, Debye-Ang):
   XX=           -227.3079   YY=           -133.4625   ZZ=           -126.4020
   XY=              9.4013   XZ=              7.1739   YZ=             -1.9130

 Summary of Natural Population Analysis:

                                       Natural Population
                Natural  -----------------------------------------------
    Atom  No    Charge         Core      Valence    Rydberg      Total
 -----------------------------------------------------------------------
      C    1   -0.28846      0.99965     2.28257    0.00625     3.28846
      C    2   -0.11775      0.99962     2.10793    0.01020     3.11775
      C    3   -0.28480      0.99965     2.27936    0.00579     3.28480
      C    4   -0.08624      0.99959     2.07517    0.01147     3.08624
      N    5   -0.33939      0.99975     2.82919    0.01046     3.83939
      C    6   -0.07858      0.99963     2.06875    0.01020     3.07858
      C    7   -0.21536      0.99961     2.20775    0.00800     3.21536
      C    8   -0.09504      0.99951     2.08604    0.00950     3.09504
      C    9   -0.08751      0.99950     2.07893    0.00907     3.08751
      C   10   -0.20297      0.99961     2.19374    0.00962     3.20297
      C   11   -0.18194      0.99960     2.17450    0.00783     3.18194
      C   12   -0.12026      0.99959     2.10883    0.01185     3.12026
      C   13   -0.20109      0.99962     2.19195    0.00952     3.20109
      C   14   -0.19492      0.99962     2.18874    0.00655     3.19492
      H   15    0.09676      0.00000     0.40198    0.00126     0.40324
      H   16    0.09869      0.00000     0.40022    0.00109     0.40131
      H   17    0.10097      0.00000     0.39806    0.00097     0.39903
      H   18    0.09441      0.00000     0.40370    0.00189     0.40559
      H   19    0.09709      0.00000     0.40174    0.00116     0.40291
      H   20    0.09882      0.00000     0.40005    0.00114     0.40118
      H   21    0.10021      0.00000     0.39873    0.00106     0.39979
      H   22    0.09219      0.00000     0.40642    0.00140     0.40781
      H   23    0.07768      0.00000     0.42049    0.00183     0.42232
      H   24    0.17231      0.00000     0.32376    0.00394     0.32769
      H   25    0.09259      0.00000     0.40620    0.00121     0.40741
      H   26    0.08914      0.00000     0.40970    0.00116     0.41086
      H   27    0.10008      0.00000     0.39860    0.00132     0.39992
      H   28    0.09979      0.00000     0.39891    0.00130     0.40021
      H   29    0.09154      0.00000     0.40685    0.00160     0.40846
      H   30    0.09078      0.00000     0.40771    0.00151     0.40922
      H   31    0.09916      0.00000     0.39948    0.00136     0.40084
      H   32    0.09879      0.00000     0.39927    0.00194     0.40121
      H   33    0.09670      0.00000     0.40180    0.00150     0.40330
      H   34    0.09850      0.00000     0.40006    0.00144     0.40150
      H   35    0.10359      0.00000     0.39496    0.00146     0.39641
      H   36    0.10348      0.00000     0.39515    0.00137     0.39652
      H   37    0.10005      0.00000     0.39881    0.00113     0.39995
      H   38    0.09928      0.00000     0.39951    0.00121     0.40072
      H   39    0.10172      0.00000     0.39707    0.00121     0.39828
 =======================================================================
   * Total *   -0.00000     13.99455    40.84266    0.16279    55.00000

 Normal termination of Gaussian 16 at Thu Dec 10 09:55:30 2020.
