 Gaussian 16, Revision A.03,

 -----------------------------------------------------------
 # opt freq B3LYP/6-31G(d) empiricaldispersion=gd3bj scf=xqc
 -----------------------------------------------------------

 -----------------------------
 CID_57360863_JID_364_neutraal
 -----------------------------
 Symbolic Z-matrix:
 Charge =  0 Multiplicity = 1

 SCF Done:  E(RB3LYP) =  -531.674953631     A.U. after   15 cycles
 SCF Done:  E(RB3LYP) =  -531.679624593     A.U. after   13 cycles
 SCF Done:  E(RB3LYP) =  -531.680468643     A.U. after   12 cycles
 SCF Done:  E(RB3LYP) =  -531.681138025     A.U. after   12 cycles
 SCF Done:  E(RB3LYP) =  -531.681427346     A.U. after   12 cycles
 SCF Done:  E(RB3LYP) =  -531.681561077     A.U. after   13 cycles
 SCF Done:  E(RB3LYP) =  -531.681910432     A.U. after   12 cycles
 SCF Done:  E(RB3LYP) =  -531.682123411     A.U. after   13 cycles
 SCF Done:  E(RB3LYP) =  -531.682254410     A.U. after   13 cycles
 SCF Done:  E(RB3LYP) =  -531.682318158     A.U. after   12 cycles
 SCF Done:  E(RB3LYP) =  -531.683076844     A.U. after   11 cycles
 SCF Done:  E(RB3LYP) =  -531.683074143     A.U. after   11 cycles
 SCF Done:  E(RB3LYP) =  -531.683077428     A.U. after   11 cycles
 SCF Done:  E(RB3LYP) =  -531.683077675     A.U. after    9 cycles
 SCF Done:  E(RB3LYP) =  -531.683077742     A.U. after    8 cycles
 Optimization completed.
    -- Stationary point found.
 Normal termination of Gaussian 16 at Tue Dec  8 10:39:08 2020.

 --------------------------------------------------------------------
 #N Geom=AllCheck Guess=TCheck SCRF=Check GenChk RB3LYP/6-31G(d) Freq
 --------------------------------------------------------------------

 Structure from the checkpoint file:  "JID_364.chk"
 -----------------------------
 CID_57360863_JID_364_neutraal
 -----------------------------
 Charge =  0 Multiplicity = 1

 SCF Done:  E(RB3LYP) =  -531.683077742     A.U. after    1 cycles

  Exact polarizability:  92.643  -1.881  85.143  -2.150   0.771  53.048
 Approx polarizability: 108.209  -0.083 141.150  -2.456   8.197  81.482

                      1                      2                      3
                      A                      A                      A
 Frequencies --     19.5699                56.7604                84.7392
 Red. masses --      4.5926                 3.8512                 2.9529
 Frc consts  --      0.0010                 0.0073                 0.0125
 IR Inten    --      2.2715                 1.2324                 7.1740

                      4                      5                      6
                      A                      A                      A
 Frequencies --    105.1074               168.4645               206.8040
 Red. masses --      2.9051                 2.6532                 1.5739
 Frc consts  --      0.0189                 0.0444                 0.0397
 IR Inten    --      1.6198                 2.1909                27.9655

                      7                      8                      9
                      A                      A                      A
 Frequencies --    224.6834               231.8811               252.5762
 Red. masses --      3.3201                 1.4792                 2.2229
 Frc consts  --      0.0988                 0.0469                 0.0836
 IR Inten    --      5.7455                17.6747                10.8608

                     10                     11                     12
                      A                      A                      A
 Frequencies --    290.0312               332.7480               371.1719
 Red. masses --      3.9119                 2.8495                 5.2238
 Frc consts  --      0.1939                 0.1859                 0.4240
 IR Inten    --     14.8407                11.8656                 2.3101

                     13                     14                     15
                      A                      A                      A
 Frequencies --    407.6470               461.1299               507.0506
 Red. masses --      1.5025                 3.1217                 3.4939
 Frc consts  --      0.1471                 0.3911                 0.5292
 IR Inten    --     69.6915                14.8932                43.1394

                     16                     17                     18
                      A                      A                      A
 Frequencies --    615.0494               682.3870               769.9105
 Red. masses --      5.1740                 4.3341                 5.9888
 Frc consts  --      1.1532                 1.1891                 2.0916
 IR Inten    --      7.9989                26.3044                10.7174

                     19                     20                     21
                      A                      A                      A
 Frequencies --    800.6249               863.9598               875.9171
 Red. masses --      1.3488                 1.2825                 2.9456
 Frc consts  --      0.5094                 0.5640                 1.3315
 IR Inten    --      4.1350               137.4681                17.0325

                     22                     23                     24
                      A                      A                      A
 Frequencies --    886.1026              1012.5343              1018.5525
 Red. masses --      2.9806                 5.9282                 2.6480
 Frc consts  --      1.3789                 3.5809                 1.6186
 IR Inten    --      2.2367               129.9107                18.8802

                     25                     26                     27
                      A                      A                      A
 Frequencies --   1034.4628              1090.7482              1131.6362
 Red. masses --      2.5337                 3.4154                 1.9458
 Frc consts  --      1.5975                 2.3941                 1.4682
 IR Inten    --     27.4196               104.3857                22.3013

                     28                     29                     30
                      A                      A                      A
 Frequencies --   1169.1181              1209.7971              1218.0979
 Red. masses --      2.1577                 1.4679                 1.5945
 Frc consts  --      1.7377                 1.2658                 1.3939
 IR Inten    --    110.4387                 4.3930                52.1813

                     31                     32                     33
                      A                      A                      A
 Frequencies --   1289.1843              1330.6411              1344.2364
 Red. masses --      1.3043                 2.1005                 1.4365
 Frc consts  --      1.2772                 2.1912                 1.5294
 IR Inten    --     11.8669               124.6726                97.0143

                     34                     35                     36
                      A                      A                      A
 Frequencies --   1420.2606              1423.1314              1443.9397
 Red. masses --      1.2728                 1.2999                 1.3371
 Frc consts  --      1.5127                 1.5512                 1.6425
 IR Inten    --     15.7976                53.9843                13.2426

                     37                     38                     39
                      A                      A                      A
 Frequencies --   1457.4360              1514.6620              1520.0304
 Red. masses --      1.7130                 1.0454                 1.0869
 Frc consts  --      2.1438                 1.4131                 1.4796
 IR Inten    --     27.4424                 8.9570                 3.9664

                     40                     41                     42
                      A                      A                      A
 Frequencies --   1530.2856              1537.5215              1681.1439
 Red. masses --      1.0899                 1.0596                 1.0910
 Frc consts  --      1.5037                 1.4758                 1.8168
 IR Inten    --      8.2358                 7.1072                42.9157

                     43                     44                     45
                      A                      A                      A
 Frequencies --   1731.7231              1794.6798              2962.3923
 Red. masses --      6.5783                11.5259                 1.0741
 Frc consts  --     11.6230                21.8725                 5.5538
 IR Inten    --     10.9633               210.0264                40.2675

                     46                     47                     48
                      A                      A                      A
 Frequencies --   3047.2667              3064.0995              3097.5295
 Red. masses --      1.0854                 1.0363                 1.0591
 Frc consts  --      5.9381                 5.7323                 5.9870
 IR Inten    --     25.6934                15.3337                23.2197

                     49                     50                     51
                      A                      A                      A
 Frequencies --   3133.7526              3141.6942              3163.1423
 Red. masses --      1.1002                 1.1054                 1.1080
 Frc consts  --      6.3657                 6.4280                 6.5318
 IR Inten    --     27.3412                 2.1356                26.7187

                     52                     53                     54
                      A                      A                      A
 Frequencies --   3490.0669              3580.0858              3751.3026
 Red. masses --      1.0493                 1.0934                 1.0678
 Frc consts  --      7.5301                 8.2568                 8.8536
 IR Inten    --      1.5134                 0.9153                72.3894

 - Thermochemistry -
 -------------------
 Temperature   298.150 Kelvin.  Pressure   1.00000 Atm.
 Atom     1 has atomic number  6 and mass  12.00000

 Molecular mass:   146.06914 amu.
 Principal axes and moments of inertia in atomic units:
                           1         2         3
     Eigenvalues --   741.410532272.229262754.02786
           X            0.99990  -0.01399  -0.00111
           Y            0.01397   0.99976  -0.01713
           Z            0.00135   0.01711   0.99985
 This molecule is an asymmetric top.
 Rotational symmetry number  1.
 Warning -- assumption of classical behavior for rotation
           may cause significant error
 Rotational temperatures (Kelvin)      0.11682     0.03812     0.03145
 Rotational constants (GHZ):           2.43420     0.79426     0.65531
 Zero-point vibrational energy     427960.9 (Joules/Mol)
                                  102.28510 (Kcal/Mol)
 Warning -- explicit consideration of  16 degrees of freedom as
           vibrations may cause significant error
 Vibrational temperatures:     28.16    81.67   121.92   151.23   242.38
          (Kelvin)            297.54   323.27   333.63   363.40   417.29
                              478.75   534.03   586.51   663.46   729.53
                              884.92   981.80  1107.73  1151.92  1243.05
                             1260.25  1274.90  1456.81  1465.47  1488.36
                             1569.34  1628.17  1682.10  1740.63  1752.57
                             1854.85  1914.50  1934.06  2043.44  2047.57
                             2077.51  2096.93  2179.26  2186.98  2201.74
                             2212.15  2418.79  2491.56  2582.14  4262.22
                             4384.34  4408.56  4456.65  4508.77  4520.20
                             4551.06  5021.43  5150.94  5397.29

 Zero-point correction=                           0.163002 (Hartree/Particle)
 Thermal correction to Energy=                    0.174548
 Thermal correction to Enthalpy=                  0.175492
 Thermal correction to Gibbs Free Energy=         0.124344
 Sum of electronic and zero-point Energies=           -531.520076
 Sum of electronic and thermal Energies=              -531.508530
 Sum of electronic and thermal Enthalpies=            -531.507586
 Sum of electronic and thermal Free Energies=         -531.558734

                     E (Thermal)             CV                S
                      KCal/Mol        Cal/Mol-Kelvin    Cal/Mol-Kelvin
 Total                  109.530             39.953            107.650
 Electronic               0.000              0.000              0.000
 Translational            0.889              2.981             40.847
 Rotational               0.889              2.981             29.918
 Vibrational            107.753             33.992             36.884
 Vibration     1          0.593              1.986              6.677
 Vibration     2          0.596              1.975              4.567
 Vibration     3          0.601              1.960              3.778
 Vibration     4          0.605              1.945              3.357
 Vibration     5          0.625              1.881              2.453
 Vibration     6          0.641              1.830              2.072
 Vibration     7          0.649              1.803              1.921
 Vibration     8          0.653              1.792              1.864
 Vibration     9          0.664              1.758              1.713
 Vibration    10          0.686              1.692              1.474
 Vibration    11          0.715              1.610              1.247
 Vibration    12          0.743              1.531              1.075
 Vibration    13          0.772              1.454              0.935
 Vibration    14          0.819              1.336              0.763
 Vibration    15          0.862              1.234              0.641
 Vibration    16          0.975              1.000              0.424

                           ! Non-Optimized Parameters !
 Normal termination of Gaussian 16 at Tue Dec  8 10:44:26 2020.

 ----------------------------------------------------------------------
 # B3LYP/6-311++G(d,p) empiricaldispersion=gd3bj scf=xqc pop=npa geom=c
 heck
 ----------------------------------------------------------------------

 -------------------------------------
 CID_57360863_JID_364_Energie_neutraal
 -------------------------------------
 Structure from the checkpoint file:  "JID_364.chk"
 Charge =  0 Multiplicity = 1

 SCF Done:  E(RB3LYP) =  -531.858563418     A.U. after   15 cycles
 Normal termination of Gaussian 16 at Tue Dec  8 10:46:36 2020.

 ----------------------------------------------------------------------
 # B3LYP/6-311++G(d,p) empiricaldispersion=gd3bj scf=xqc pop=npa geom=c
 heck
 ----------------------------------------------------------------------

 -----------------------------------
 CID_57360863_JID_364_Energie_kation
 -----------------------------------
 Structure from the checkpoint file:  "JID_364.chk"
 Charge =  1 Multiplicity = 2

 SCF Done:  E(UB3LYP) =  -531.521638642     A.U. after   33 cycles
 SCF Done:  E(UB3LYP) =  -531.522983894     a.u. after   10 cycles
 Normal termination of Gaussian 16 at Tue Dec  8 11:11:05 2020.
 Gaussian 16:  ES64L-G16RevA.03 25-Dec-2016

 ----------------------------------------------------------------------
 # B3LYP/6-311++G(d,p) empiricaldispersion=gd3bj scf=xqc pop=npa geom=c
 heck
 ----------------------------------------------------------------------

 ----------------------------------
 CID_57360863_JID_364_Energie_anion
 ----------------------------------
 Structure from the checkpoint file:  "JID_364.chk"
 Charge = -1 Multiplicity = 2

                         Standard orientation:
 ---------------------------------------------------------------------
 Center     Atomic      Atomic             Coordinates (Angstroms)
 Number     Number       Type             X           Y           Z
 ---------------------------------------------------------------------
      1          6           0       -3.325944    0.180151   -0.459123
      2          6           0       -2.566576   -0.427533    0.708723
      3          8           0       -1.201414    0.059100    0.744965
      4          6           0       -0.334885   -0.547561   -0.073511
      5          8           0       -0.586912   -1.508973   -0.773264
      6          6           0        1.049473    0.038421   -0.008405
      7          7           0        1.363300    1.276011   -0.091886
      8          8           0        0.268544    2.134550   -0.212171
      9          6           0        2.169230   -0.976194    0.012602
     10          7           0        3.460209   -0.364563    0.292933
     11          1           0       -3.277008    1.272559   -0.421009
     12          1           0       -4.377573   -0.125146   -0.418618
     13          1           0       -2.904076   -0.159835   -1.408556
     14          1           0       -2.982529   -0.116303    1.668985
     15          1           0       -2.550673   -1.518661    0.652783
     16          1           0        0.699766    3.002353   -0.257114
     17          1           0        1.947110   -1.718222    0.791872
     18          1           0        2.102392   -1.524794   -0.944651
     19          1           0        4.202595   -1.024002    0.073162
     20          1           0        3.585897    0.450787   -0.302135
 ---------------------------------------------------------------------

 SCF Done:  E(UB3LYP) =  -531.847567682     A.U. after   32 cycles

 The electronic state is 2-A.
 Alpha  occ. eigenvalues --  -19.03399 -19.02826 -18.96457 -14.21338 -14.17339
 Alpha  occ. eigenvalues --  -10.14947 -10.10512 -10.07524 -10.06686 -10.04568
 Alpha  occ. eigenvalues --   -0.97165  -0.95275  -0.88051  -0.77486  -0.72120
 Alpha  occ. eigenvalues --   -0.64971  -0.57458  -0.54204  -0.46602  -0.43083
 Alpha  occ. eigenvalues --   -0.41257  -0.36163  -0.35739  -0.35016  -0.33474
 Alpha  occ. eigenvalues --   -0.32956  -0.31527  -0.29689  -0.27842  -0.27228
 Alpha  occ. eigenvalues --   -0.26254  -0.25095  -0.24589  -0.21911  -0.17455
 Alpha  occ. eigenvalues --   -0.16817  -0.13934  -0.12578  -0.12126   0.05494
 Alpha virt. eigenvalues --    0.07245   0.07851   0.09179   0.09921   0.11097
 Alpha virt. eigenvalues --    0.11339   0.12097   0.13016   0.13417   0.14219
 Alpha virt. eigenvalues --    0.16380   0.17591   0.17804   0.18150   0.18844

  Beta  occ. eigenvalues --  -19.03354 -19.02771 -18.96247 -14.20939 -14.17315
  Beta  occ. eigenvalues --  -10.14728 -10.10503 -10.07516 -10.06577 -10.04530
  Beta  occ. eigenvalues --   -0.96917  -0.95020  -0.87734  -0.77364  -0.71769
  Beta  occ. eigenvalues --   -0.64863  -0.57107  -0.54035  -0.46232  -0.42967
  Beta  occ. eigenvalues --   -0.41119  -0.36070  -0.35412  -0.34780  -0.33250
  Beta  occ. eigenvalues --   -0.32680  -0.31271  -0.29398  -0.27666  -0.26622
  Beta  occ. eigenvalues --   -0.25984  -0.24634  -0.24452  -0.21793  -0.16933
  Beta  occ. eigenvalues --   -0.16399  -0.13285  -0.12108  -0.11629
  Beta virt. eigenvalues --    0.08022   0.08350   0.09128   0.10211   0.11044
  Beta virt. eigenvalues --    0.11251   0.11573   0.12478   0.13432   0.13583
  Beta virt. eigenvalues --    0.14319   0.16754   0.17575   0.17809   0.18242

 Mulliken charges and spin densities:
               1          2
     1  C    0.776358  -1.103968
     2  C   -0.258477   0.076765
     3  O    0.039129   0.001202
     4  C   -0.708414   0.458500
     5  O   -0.314414   0.077222
     6  C    0.530855  -0.021657
     7  N   -0.494471   0.191698
     8  O   -0.026938   0.004592
     9  C    0.281440  -0.943240
    10  N   -0.383387   0.025618
    11  H    0.084815   0.045297
    12  H   -0.606843   0.748457
    13  H   -0.087909   0.257773
    14  H   -0.293780   0.448390
    15  H    0.165130  -0.015861
    16  H    0.245043   0.006312
    17  H    0.088534   0.078868
    18  H   -0.154956   0.333086
    19  H   -0.050077   0.266956
    20  H    0.168360   0.063991
 Sum of Mulliken charges =  -1.00000   1.00000

 Dipole moment (field-independent basis, Debye):
    X=              2.1069    Y=              2.0693    Z=              0.4501  Tot=              2.9873
 Quadrupole moment (field-independent basis, Debye-Ang):
   XX=           -125.9038   YY=            -74.0588   ZZ=            -78.5366
   XY=              1.5509   XZ=             -2.9392   YZ=             -5.9133

 Summary of Natural Population Analysis:

                                       Natural Population
                Natural  -----------------------------------------------
    Atom  No    Charge         Core      Valence    Rydberg      Total
 -----------------------------------------------------------------------
      C    1   -0.29953      0.99966     2.29464    0.00523     3.29953
      C    2   -0.01820      0.99958     2.00561    0.01301     3.01820
      O    3   -0.26955      0.99986     3.26100    0.00868     4.26955
      C    4    0.41541      0.99965     1.56070    0.02425     2.58459
      O    5   -0.30006      0.99987     3.29507    0.00512     4.30006
      C    6    0.07252      0.99958     1.91014    0.01776     2.92748
      N    7   -0.04115      0.99957     2.52594    0.01564     3.54115
      O    8   -0.27984      0.99989     3.27281    0.00713     4.27984
      C    9   -0.10067      0.99961     2.08898    0.01207     3.10067
      N   10   -0.42242      0.99977     2.91069    0.01197     3.92242
      H   11    0.09968      0.00000     0.39921    0.00111     0.40032
      H   12    0.10036      0.00000     0.39659    0.00305     0.39964
      H   13    0.10573      0.00000     0.39319    0.00108     0.39427
      H   14    0.08652      0.00000     0.41210    0.00138     0.41348
      H   15    0.09213      0.00000     0.40661    0.00126     0.40787
      H   16    0.22469      0.00000     0.27209    0.00322     0.27531
      H   17    0.09151      0.00000     0.40700    0.00149     0.40849
      H   18    0.09450      0.00000     0.40274    0.00276     0.40550
      H   19    0.16987      0.00000     0.32832    0.00181     0.33013
      H   20    0.17850      0.00000     0.31836    0.00313     0.32150
 =======================================================================
   * Total *   -0.00000      9.99705    28.86179    0.14116    39.00000

 Normal termination of Gaussian 16 at Tue Dec  8 11:15:30 2020.
