 Gaussian 16, Revision A.03,

 -----------------------------------------------------------
 # opt freq B3LYP/6-31G(d) empiricaldispersion=gd3bj scf=xqc
 -----------------------------------------------------------

 ------------------------------
 CID_15416343_JID_7409_neutraal
 ------------------------------
 Symbolic Z-matrix:
 Charge =  0 Multiplicity = 1

 SCF Done:  E(RB3LYP) =  -716.644605069     A.U. after   13 cycles
 SCF Done:  E(RB3LYP) =  -716.647793128     A.U. after   12 cycles
 SCF Done:  E(RB3LYP) =  -716.648868693     A.U. after   12 cycles
 SCF Done:  E(RB3LYP) =  -716.649304458     A.U. after   13 cycles
 SCF Done:  E(RB3LYP) =  -716.649632256     A.U. after   11 cycles
 SCF Done:  E(RB3LYP) =  -716.649685610     A.U. after   10 cycles
 SCF Done:  E(RB3LYP) =  -716.649715917     A.U. after   11 cycles
 SCF Done:  E(RB3LYP) =  -716.649768841     A.U. after   11 cycles
 SCF Done:  E(RB3LYP) =  -716.649823051     A.U. after   11 cycles
 SCF Done:  E(RB3LYP) =  -716.649783446     A.U. after   11 cycles
 SCF Done:  E(RB3LYP) =  -716.650408911     A.U. after   11 cycles
 SCF Done:  E(RB3LYP) =  -716.650406846     A.U. after   10 cycles
 SCF Done:  E(RB3LYP) =  -716.650409260     A.U. after   10 cycles
 SCF Done:  E(RB3LYP) =  -716.650409605     A.U. after    7 cycles
 SCF Done:  E(RB3LYP) =  -716.650409670     A.U. after    7 cycles
 Optimization completed.
    -- Stationary point found.
 Normal termination of Gaussian 16 at Fri Dec 11 12:43:11 2020.

 --------------------------------------------------------------------
 #N Geom=AllCheck Guess=TCheck SCRF=Check GenChk RB3LYP/6-31G(d) Freq
 --------------------------------------------------------------------

 Structure from the checkpoint file:  "JID_7409.chk"
 ------------------------------
 CID_15416343_JID_7409_neutraal
 ------------------------------
 Charge =  0 Multiplicity = 1

 SCF Done:  E(RB3LYP) =  -716.650409670     A.U. after    1 cycles

  Exact polarizability: 187.450  -3.428 166.222 -21.106  -4.645 138.979
 Approx polarizability: 236.068  -8.476 255.529 -38.535  -7.179 215.231

                      1                      2                      3
                      A                      A                      A
 Frequencies --     12.9691                23.0459                31.4458
 Red. masses --      3.9863                 3.6807                 3.9773
 Frc consts  --      0.0004                 0.0012                 0.0023
 IR Inten    --      0.1965                 0.3143                 0.1197

                      4                      5                      6
                      A                      A                      A
 Frequencies --     37.3319                51.3006                60.6529
 Red. masses --      3.3036                 2.8059                 3.3487
 Frc consts  --      0.0027                 0.0044                 0.0073
 IR Inten    --      0.1193                 0.0400                 0.0226

                      7                      8                      9
                      A                      A                      A
 Frequencies --    110.6766               122.7311               179.1805
 Red. masses --      2.9450                 2.6799                 2.8236
 Frc consts  --      0.0213                 0.0238                 0.0534
 IR Inten    --      0.4497                 0.1404                 2.0309

                     10                     11                     12
                      A                      A                      A
 Frequencies --    182.3440               212.0128               229.0405
 Red. masses --      3.1003                 1.9990                 2.1757
 Frc consts  --      0.0607                 0.0529                 0.0672
 IR Inten    --      0.2019                 0.6267                 2.9249

                     13                     14                     15
                      A                      A                      A
 Frequencies --    234.8159               257.1220               287.7507
 Red. masses --      1.3548                 1.1885                 1.5999
 Frc consts  --      0.0440                 0.0463                 0.0780
 IR Inten    --      1.2813                 0.8072                 0.1861

                     16                     17                     18
                      A                      A                      A
 Frequencies --    293.6003               312.9829               324.0674
 Red. masses --      2.3039                 2.1580                 2.9857
 Frc consts  --      0.1170                 0.1245                 0.1847
 IR Inten    --      0.0854                 0.3396                 2.0656

                     19                     20                     21
                      A                      A                      A
 Frequencies --    359.8513               396.4673               405.8488
 Red. masses --      2.2844                 2.2322                 2.3641
 Frc consts  --      0.1743                 0.2067                 0.2294
 IR Inten    --      1.4383                 0.1700                 6.4708

                     22                     23                     24
                      A                      A                      A
 Frequencies --    416.7850               456.6092               482.4515
 Red. masses --      2.9993                 3.2959                 2.7887
 Frc consts  --      0.3070                 0.4049                 0.3824
 IR Inten    --      0.4985                 0.5466                 7.8296

                     25                     26                     27
                      A                      A                      A
 Frequencies --    495.8385               530.9071               601.6841
 Red. masses --      3.4707                 2.6856                 3.1821
 Frc consts  --      0.5027                 0.4460                 0.6787
 IR Inten    --      0.4651                 1.5979                 7.6391

                     28                     29                     30
                      A                      A                      A
 Frequencies --    636.4068               656.0358               714.3111
 Red. masses --      6.3018                 2.9751                 2.1443
 Frc consts  --      1.5038                 0.7544                 0.6446
 IR Inten    --      0.0927                12.7909                20.9484

                     31                     32                     33
                      A                      A                      A
 Frequencies --    726.1109               756.3882               776.6656
 Red. masses --      1.6073                 1.6619                 1.5970
 Frc consts  --      0.4993                 0.5602                 0.5676
 IR Inten    --      5.3736                37.4325                 9.5321

                     34                     35                     36
                      A                      A                      A
 Frequencies --    823.8698               827.2340               864.1490
 Red. masses --      2.6730                 3.6042                 1.2485
 Frc consts  --      1.0690                 1.4532                 0.5493
 IR Inten    --      1.1233                 3.3092                 0.3374

                     37                     38                     39
                      A                      A                      A
 Frequencies --    866.3968               885.9848               922.4932
 Red. masses --      1.8141                 2.5821                 1.3887
 Frc consts  --      0.8023                 1.1942                 0.6963
 IR Inten    --      7.1229                14.4889                12.3132

                     40                     41                     42
                      A                      A                      A
 Frequencies --    927.7311               942.3517               962.3687
 Red. masses --      1.6031                 1.3112                 1.8005
 Frc consts  --      0.8129                 0.6860                 0.9825
 IR Inten    --      0.4898                 0.4016                16.3606

                     43                     44                     45
                      A                      A                      A
 Frequencies --    970.2660               979.5512               993.8939
 Red. masses --      1.3478                 1.5032                 1.6273
 Frc consts  --      0.7476                 0.8498                 0.9471
 IR Inten    --      0.4613                 0.7398                 2.2655

                     46                     47                     48
                      A                      A                      A
 Frequencies --    995.8658              1021.1803              1029.9838
 Red. masses --      1.3353                 5.5327                 2.4046
 Frc consts  --      0.7803                 3.3993                 1.5030
 IR Inten    --      0.8401                 7.0196                81.0262

                     49                     50                     51
                      A                      A                      A
 Frequencies --   1036.3843              1040.9857              1059.1447
 Red. masses --      2.1437                 2.1224                 2.1996
 Frc consts  --      1.3566                 1.3551                 1.4538
 IR Inten    --     11.0391                36.9852                 1.9345

                     52                     53                     54
                      A                      A                      A
 Frequencies --   1077.8217              1085.9305              1099.1387
 Red. masses --      1.3485                 2.2166                 1.9980
 Frc consts  --      0.9230                 1.5401                 1.4222
 IR Inten    --      6.2749                27.6811                 9.1320

                     55                     56                     57
                      A                      A                      A
 Frequencies --   1115.0460              1123.7277              1148.1250
 Red. masses --      2.0428                 1.8020                 1.9199
 Frc consts  --      1.4965                 1.3407                 1.4911
 IR Inten    --      0.6505                12.3675                11.8775

                     58                     59                     60
                      A                      A                      A
 Frequencies --   1174.6021              1193.2143              1210.1036
 Red. masses --      2.1027                 1.1027                 1.2320
 Frc consts  --      1.7093                 0.9250                 1.0629
 IR Inten    --      1.2837                 0.0979                 1.4099

                     61                     62                     63
                      A                      A                      A
 Frequencies --   1210.8480              1225.1477              1233.0773
 Red. masses --      1.9018                 2.0075                 2.9944
 Frc consts  --      1.6428                 1.7754                 2.6825
 IR Inten    --      2.8894                 2.2233                 7.3987

                     64                     65                     66
                      A                      A                      A
 Frequencies --   1246.9084              1281.8923              1295.7567
 Red. masses --      1.3233                 1.3291                 1.2790
 Frc consts  --      1.2122                 1.2868                 1.2652
 IR Inten    --      2.6293                 1.3788                 3.3758

                     67                     68                     69
                      A                      A                      A
 Frequencies --   1321.0745              1337.7178              1352.0179
 Red. masses --      1.2244                 1.1947                 1.8510
 Frc consts  --      1.2590                 1.2597                 1.9936
 IR Inten    --      2.5944                 0.8497                16.7943

                     70                     71                     72
                      A                      A                      A
 Frequencies --   1356.0907              1366.9014              1380.5260
 Red. masses --      1.2360                 2.1360                 1.4095
 Frc consts  --      1.3392                 2.3514                 1.5827
 IR Inten    --      2.3324                 0.7572                 3.3866

                     73                     74                     75
                      A                      A                      A
 Frequencies --   1395.9776              1400.9400              1406.6951
 Red. masses --      1.3317                 1.4139                 1.3623
 Frc consts  --      1.5290                 1.6350                 1.5883
 IR Inten    --      3.7418                 2.0178                37.7014

                     76                     77                     78
                      A                      A                      A
 Frequencies --   1412.1382              1421.4674              1427.8618
 Red. masses --      1.3685                 1.4460                 1.2954
 Frc consts  --      1.6079                 1.7214                 1.5561
 IR Inten    --     10.2460                 0.5762                 7.6631

                     79                     80                     81
                      A                      A                      A
 Frequencies --   1445.1262              1448.4128              1494.8348
 Red. masses --      1.2674                 1.2386                 1.2765
 Frc consts  --      1.5595                 1.5310                 1.6805
 IR Inten    --      5.1581                 6.9180                 7.1859

                     82                     83                     84
                      A                      A                      A
 Frequencies --   1498.1963              1506.6698              1516.2044
 Red. masses --      1.1179                 1.7302                 1.0710
 Frc consts  --      1.4784                 2.3140                 1.4506
 IR Inten    --      8.6357                19.1580                 0.2815

                     85                     86                     87
                      A                      A                      A
 Frequencies --   1519.5941              1525.6214              1528.0516
 Red. masses --      1.0495                 1.0564                 1.0828
 Frc consts  --      1.4278                 1.4486                 1.4896
 IR Inten    --      1.8044                 1.0706                 5.2227

                     88                     89                     90
                      A                      A                      A
 Frequencies --   1529.6798              1535.6444              1539.6382
 Red. masses --      1.0534                 1.0597                 1.0527
 Frc consts  --      1.4523                 1.4723                 1.4702
 IR Inten    --      1.3343                 9.9863                 6.1787

                     91                     92                     93
                      A                      A                      A
 Frequencies --   1544.1088              1547.4340              1547.7887
 Red. masses --      1.0694                 1.6503                 1.2609
 Frc consts  --      1.5023                 2.3284                 1.7798
 IR Inten    --      1.4492                 4.1654                 7.6307

                     94                     95                     96
                      A                      A                      A
 Frequencies --   1649.0929              1668.8692              3027.6886
 Red. masses --      5.6058                 5.5952                 1.0662
 Frc consts  --      8.9822                 9.1814                 5.7585
 IR Inten    --      0.7883                 1.0553                 3.8691

                     97                     98                     99
                      A                      A                      A
 Frequencies --   3033.2107              3037.0398              3040.5883
 Red. masses --      1.0737                 1.0649                 1.0645
 Frc consts  --      5.8202                 5.7871                 5.7983
 IR Inten    --     26.0935                24.8557                38.8735

                    100                    101                    102
                      A                      A                      A
 Frequencies --   3041.2045              3043.8418              3045.4571
 Red. masses --      1.0568                 1.0397                 1.0392
 Frc consts  --      5.7590                 5.6757                 5.6788
 IR Inten    --     29.2861                52.8924                29.8534

                    103                    104                    105
                      A                      A                      A
 Frequencies --   3047.9930              3064.4420              3066.7775
 Red. masses --      1.0434                 1.0942                 1.0916
 Frc consts  --      5.7112                 6.0539                 6.0491
 IR Inten    --     10.7303                41.6475                29.4099

                    106                    107                    108
                      A                      A                      A
 Frequencies --   3075.7331              3088.8971              3096.3791
 Red. masses --      1.0926                 1.1077                 1.0956
 Frc consts  --      6.0900                 6.2267                 6.1891
 IR Inten    --     29.8601                17.9622                49.7466

                    109                    110                    111
                      A                      A                      A
 Frequencies --   3100.4382              3108.4958              3109.7064
 Red. masses --      1.1015                 1.1011                 1.1014
 Frc consts  --      6.2387                 6.2685                 6.2754
 IR Inten    --     56.8363                23.1869                52.8949

                    112                    113                    114
                      A                      A                      A
 Frequencies --   3115.7500              3118.4060              3154.2755
 Red. masses --      1.1017                 1.1018                 1.0978
 Frc consts  --      6.3016                 6.3129                 6.4353
 IR Inten    --     38.6193                52.3300                22.7887

                    115                    116                    117
                      A                      A                      A
 Frequencies --   3177.5334              3183.3777              3192.6107
 Red. masses --      1.0854                 1.0869                 1.0904
 Frc consts  --      6.4567                 6.4893                 6.5481
 IR Inten    --      5.2407                 0.3034                15.3365

                    118                    119                    120
                      A                      A                      A
 Frequencies --   3200.3538              3209.9632              3412.7206
 Red. masses --      1.0940                 1.0980                 1.0745
 Frc consts  --      6.6017                 6.6658                 7.3733
 IR Inten    --     38.7688                20.1053                 2.2088

 - Thermochemistry -
 -------------------
 Temperature   298.150 Kelvin.  Pressure   1.00000 Atm.
 Atom     1 has atomic number  6 and mass  12.00000

 Molecular mass:   235.19361 amu.
 Principal axes and moments of inertia in atomic units:
                           1         2         3
     Eigenvalues --  2316.141318397.574889192.13115
           X            0.99998   0.00628  -0.00194
           Y           -0.00630   0.99991  -0.01223
           Z            0.00187   0.01224   0.99992
 This molecule is an asymmetric top.
 Rotational symmetry number  1.
 Warning -- assumption of classical behavior for rotation
           may cause significant error
 Rotational temperatures (Kelvin)      0.03740     0.01031     0.00942
 Rotational constants (GHZ):           0.77920     0.21491     0.19634
 Zero-point vibrational energy     996871.3 (Joules/Mol)
                                  238.25796 (Kcal/Mol)
 Warning -- explicit consideration of  27 degrees of freedom as
           vibrations may cause significant error
 Vibrational temperatures:     18.66    33.16    45.24    53.71    73.81
          (Kelvin)             87.27   159.24   176.58   257.80   262.35
                              305.04   329.54   337.85   369.94   414.01
                              422.43   450.31   466.26   517.75   570.43
                              583.93   599.66   656.96   694.14   713.40
                              763.86   865.69   915.65   943.89  1027.73
                             1044.71  1088.27  1117.45  1185.36  1190.21
                             1243.32  1246.55  1274.73  1327.26  1334.80
                             1355.83  1384.63  1396.00  1409.36  1429.99
                             1432.83  1469.25  1481.92  1491.13  1497.75
                             1523.87  1550.75  1562.41  1581.42  1604.30
                             1616.79  1651.90  1689.99  1716.77  1741.07
                             1742.14  1762.71  1774.12  1794.02  1844.36
                             1864.30  1900.73  1924.68  1945.25  1951.11
                             1966.67  1986.27  2008.50  2015.64  2023.92
                             2031.75  2045.17  2054.37  2079.21  2083.94
                             2150.73  2155.57  2167.76  2181.48  2186.36
                             2195.03  2198.53  2200.87  2209.45  2215.20
                             2221.63  2226.41  2226.92  2372.68  2401.13
                             4356.17  4364.11  4369.62  4374.73  4375.61
                             4379.41  4381.73  4385.38  4409.05  4412.41
                             4425.29  4444.23  4455.00  4460.84  4472.43
                             4474.17  4482.87  4486.69  4538.30  4571.76
                             4580.17  4593.45  4604.60  4618.42  4910.14

 Zero-point correction=                           0.379688 (Hartree/Particle)
 Thermal correction to Energy=                    0.398283
 Thermal correction to Enthalpy=                  0.399227
 Thermal correction to Gibbs Free Energy=         0.329805
 Sum of electronic and zero-point Energies=           -716.270721
 Sum of electronic and thermal Energies=              -716.252127
 Sum of electronic and thermal Enthalpies=            -716.251182
 Sum of electronic and thermal Free Energies=         -716.320605

                     E (Thermal)             CV                S
                      KCal/Mol        Cal/Mol-Kelvin    Cal/Mol-Kelvin
 Total                  249.926             69.912            146.112
 Electronic               0.000              0.000              0.000
 Translational            0.889              2.981             42.267
 Rotational               0.889              2.981             33.547
 Vibrational            248.149             63.950             70.298
 Vibration     1          0.593              1.987              7.495
 Vibration     2          0.593              1.985              6.353
 Vibration     3          0.594              1.983              5.736
 Vibration     4          0.594              1.982              5.396
 Vibration     5          0.596              1.977              4.767
 Vibration     6          0.597              1.973              4.436
 Vibration     7          0.607              1.941              3.257
 Vibration     8          0.610              1.930              3.057
 Vibration     9          0.629              1.868              2.337
 Vibration    10          0.630              1.864              2.304
 Vibration    11          0.643              1.823              2.026
 Vibration    12          0.652              1.797              1.886
 Vibration    13          0.655              1.788              1.842
 Vibration    14          0.667              1.751              1.681
 Vibration    15          0.685              1.696              1.487
 Vibration    16          0.688              1.686              1.453
 Vibration    17          0.701              1.649              1.347
 Vibration    18          0.709              1.627              1.289
 Vibration    19          0.734              1.555              1.123
 Vibration    20          0.763              1.478              0.976
 Vibration    21          0.771              1.458              0.941
 Vibration    22          0.780              1.434              0.903
 Vibration    23          0.815              1.346              0.776
 Vibration    24          0.839              1.289              0.703
 Vibration    25          0.851              1.259              0.669
 Vibration    26          0.886              1.182              0.585
 Vibration    27          0.960              1.028              0.447

 Optimization completed.
    -- Stationary point found.
 Normal termination of Gaussian 16 at Fri Dec 11 13:00:52 2020.

 ----------------------------------------------------------------------
 # B3LYP/6-311++G(d,p) empiricaldispersion=gd3bj scf=xqc pop=npa geom=c
 heck
 ----------------------------------------------------------------------

 --------------------------------------
 CID_15416343_JID_7409_Energie_neutraal
 --------------------------------------
 Structure from the checkpoint file:  "JID_7409.chk"
 Charge =  0 Multiplicity = 1

 SCF Done:  E(RB3LYP) =  -716.849479982     A.U. after   14 cycles
 Normal termination of Gaussian 16 at Fri Dec 11 13:07:54 2020.

 ----------------------------------------------------------------------
 # B3LYP/6-311++G(d,p) empiricaldispersion=gd3bj scf=xqc pop=npa geom=c
 heck
 ----------------------------------------------------------------------

 ------------------------------------
 CID_15416343_JID_7409_Energie_kation
 ------------------------------------
 Structure from the checkpoint file:  "JID_7409.chk"
 Charge =  1 Multiplicity = 2

 SCF Done:  E(UB3LYP) =  -716.548306280     A.U. after   31 cycles
 Normal termination of Gaussian 16 at Fri Dec 11 13:28:29 2020.
 Gaussian 16:  ES64L-G16RevA.03 25-Dec-2016

 ----------------------------------------------------------------------
 # B3LYP/6-311++G(d,p) empiricaldispersion=gd3bj scf=xqc pop=npa geom=c
 heck
 ----------------------------------------------------------------------

 -----------------------------------
 CID_15416343_JID_7409_Energie_anion
 -----------------------------------
 Structure from the checkpoint file:  "JID_7409.chk"
 Charge = -1 Multiplicity = 2

                         Standard orientation:
 ---------------------------------------------------------------------
 Center     Atomic      Atomic             Coordinates (Angstroms)
 Number     Number       Type             X           Y           Z
 ---------------------------------------------------------------------
      1          6           0        4.201950    2.335065   -0.473936
      2          6           0        4.500522    0.930196    0.057554
      3          6           0        3.699847    0.557444    1.314284
      4          6           0        2.172292    0.634123    1.162351
      5          6           0        1.581076   -0.164581   -0.015650
      6          6           0        1.826172   -1.696321    0.102642
      7          6           0        0.860887   -2.369091    1.087438
      8          6           0        1.805897   -2.409908   -1.256610
      9          7           0        0.179083    0.265837   -0.102027
     10          8           0       -0.424031   -0.392733   -1.243611
     11          6           0       -1.507714    0.410423   -1.688935
     12          6           0       -2.668635    0.407144   -0.716504
     13          6           0       -3.092083   -0.798230   -0.142379
     14          6           0       -4.157784   -0.819242    0.755199
     15          6           0       -4.818114    0.366640    1.086337
     16          6           0       -4.401316    1.571115    0.519788
     17          6           0       -3.327021    1.589461   -0.371620
     18          1           0        3.163514    2.428791   -0.810248
     19          1           0        4.848113    2.581231   -1.323772
     20          1           0        4.367407    3.092207    0.302636
     21          1           0        4.313325    0.192425   -0.733961
     22          1           0        5.569863    0.851507    0.293184
     23          1           0        3.995099   -0.448322    1.638624
     24          1           0        3.988580    1.232134    2.131964
     25          1           0        1.710396    0.296336    2.100699
     26          1           0        1.865145    1.677449    1.033628
     27          1           0        2.046771    0.186199   -0.943385
     28          1           0        2.840773   -1.814212    0.505944
     29          1           0       -0.163910   -2.363424    0.698447
     30          1           0        1.144649   -3.415163    1.246333
     31          1           0        0.858740   -1.878319    2.068232
     32          1           0        2.506282   -1.938491   -1.956622
     33          1           0        2.101738   -3.460196   -1.144522
     34          1           0        0.810586   -2.373471   -1.704706
     35          1           0       -0.324247   -0.127780    0.698519
     36          1           0       -1.164514    1.436034   -1.872988
     37          1           0       -1.800493   -0.042939   -2.644136
     38          1           0       -2.573375   -1.717112   -0.402307
     39          1           0       -4.475940   -1.760254    1.195871
     40          1           0       -5.649678    0.351051    1.785338
     41          1           0       -4.904519    2.498496    0.779414
     42          1           0       -2.991489    2.531408   -0.798849
 ---------------------------------------------------------------------

 SCF Done:  E(UB3LYP) =  -716.835419560     A.U. after   33 cycles
 SCF Done:  E(UB3LYP) =  -716.835419560     a.u. after    1 cycles

 The electronic state is 2-A.
 Alpha  occ. eigenvalues --  -19.06143 -14.25799 -10.13401 -10.10806 -10.09473
 Alpha  occ. eigenvalues --  -10.08966 -10.08923 -10.08911 -10.08764 -10.08675
 Alpha  occ. eigenvalues --  -10.08264 -10.07753 -10.07722 -10.07695 -10.07078
 Alpha  occ. eigenvalues --  -10.06873 -10.06221  -0.97939  -0.78570  -0.76898
 Alpha  occ. eigenvalues --   -0.71159  -0.69461  -0.67500  -0.66167  -0.64238
 Alpha  occ. eigenvalues --   -0.59502  -0.59075  -0.56678  -0.53621  -0.52284
 Alpha  occ. eigenvalues --   -0.49996  -0.48591  -0.46427  -0.43344  -0.42162
 Alpha  occ. eigenvalues --   -0.39670  -0.38491  -0.38009  -0.37245  -0.36793
 Alpha  occ. eigenvalues --   -0.35939  -0.34799  -0.34048  -0.33610  -0.33320
 Alpha  occ. eigenvalues --   -0.32441  -0.30592  -0.29633  -0.29352  -0.28931
 Alpha  occ. eigenvalues --   -0.28513  -0.27905  -0.27276  -0.26453  -0.26003
 Alpha  occ. eigenvalues --   -0.25421  -0.24963  -0.23939  -0.23645  -0.22960
 Alpha  occ. eigenvalues --   -0.22352  -0.19975  -0.17118  -0.16497  -0.14650
 Alpha  occ. eigenvalues --    0.03967
 Alpha virt. eigenvalues --    0.05303   0.06169   0.06320   0.06902   0.07089
 Alpha virt. eigenvalues --    0.07179   0.07342   0.08384   0.08647   0.08886
 Alpha virt. eigenvalues --    0.09355   0.09582   0.10346   0.10790   0.11210

  Beta  occ. eigenvalues --  -19.06141 -14.25795 -10.13394 -10.10802 -10.09470
  Beta  occ. eigenvalues --  -10.08956 -10.08910 -10.08898 -10.08747 -10.08661
  Beta  occ. eigenvalues --  -10.08257 -10.07739 -10.07705 -10.07687 -10.07057
  Beta  occ. eigenvalues --  -10.06851 -10.06210  -0.97935  -0.78557  -0.76875
  Beta  occ. eigenvalues --   -0.71133  -0.69438  -0.67472  -0.66134  -0.64211
  Beta  occ. eigenvalues --   -0.59467  -0.59045  -0.56647  -0.53583  -0.52247
  Beta  occ. eigenvalues --   -0.49962  -0.48549  -0.46394  -0.43302  -0.42143
  Beta  occ. eigenvalues --   -0.39643  -0.38473  -0.37977  -0.37209  -0.36773
  Beta  occ. eigenvalues --   -0.35912  -0.34772  -0.34019  -0.33582  -0.33291
  Beta  occ. eigenvalues --   -0.32416  -0.30564  -0.29613  -0.29333  -0.28908
  Beta  occ. eigenvalues --   -0.28485  -0.27880  -0.27249  -0.26429  -0.25974
  Beta  occ. eigenvalues --   -0.25394  -0.24936  -0.23915  -0.23616  -0.22941
  Beta  occ. eigenvalues --   -0.22326  -0.19965  -0.17090  -0.16463  -0.14642
  Beta virt. eigenvalues --    0.05767   0.06276   0.06381   0.06723   0.06978
  Beta virt. eigenvalues --    0.07349   0.07697   0.07762   0.08621   0.08999
  Beta virt. eigenvalues --    0.09196   0.09643   0.09806   0.10660   0.10892

 Mulliken charges and spin densities:
               1          2
     1  C    0.320987  -0.940922
     2  C   -0.288979   0.044141
     3  C   -0.157290  -0.101075
     4  C   -0.056089  -0.046920
     5  C   -0.113267  -0.639420
     6  C   -0.576744   0.934594
     7  C    0.118586  -0.846519
     8  C   -0.147829  -0.493567
     9  N   -0.043344   0.011696
    10  O    0.088675  -0.000518
    11  C    1.126337  -1.729009
    12  C    0.363816   0.570264
    13  C   -0.226838   0.358218
    14  C   -0.143674  -0.156418
    15  C    1.320683  -1.682902
    16  C    0.148948  -0.512183
    17  C   -1.618908   1.102495
    18  H   -0.056097   0.210695
    19  H   -0.130634   0.264572
    20  H   -0.009755   0.141560
    21  H    0.033297   0.109198
    22  H   -0.493423   0.659479
    23  H   -0.045890   0.181786
    24  H   -0.126716   0.297991
    25  H    0.021411   0.122505
    26  H    0.201851  -0.003470
    27  H    0.453946  -0.213387
    28  H    0.128978   0.042405
    29  H    0.113565  -0.002118
    30  H   -0.243432   0.395836
    31  H   -0.002694   0.141417
    32  H   -0.031690   0.143101
    33  H    0.012589   0.125356
    34  H    0.030403   0.139148
    35  H    0.398620  -0.193730
    36  H    0.097897   0.061744
    37  H    0.070029   0.111012
    38  H    0.030836   0.144438
    39  H   -0.560019   0.751127
    40  H   -0.432535   0.593564
    41  H   -0.465709   0.644705
    42  H   -0.109897   0.259113
 Sum of Mulliken charges =  -1.00000   1.00000

 Dipole moment (field-independent basis, Debye):
    X=              0.9808    Y=             -0.1453    Z=             -2.6545  Tot=              2.8337
 Quadrupole moment (field-independent basis, Debye-Ang):
   XX=           -232.7538   YY=           -156.3824   ZZ=           -143.8629
   XY=             -3.0008   XZ=             10.3798   YZ=              1.5403

 Summary of Natural Population Analysis:

                                       Natural Population
                Natural  -----------------------------------------------
    Atom  No    Charge         Core      Valence    Rydberg      Total
 -----------------------------------------------------------------------
      C    1   -0.28885      0.99967     2.28335    0.00584     3.28885
      C    2   -0.19299      0.99964     2.18549    0.00787     3.19299
      C    3   -0.18786      0.99962     2.17986    0.00838     3.18786
      C    4   -0.19439      0.99959     2.18577    0.00902     3.19439
      C    5   -0.01410      0.99957     2.00106    0.01348     3.01410
      C    6   -0.12238      0.99959     2.11259    0.01020     3.12238
      C    7   -0.29265      0.99964     2.28604    0.00697     3.29265
      C    8   -0.28264      0.99964     2.27806    0.00493     3.28264
      N    9   -0.17969      0.99972     2.66804    0.01194     3.67969
      O   10   -0.23572      0.99990     3.22649    0.00934     4.23572
      C   11   -0.01154      0.99955     1.99935    0.01264     3.01154
      C   12   -0.03508      0.99949     2.02611    0.00947     3.03508
      C   13   -0.10175      0.99951     2.09200    0.01024     3.10175
      C   14   -0.09776      0.99956     2.08745    0.01075     3.09776
      C   15   -0.10121      0.99956     2.09164    0.01001     3.10121
      C   16   -0.09830      0.99956     2.08804    0.01070     3.09830
      C   17   -0.09972      0.99951     2.08984    0.01036     3.09972
      H   18    0.09750      0.00000     0.40154    0.00097     0.40250
      H   19    0.09927      0.00000     0.39992    0.00082     0.40073
      H   20    0.09564      0.00000     0.40343    0.00093     0.40436
      H   21    0.09320      0.00000     0.40548    0.00132     0.40680
      H   22    0.09748      0.00000     0.40118    0.00134     0.40252
      H   23    0.09671      0.00000     0.40185    0.00144     0.40329
      H   24    0.09697      0.00000     0.40208    0.00095     0.40303
      H   25    0.09836      0.00000     0.40059    0.00105     0.40164
      H   26    0.10445      0.00000     0.39425    0.00130     0.39555
      H   27    0.09725      0.00000     0.40057    0.00218     0.40275
      H   28    0.09622      0.00000     0.40164    0.00214     0.40378
      H   29    0.09949      0.00000     0.39905    0.00146     0.40051
      H   30    0.10209      0.00000     0.39710    0.00080     0.39791
      H   31    0.09870      0.00000     0.40026    0.00104     0.40130
      H   32    0.09647      0.00000     0.40252    0.00101     0.40353
      H   33    0.09458      0.00000     0.40460    0.00082     0.40542
      H   34    0.10663      0.00000     0.39195    0.00142     0.39337
      H   35    0.16840      0.00000     0.32829    0.00331     0.33160
      H   36    0.08906      0.00000     0.40935    0.00159     0.41094
      H   37    0.09427      0.00000     0.40464    0.00109     0.40573
      H   38    0.10509      0.00000     0.39336    0.00154     0.39491
      H   39    0.10285      0.00000     0.39587    0.00128     0.39715
      H   40    0.10322      0.00000     0.39508    0.00171     0.39678
      H   41    0.10209      0.00000     0.39665    0.00125     0.39791
      H   42    0.10065      0.00000     0.39814    0.00121     0.39935
 =======================================================================
   * Total *    0.00000     16.99334    47.81055    0.19611    65.00000

 Normal termination of Gaussian 16 at Fri Dec 11 13:50:53 2020.
