 Gaussian 16, Revision A.03,

 -----------------------------------------------------------
 # opt freq B3LYP/6-31G(d) empiricaldispersion=gd3bj scf=xqc
 -----------------------------------------------------------

 -------------------------------
 CID_149626406_JID_5012_neutraal
 -------------------------------
 Symbolic Z-matrix:
 Charge =  0 Multiplicity = 1

 SCF Done:  E(RB3LYP) =  -709.865912038     A.U. after   15 cycles
 SCF Done:  E(RB3LYP) =  -709.871672550     A.U. after   13 cycles
 SCF Done:  E(RB3LYP) =  -709.871739401     A.U. after   13 cycles
 SCF Done:  E(RB3LYP) =  -709.872920592     A.U. after   12 cycles
 SCF Done:  E(RB3LYP) =  -709.873241276     A.U. after   12 cycles
 SCF Done:  E(RB3LYP) =  -709.873243501     A.U. after   13 cycles
 SCF Done:  E(RB3LYP) =  -709.873467930     A.U. after   11 cycles
 SCF Done:  E(RB3LYP) =  -709.873552286     A.U. after   10 cycles
 SCF Done:  E(RB3LYP) =  -709.873721188     A.U. after   12 cycles
 SCF Done:  E(RB3LYP) =  -709.873781332     A.U. after   11 cycles
 SCF Done:  E(RB3LYP) =  -709.873856056     A.U. after    8 cycles
 SCF Done:  E(RB3LYP) =  -709.873856705     A.U. after    9 cycles
 SCF Done:  E(RB3LYP) =  -709.873857294     A.U. after    8 cycles
 SCF Done:  E(RB3LYP) =  -709.873857765     A.U. after    8 cycles
 SCF Done:  E(RB3LYP) =  -709.873857943     A.U. after    7 cycles
 Optimization completed.
    -- Stationary point found.
 Normal termination of Gaussian 16 at Thu Dec 10 14:50:56 2020.

 --------------------------------------------------------------------
 #N Geom=AllCheck Guess=TCheck SCRF=Check GenChk RB3LYP/6-31G(d) Freq
 --------------------------------------------------------------------

 Structure from the checkpoint file:  "JID_5012.chk"
 -------------------------------
 CID_149626406_JID_5012_neutraal
 -------------------------------
 Charge =  0 Multiplicity = 1

 SCF Done:  E(RB3LYP) =  -709.873857943     A.U. after    1 cycles

  Exact polarizability: 142.882  -1.539 126.223  -6.914  -7.766 111.780
 Approx polarizability: 178.303  -2.675 186.431 -17.897 -20.690 188.622

                      1                      2                      3
                      A                      A                      A
 Frequencies --     25.3510                33.5834                49.9634
 Red. masses --      4.2817                 5.7308                 4.3217
 Frc consts  --      0.0016                 0.0038                 0.0064
 IR Inten    --      0.7514                 0.1464                 0.1631

                      4                      5                      6
                      A                      A                      A
 Frequencies --     64.6296                83.1642               108.3859
 Red. masses --      6.9318                 3.5303                 3.7304
 Frc consts  --      0.0171                 0.0144                 0.0258
 IR Inten    --      0.8424                 0.3796                 1.4335

                      7                      8                      9
                      A                      A                      A
 Frequencies --    145.7749               169.3136               172.3044
 Red. masses --      5.0315                 3.2165                 2.9754
 Frc consts  --      0.0630                 0.0543                 0.0520
 IR Inten    --      0.9199                 1.8400                 2.1585

                     10                     11                     12
                      A                      A                      A
 Frequencies --    210.6257               219.5997               247.0722
 Red. masses --      1.2710                 1.0736                 1.2825
 Frc consts  --      0.0332                 0.0305                 0.0461
 IR Inten    --      1.4290                 0.1664                 0.5775

                     13                     14                     15
                      A                      A                      A
 Frequencies --    256.9129               281.1546               316.7158
 Red. masses --      1.8489                 2.4687                 6.0168
 Frc consts  --      0.0719                 0.1150                 0.3556
 IR Inten    --      0.4388                 0.8792                 1.9099

                     16                     17                     18
                      A                      A                      A
 Frequencies --    344.9089               361.4885               379.7979
 Red. masses --      3.4467                 2.3048                 2.2209
 Frc consts  --      0.2416                 0.1774                 0.1888
 IR Inten    --      0.1790                 0.3222                 1.2992

                     19                     20                     21
                      A                      A                      A
 Frequencies --    384.0473               419.1530               497.9019
 Red. masses --      3.2524                 2.8509                 4.1672
 Frc consts  --      0.2826                 0.2951                 0.6087
 IR Inten    --      6.2082                 3.3385                16.4307

                     22                     23                     24
                      A                      A                      A
 Frequencies --    513.6069               530.8773               587.1388
 Red. masses --      2.0309                 3.4079                 2.9821
 Frc consts  --      0.3156                 0.5659                 0.6057
 IR Inten    --     10.7873                 9.7519                 6.5408

                     25                     26                     27
                      A                      A                      A
 Frequencies --    621.4248               665.4787               693.0997
 Red. masses --      3.7982                 2.6904                 1.5835
 Frc consts  --      0.8642                 0.7020                 0.4482
 IR Inten    --     61.2835                42.5939                76.3715

                     28                     29                     30
                      A                      A                      A
 Frequencies --    709.5957               730.7997               768.0202
 Red. masses --      2.5596                 1.6859                 2.7917
 Frc consts  --      0.7593                 0.5305                 0.9702
 IR Inten    --     31.8338                94.7826                18.4972

                     31                     32                     33
                      A                      A                      A
 Frequencies --    795.2656               838.2213               881.2534
 Red. masses --      3.3342                 1.3218                 2.3082
 Frc consts  --      1.2424                 0.5472                 1.0562
 IR Inten    --     17.5889                15.0663                 5.4784

                     34                     35                     36
                      A                      A                      A
 Frequencies --    891.7955               901.3464               931.4218
 Red. masses --      2.9217                 2.0424                 1.4454
 Frc consts  --      1.3691                 0.9776                 0.7388
 IR Inten    --      8.2787                 0.7389                 3.4276

                     37                     38                     39
                      A                      A                      A
 Frequencies --    959.4248               984.8312               992.8085
 Red. masses --      1.9396                 1.3979                 2.1564
 Frc consts  --      1.0519                 0.7988                 1.2523
 IR Inten    --      1.7831                 1.8183                16.3306

                     40                     41                     42
                      A                      A                      A
 Frequencies --    999.5126              1063.7690              1071.0979
 Red. masses --      2.0892                 1.5015                 1.4720
 Frc consts  --      1.2297                 1.0011                 0.9950
 IR Inten    --     23.2351                11.3301                 3.8520

                     43                     44                     45
                      A                      A                      A
 Frequencies --   1076.6309              1081.6167              1105.3524
 Red. masses --      1.3719                 1.6535                 2.0665
 Frc consts  --      0.9369                 1.1397                 1.4876
 IR Inten    --      1.7259                18.8794                15.1129

                     46                     47                     48
                      A                      A                      A
 Frequencies --   1121.4697              1131.1079              1172.2632
 Red. masses --      1.6870                 2.0447                 1.8714
 Frc consts  --      1.2501                 1.5413                 1.5152
 IR Inten    --     11.6011                 0.5413                 5.2492

                     49                     50                     51
                      A                      A                      A
 Frequencies --   1173.6414              1221.4832              1236.8485
 Red. masses --      2.3891                 2.0571                 1.1852
 Frc consts  --      1.9389                 1.8083                 1.0682
 IR Inten    --    336.6205                 4.2732                24.2635

                     52                     53                     54
                      A                      A                      A
 Frequencies --   1290.2002              1321.0439              1339.4256
 Red. masses --      1.9071                 1.5681                 2.0494
 Frc consts  --      1.8704                 1.6124                 2.1662
 IR Inten    --     29.6662                 3.4793                39.2325

                     55                     56                     57
                      A                      A                      A
 Frequencies --   1354.6388              1385.9297              1423.7739
 Red. masses --      3.1407                 1.5126                 2.1067
 Frc consts  --      3.3956                 1.7118                 2.5162
 IR Inten    --     99.9674                 6.2513                63.4214

                     58                     59                     60
                      A                      A                      A
 Frequencies --   1427.1913              1440.5900              1442.4759
 Red. masses --      2.0019                 1.3727                 1.3360
 Frc consts  --      2.4025                 1.6784                 1.6379
 IR Inten    --    101.7456                 3.9627                39.1439

                     61                     62                     63
                      A                      A                      A
 Frequencies --   1452.5737              1474.9662              1492.0579
 Red. masses --      1.2823                 1.0962                 2.0917
 Frc consts  --      1.5941                 1.4051                 2.7436
 IR Inten    --      2.6666                16.0718               120.3241

                     64                     65                     66
                      A                      A                      A
 Frequencies --   1511.3155              1514.8059              1517.5076
 Red. masses --      1.0568                 1.2026                 1.0632
 Frc consts  --      1.4222                 1.6258                 1.4425
 IR Inten    --      1.2167                 6.4016                 8.0150

                     67                     68                     69
                      A                      A                      A
 Frequencies --   1518.5513              1520.4121              1530.8736
 Red. masses --      1.0466                 1.0729                 1.0488
 Frc consts  --      1.4220                 1.4613                 1.4481
 IR Inten    --      9.8161                 2.6310                 4.1930

                     70                     71                     72
                      A                      A                      A
 Frequencies --   1540.0599              1756.8574              1770.1147
 Red. masses --      1.1580                 7.4625                 8.6848
 Frc consts  --      1.6182                13.5709                16.0330
 IR Inten    --      2.5750                62.2574               361.6970

                     73                     74                     75
                      A                      A                      A
 Frequencies --   1835.1103              3026.8195              3037.0300
 Red. masses --      9.0848                 1.0702                 1.0352
 Frc consts  --     18.0257                 5.7768                 5.6257
 IR Inten    --    187.4737                13.0235                36.7255

                     76                     77                     78
                      A                      A                      A
 Frequencies --   3039.3679              3046.4317              3089.7891
 Red. masses --      1.0405                 1.0364                 1.0973
 Frc consts  --      5.6634                 5.6672                 6.1719
 IR Inten    --     25.7490                32.2289                27.6160

                     79                     80                     81
                      A                      A                      A
 Frequencies --   3099.3304              3109.9764              3110.8570
 Red. masses --      1.1018                 1.1020                 1.1013
 Frc consts  --      6.2360                 6.2799                 6.2796
 IR Inten    --     21.3520                23.9408                40.2273

                     82                     83                     84
                      A                      A                      A
 Frequencies --   3123.2180              3123.4517              3134.6122
 Red. masses --      1.1011                 1.0921                 1.0988
 Frc consts  --      6.3283                 6.2775                 6.3614
 IR Inten    --     24.8058                 1.0125                 7.1301

                     85                     86                     87
                      A                      A                      A
 Frequencies --   3143.2495              3164.0431              3169.5981
 Red. masses --      1.0553                 1.0874                 1.0894
 Frc consts  --      6.1429                 6.4141                 6.4485
 IR Inten    --     16.4389                 3.7101                22.9782

                     88                     89                     90
                      A                      A                      A
 Frequencies --   3222.6119              3542.6841              3678.2991
 Red. masses --      1.1160                 1.0747                 1.0639
 Frc consts  --      6.8284                 7.9472                 8.4813
 IR Inten    --     13.9052               105.2816                55.7851

 - Thermochemistry -
 -------------------
 Temperature   298.150 Kelvin.  Pressure   1.00000 Atm.
 Atom     1 has atomic number  6 and mass  12.00000

 Molecular mass:   211.12084 amu.
 Principal axes and moments of inertia in atomic units:
                           1         2         3
     Eigenvalues --  1910.204905304.372665736.75314
           X            0.99993   0.00982   0.00702
           Y           -0.01001   0.99957   0.02766
           Z           -0.00674  -0.02772   0.99959
 This molecule is an asymmetric top.
 Rotational symmetry number  1.
 Warning -- assumption of classical behavior for rotation
           may cause significant error
 Rotational temperatures (Kelvin)      0.04534     0.01633     0.01510
 Rotational constants (GHZ):           0.94479     0.34024     0.31459
 Zero-point vibrational energy     711448.5 (Joules/Mol)
                                  170.04027 (Kcal/Mol)
 Warning -- explicit consideration of  24 degrees of freedom as
           vibrations may cause significant error
 Vibrational temperatures:     36.47    48.32    71.89    92.99   119.65
          (Kelvin)            155.94   209.74   243.60   247.91   303.04
                              315.95   355.48   369.64   404.52   455.68
                              496.25   520.10   546.44   552.56   603.07
                              716.37   738.97   763.81   844.76   894.09
                              957.48   997.22  1020.95  1051.46  1105.01
                             1144.21  1206.01  1267.93  1283.09  1296.84
                             1340.11  1380.40  1416.95  1428.43  1438.08
                             1530.53  1541.07  1549.03  1556.21  1590.36
                             1613.54  1627.41  1686.63  1688.61  1757.44
                             1779.55  1856.31  1900.69  1927.13  1949.02
                             1994.04  2048.49  2053.41  2072.69  2075.40
                             2089.93  2122.15  2146.74  2174.45  2179.47
                             2183.35  2184.86  2187.53  2202.59  2215.80
                             2527.73  2546.80  2640.31  4354.92  4369.61
                             4372.97  4383.14  4445.52  4459.25  4474.56
                             4475.83  4493.61  4493.95  4510.01  4522.43
                             4552.35  4560.34  4636.62  5097.13  5292.25

 Zero-point correction=                           0.270976 (Hartree/Particle)
 Thermal correction to Energy=                    0.287499
 Thermal correction to Enthalpy=                  0.288443
 Thermal correction to Gibbs Free Energy=         0.225720
 Sum of electronic and zero-point Energies=           -709.602882
 Sum of electronic and thermal Energies=              -709.586359
 Sum of electronic and thermal Enthalpies=            -709.585415
 Sum of electronic and thermal Free Energies=         -709.648138

                     E (Thermal)             CV                S
                      KCal/Mol        Cal/Mol-Kelvin    Cal/Mol-Kelvin
 Total                  180.408             60.760            132.012
 Electronic               0.000              0.000              0.000
 Translational            0.889              2.981             41.945
 Rotational               0.889              2.981             32.430
 Vibrational            178.631             54.798             57.636
 Vibration     1          0.593              1.985              6.164
 Vibration     2          0.594              1.983              5.606
 Vibration     3          0.595              1.978              4.819
 Vibration     4          0.597              1.971              4.311
 Vibration     5          0.600              1.961              3.815
 Vibration     6          0.606              1.943              3.298
 Vibration     7          0.617              1.907              2.727
 Vibration     8          0.625              1.880              2.443
 Vibration     9          0.626              1.877              2.410
 Vibration    10          0.643              1.825              2.038
 Vibration    11          0.647              1.811              1.962
 Vibration    12          0.661              1.768              1.751
 Vibration    13          0.666              1.751              1.683
 Vibration    14          0.681              1.708              1.527
 Vibration    15          0.704              1.642              1.327
 Vibration    16          0.723              1.586              1.189
 Vibration    17          0.736              1.552              1.116
 Vibration    18          0.750              1.513              1.040
 Vibration    19          0.753              1.504              1.023
 Vibration    20          0.782              1.429              0.895
 Vibration    21          0.853              1.255              0.663
 Vibration    22          0.869              1.220              0.625
 Vibration    23          0.886              1.182              0.585
 Vibration    24          0.944              1.059              0.472

 Optimization completed.
    -- Stationary point found.
 Normal termination of Gaussian 16 at Thu Dec 10 15:00:47 2020.

 ----------------------------------------------------------------------
 # B3LYP/6-311++G(d,p) empiricaldispersion=gd3bj scf=xqc pop=npa geom=c
 heck
 ----------------------------------------------------------------------

 ---------------------------------------
 CID_149626406_JID_5012_Energie_neutraal
 ---------------------------------------
 Structure from the checkpoint file:  "JID_5012.chk"
 Charge =  0 Multiplicity = 1

 SCF Done:  E(RB3LYP) =  -710.090194181     A.U. after   15 cycles
 Normal termination of Gaussian 16 at Thu Dec 10 15:05:44 2020.

 ----------------------------------------------------------------------
 # B3LYP/6-311++G(d,p) empiricaldispersion=gd3bj scf=xqc pop=npa geom=c
 heck
 ----------------------------------------------------------------------

 -------------------------------------
 CID_149626406_JID_5012_Energie_kation
 -------------------------------------
 Structure from the checkpoint file:  "JID_5012.chk"
 Charge =  1 Multiplicity = 2

 SCF Done:  E(UB3LYP) =  -709.782136571     A.U. after   27 cycles
 Normal termination of Gaussian 16 at Thu Dec 10 15:18:37 2020.
 Gaussian 16:  ES64L-G16RevA.03 25-Dec-2016

 ----------------------------------------------------------------------
 # B3LYP/6-311++G(d,p) empiricaldispersion=gd3bj scf=xqc pop=npa geom=c
 heck
 ----------------------------------------------------------------------

 ------------------------------------
 CID_149626406_JID_5012_Energie_anion
 ------------------------------------
 Structure from the checkpoint file:  "JID_5012.chk"
 Charge = -1 Multiplicity = 2

                         Standard orientation:
 ---------------------------------------------------------------------
 Center     Atomic      Atomic             Coordinates (Angstroms)
 Number     Number       Type             X           Y           Z
 ---------------------------------------------------------------------
      1          6           0        0.042964    2.973937    0.337726
      2          6           0        0.924291    2.041640   -0.432919
      3          6           0        1.136544    0.742773   -0.177903
      4          6           0        2.117430   -0.071062   -0.989076
      5          6           0        3.223645   -0.687719   -0.152785
      6          8           0        3.200381   -0.864097    1.047630
      7          8           0        4.270018   -1.063223   -0.920329
      8          7           0        0.490559    0.017832    0.848560
      9          6           0       -0.848250   -0.063893    1.177398
     10          8           0       -1.193726   -0.576074    2.234437
     11          6           0       -1.869127    0.424742    0.184899
     12          6           0       -1.763448    0.245931   -1.309586
     13          6           0       -2.740841   -0.596080   -0.524366
     14          6           0       -2.418515   -2.065778   -0.331549
     15          6           0       -4.220466   -0.286884   -0.634953
     16          1           0       -0.204731    2.571946    1.324072
     17          1           0       -0.899219    3.170192   -0.191281
     18          1           0        0.541394    3.940839    0.474965
     19          1           0        1.446645    2.465030   -1.288817
     20          1           0        1.603716   -0.909571   -1.483628
     21          1           0        2.574576    0.530247   -1.779455
     22          1           0        4.916523   -1.478421   -0.317916
     23          1           0        1.108400   -0.473987    1.489102
     24          1           0       -2.394274    1.309087    0.538107
     25          1           0       -0.880389   -0.248679   -1.703199
     26          1           0       -2.139948    1.044391   -1.944204
     27          1           0       -1.338453   -2.245878   -0.336592
     28          1           0       -2.805841   -2.424416    0.628132
     29          1           0       -2.864718   -2.665118   -1.134537
     30          1           0       -4.753176   -0.604397    0.269575
     31          1           0       -4.396614    0.786290   -0.769704
     32          1           0       -4.666554   -0.810862   -1.489759
 ---------------------------------------------------------------------

 SCF Done:  E(UB3LYP) =  -710.082169271     A.U. after   33 cycles
 SCF Done:  E(UB3LYP) =  -710.082169271     a.u. after    1 cycles

 The electronic state is 2-A.
 Alpha  occ. eigenvalues --  -19.07896 -19.02905 -18.99497 -14.24476 -10.22106
 Alpha  occ. eigenvalues --  -10.18339 -10.12609 -10.10248 -10.10163 -10.09109
 Alpha  occ. eigenvalues --  -10.08433 -10.08082 -10.07888 -10.07692 -10.07137
 Alpha  occ. eigenvalues --   -1.02231  -0.94661  -0.93398  -0.84001  -0.78546
 Alpha  occ. eigenvalues --   -0.71180  -0.67222  -0.64422  -0.60561  -0.59610
 Alpha  occ. eigenvalues --   -0.56263  -0.52266  -0.50708  -0.47782  -0.44210
 Alpha  occ. eigenvalues --   -0.41141  -0.40764  -0.39965  -0.39435  -0.38371
 Alpha  occ. eigenvalues --   -0.37066  -0.36050  -0.34807  -0.34244  -0.32803
 Alpha  occ. eigenvalues --   -0.31846  -0.31599  -0.31345  -0.31186  -0.29556
 Alpha  occ. eigenvalues --   -0.29142  -0.28730  -0.27978  -0.27248  -0.25774
 Alpha  occ. eigenvalues --   -0.23960  -0.21506  -0.20761  -0.19456  -0.18685
 Alpha  occ. eigenvalues --   -0.16106  -0.14245   0.03874
 Alpha virt. eigenvalues --    0.05589   0.06574   0.07227   0.07925   0.08069
 Alpha virt. eigenvalues --    0.08418   0.09050   0.09446   0.10054   0.10554
 Alpha virt. eigenvalues --    0.11117   0.11321   0.11702   0.12355   0.12898

  Beta  occ. eigenvalues --  -19.07833 -19.02881 -18.99495 -14.24466 -10.22083
  Beta  occ. eigenvalues --  -10.18339 -10.12611 -10.10208 -10.10163 -10.09103
  Beta  occ. eigenvalues --  -10.08415 -10.08056 -10.07867 -10.07673 -10.07123
  Beta  occ. eigenvalues --   -1.02141  -0.94657  -0.93322  -0.83988  -0.78537
  Beta  occ. eigenvalues --   -0.71140  -0.67163  -0.64399  -0.60530  -0.59545
  Beta  occ. eigenvalues --   -0.56234  -0.52174  -0.50641  -0.47737  -0.44179
  Beta  occ. eigenvalues --   -0.41090  -0.40729  -0.39926  -0.39357  -0.38338
  Beta  occ. eigenvalues --   -0.37022  -0.35987  -0.34785  -0.34221  -0.32773
  Beta  occ. eigenvalues --   -0.31814  -0.31578  -0.31304  -0.31139  -0.29537
  Beta  occ. eigenvalues --   -0.29122  -0.28691  -0.27945  -0.27214  -0.25753
  Beta  occ. eigenvalues --   -0.23871  -0.21484  -0.20739  -0.19418  -0.18669
  Beta  occ. eigenvalues --   -0.16096  -0.14225
  Beta virt. eigenvalues --    0.06031   0.06936   0.07069   0.07958   0.08276
  Beta virt. eigenvalues --    0.08327   0.08758   0.09333   0.09673   0.10355
  Beta virt. eigenvalues --    0.10818   0.11314   0.11466   0.11909   0.12692

 Mulliken charges and spin densities:
               1          2
     1  C    0.350595  -1.255592
     2  C    1.479349  -1.583723
     3  C   -1.515962   1.774012
     4  C    1.206480  -1.524961
     5  C    0.010424  -0.026066
     6  O   -0.283078  -0.006745
     7  O   -0.190928   0.058528
     8  N   -0.304576   0.195314
     9  C   -0.175914  -0.202896
    10  O   -0.284221   0.005191
    11  C    0.080363   0.018372
    12  C    0.147857  -0.811920
    13  C    0.003664   0.643692
    14  C   -0.561838  -0.040073
    15  C    0.410832  -0.971075
    16  H    0.155310   0.034124
    17  H   -0.091404   0.260099
    18  H   -0.145834   0.304365
    19  H   -0.500104   0.692797
    20  H   -0.355803   0.574468
    21  H   -0.206588   0.445898
    22  H   -0.562456   0.866768
    23  H    0.333278   0.015958
    24  H    0.194062   0.058910
    25  H    0.239927  -0.051565
    26  H   -0.499586   0.696836
    27  H    0.057507   0.127146
    28  H    0.170255  -0.006742
    29  H   -0.081069   0.214334
    30  H    0.088044   0.059352
    31  H   -0.184311   0.312363
    32  H    0.015725   0.122827
 Sum of Mulliken charges =  -1.00000   1.00000

 Dipole moment (field-independent basis, Debye):
    X=             -4.5476    Y=              0.3259    Z=              1.3398  Tot=              4.7520
 Quadrupole moment (field-independent basis, Debye-Ang):
   XX=           -172.6932   YY=           -132.5044   ZZ=           -133.7547
   XY=             11.0930   XZ=              2.9670   YZ=              6.8121

 Summary of Natural Population Analysis:

                                       Natural Population
                Natural  -----------------------------------------------
    Atom  No    Charge         Core      Valence    Rydberg      Total
 -----------------------------------------------------------------------
      C    1   -0.30368      0.99965     2.29746    0.00657     3.30368
      C    2   -0.08785      0.99946     2.07959    0.00880     3.08785
      C    3    0.07763      0.99944     1.90884    0.01410     2.92237
      C    4   -0.25064      0.99953     2.24111    0.01000     3.25064
      C    5    0.41682      0.99972     1.55874    0.02471     2.58318
      O    6   -0.31487      0.99987     3.30863    0.00638     4.31487
      O    7   -0.33929      0.99988     3.33284    0.00657     4.33929
      N    8   -0.32634      0.99962     2.81678    0.00994     3.82634
      C    9    0.34494      0.99963     1.63242    0.02301     2.65506
      O   10   -0.31832      0.99988     3.31321    0.00524     4.31832
      C   11   -0.15725      0.99949     2.14610    0.01166     3.15725
      C   12   -0.18946      0.99957     2.17940    0.01050     3.18946
      C   13   -0.03251      0.99956     2.02262    0.01032     3.03251
      C   14   -0.28490      0.99962     2.27907    0.00621     3.28490
      C   15   -0.27956      0.99962     2.27379    0.00615     3.27956
      H   16    0.10389      0.00000     0.39506    0.00105     0.39611
      H   17    0.10726      0.00000     0.39163    0.00111     0.39274
      H   18    0.10447      0.00000     0.39470    0.00082     0.39553
      H   19    0.09865      0.00000     0.39986    0.00149     0.40135
      H   20    0.12043      0.00000     0.37760    0.00197     0.37957
      H   21    0.12042      0.00000     0.37806    0.00151     0.37958
      H   22    0.24597      0.00000     0.23188    0.02214     0.25403
      H   23    0.21180      0.00000     0.28587    0.00233     0.28820
      H   24    0.11501      0.00000     0.38369    0.00131     0.38499
      H   25    0.10577      0.00000     0.39241    0.00183     0.39423
      H   26    0.10585      0.00000     0.39265    0.00150     0.39415
      H   27    0.10350      0.00000     0.39549    0.00101     0.39650
      H   28    0.10505      0.00000     0.39417    0.00078     0.39495
      H   29    0.09842      0.00000     0.40081    0.00077     0.40158
      H   30    0.09949      0.00000     0.39969    0.00082     0.40051
      H   31    0.10081      0.00000     0.39824    0.00096     0.39919
      H   32    0.09850      0.00000     0.40067    0.00083     0.40150
 =======================================================================
   * Total *   -0.00000     14.99454    41.80307    0.20239    57.00000

 Normal termination of Gaussian 16 at Thu Dec 10 15:35:49 2020.
