 Gaussian 16, Revision A.03,

 -----------------------------------------------------------
 # opt freq B3LYP/6-31G(d) empiricaldispersion=gd3bj scf=xqc
 -----------------------------------------------------------

 ------------------------------
 CID_83079907_JID_6677_neutraal
 ------------------------------
 Symbolic Z-matrix:
 Charge =  0 Multiplicity = 1

 SCF Done:  E(RB3LYP) =  -695.840218655     A.U. after   15 cycles
 SCF Done:  E(RB3LYP) =  -695.843784769     A.U. after   11 cycles
 SCF Done:  E(RB3LYP) =  -695.838677277     A.U. after   13 cycles
 SCF Done:  E(RB3LYP) =  -695.841275660     A.U. after   12 cycles
 SCF Done:  E(RB3LYP) =  -695.845454111     A.U. after    9 cycles
 SCF Done:  E(RB3LYP) =  -695.846287418     A.U. after   11 cycles
 SCF Done:  E(RB3LYP) =  -695.846332040     A.U. after   11 cycles
 SCF Done:  E(RB3LYP) =  -695.846641488     A.U. after   11 cycles
 SCF Done:  E(RB3LYP) =  -695.846523192     A.U. after   11 cycles
 SCF Done:  E(RB3LYP) =  -695.846763726     A.U. after   11 cycles
 SCF Done:  E(RB3LYP) =  -695.846853392     A.U. after    9 cycles
 SCF Done:  E(RB3LYP) =  -695.846854895     A.U. after    9 cycles
 SCF Done:  E(RB3LYP) =  -695.846855729     A.U. after    9 cycles
 SCF Done:  E(RB3LYP) =  -695.846856279     A.U. after    7 cycles
 SCF Done:  E(RB3LYP) =  -695.846856362     A.U. after    7 cycles
 SCF Done:  E(RB3LYP) =  -695.846856375     A.U. after    6 cycles
 Optimization completed.
    -- Stationary point found.
 Normal termination of Gaussian 16 at Fri Dec 11 00:29:37 2020.

 --------------------------------------------------------------------
 #N Geom=AllCheck Guess=TCheck SCRF=Check GenChk RB3LYP/6-31G(d) Freq
 --------------------------------------------------------------------

 Structure from the checkpoint file:  "JID_6677.chk"
 ------------------------------
 CID_83079907_JID_6677_neutraal
 ------------------------------
 Charge =  0 Multiplicity = 1

 SCF Done:  E(RB3LYP) =  -695.846856375     A.U. after    1 cycles

  Exact polarizability: 169.602  -0.427 153.359  -0.281   1.768 127.009
 Approx polarizability: 209.945  -0.425 227.813  -1.369   2.987 187.707

                      1                      2                      3
                      A                      A                      A
 Frequencies --     36.4723                42.6152                70.0797
 Red. masses --      3.1940                 3.6179                 2.0255
 Frc consts  --      0.0025                 0.0039                 0.0059
 IR Inten    --      0.1115                 0.0378                 0.0977

                      4                      5                      6
                      A                      A                      A
 Frequencies --     77.4191               101.6311               124.6208
 Red. masses --      3.1332                 2.1139                 3.1046
 Frc consts  --      0.0111                 0.0129                 0.0284
 IR Inten    --      1.2456                 0.3329                 0.5801

                      7                      8                      9
                      A                      A                      A
 Frequencies --    142.8050               151.7404               161.8680
 Red. masses --      1.9533                 2.1628                 2.3501
 Frc consts  --      0.0235                 0.0293                 0.0363
 IR Inten    --      0.3661                 0.6251                 1.8534

                     10                     11                     12
                      A                      A                      A
 Frequencies --    190.6957               209.3716               218.5595
 Red. masses --      1.8925                 1.3046                 1.4856
 Frc consts  --      0.0405                 0.0337                 0.0418
 IR Inten    --      0.4406                 0.8294                 0.3724

                     13                     14                     15
                      A                      A                      A
 Frequencies --    222.1314               240.2306               246.0505
 Red. masses --      1.4719                 2.0510                 2.8637
 Frc consts  --      0.0428                 0.0697                 0.1021
 IR Inten    --      1.4052                 0.5237                 1.7849

                     16                     17                     18
                      A                      A                      A
 Frequencies --    263.0142               281.4820               307.0874
 Red. masses --      1.8723                 1.9579                 1.9250
 Frc consts  --      0.0763                 0.0914                 0.1070
 IR Inten    --      0.8525                 0.1110                 0.2320

                     19                     20                     21
                      A                      A                      A
 Frequencies --    331.2404               364.7162               376.5490
 Red. masses --      2.5580                 2.2295                 2.5899
 Frc consts  --      0.1654                 0.1747                 0.2164
 IR Inten    --      0.1471                 1.6611                 5.0943

                     22                     23                     24
                      A                      A                      A
 Frequencies --    412.5297               443.9764               462.1676
 Red. masses --      3.7455                 4.4683                 2.7869
 Frc consts  --      0.3755                 0.5189                 0.3507
 IR Inten    --      6.0888                 8.3029                 2.7876

                     25                     26                     27
                      A                      A                      A
 Frequencies --    491.9286               497.4108               519.9378
 Red. masses --      2.5355                 4.4919                 1.8317
 Frc consts  --      0.3615                 0.6548                 0.2917
 IR Inten    --      9.7380                 3.5002                68.6387

                     28                     29                     30
                      A                      A                      A
 Frequencies --    575.2835               625.3680               658.3722
 Red. masses --      2.6285                 2.0556                 3.3515
 Frc consts  --      0.5125                 0.4736                 0.8559
 IR Inten    --      2.2664                 6.0276                13.3211

                     31                     32                     33
                      A                      A                      A
 Frequencies --    725.9133               765.7953               785.7308
 Red. masses --      7.2742                 1.3085                 1.5864
 Frc consts  --      2.2584                 0.4521                 0.5770
 IR Inten    --     12.1100                 7.5283                 5.6874

                     34                     35                     36
                      A                      A                      A
 Frequencies --    795.6834               806.2191               844.1272
 Red. masses --      1.8725                 1.1841                 1.6703
 Frc consts  --      0.6985                 0.4535                 0.7013
 IR Inten    --      2.2180                 3.3847                22.6538

                     37                     38                     39
                      A                      A                      A
 Frequencies --    871.8471               879.7496               895.0645
 Red. masses --      2.1186                 1.9133                 1.7276
 Frc consts  --      0.9488                 0.8725                 0.8154
 IR Inten    --     14.4284                 2.0278                 3.5178

                     40                     41                     42
                      A                      A                      A
 Frequencies --    933.8744               948.7681               964.1240
 Red. masses --      2.3757                 1.7567                 2.0324
 Frc consts  --      1.2207                 0.9317                 1.1131
 IR Inten    --      0.6655                 8.0931                 2.5681

                     43                     44                     45
                      A                      A                      A
 Frequencies --    978.8323               987.8362               997.0229
 Red. masses --      1.8138                 1.3284                 1.9905
 Frc consts  --      1.0239                 0.7638                 1.1658
 IR Inten    --      4.0615                 3.6852                 5.9105

                     46                     47                     48
                      A                      A                      A
 Frequencies --   1007.4104              1050.3872              1053.8375
 Red. masses --      1.7929                 1.9405                 2.6250
 Frc consts  --      1.0720                 1.2614                 1.7176
 IR Inten    --      2.5263                 0.6326                 0.8104

                     49                     50                     51
                      A                      A                      A
 Frequencies --   1059.5168              1098.3772              1105.0381
 Red. masses --      2.0818                 2.2519                 2.3167
 Frc consts  --      1.3769                 1.6007                 1.6667
 IR Inten    --      5.7068                37.0205                 7.3711

                     52                     53                     54
                      A                      A                      A
 Frequencies --   1131.9750              1137.5314              1151.2589
 Red. masses --      1.6961                 2.6125                 2.1652
 Frc consts  --      1.2805                 1.9917                 1.6908
 IR Inten    --     34.7699                18.2507                27.4779

                     55                     56                     57
                      A                      A                      A
 Frequencies --   1171.1412              1176.1462              1184.9075
 Red. masses --      2.1651                 1.6488                 2.0083
 Frc consts  --      1.7496                 1.3438                 1.6613
 IR Inten    --      0.7331                14.3215                 4.5712

                     58                     59                     60
                      A                      A                      A
 Frequencies --   1195.0147              1220.6041              1236.3823
 Red. masses --      2.0059                 1.6317                 1.7279
 Frc consts  --      1.6877                 1.4324                 1.5562
 IR Inten    --     15.7948                11.2012                15.6419

                     61                     62                     63
                      A                      A                      A
 Frequencies --   1246.7661              1275.2570              1299.4577
 Red. masses --      2.7268                 1.3668                 1.4316
 Frc consts  --      2.4973                 1.3097                 1.4243
 IR Inten    --     16.9042                40.7880                38.2573

                     64                     65                     66
                      A                      A                      A
 Frequencies --   1314.5861              1323.0336              1339.7599
 Red. masses --      1.3123                 1.2230                 1.3291
 Frc consts  --      1.3362                 1.2613                 1.4056
 IR Inten    --     25.1432                 4.2386                 5.1686

                     67                     68                     69
                      A                      A                      A
 Frequencies --   1358.8209              1359.6067              1373.4402
 Red. masses --      1.3161                 1.3506                 1.3442
 Frc consts  --      1.4317                 1.4710                 1.4940
 IR Inten    --     16.0765                 1.7078                22.0581

                     70                     71                     72
                      A                      A                      A
 Frequencies --   1385.5577              1387.3162              1401.6254
 Red. masses --      1.4122                 1.4149                 1.3142
 Frc consts  --      1.5973                 1.6045                 1.5211
 IR Inten    --     30.5724                 3.2661                21.5881

                     73                     74                     75
                      A                      A                      A
 Frequencies --   1405.1015              1428.8909              1432.2555
 Red. masses --      1.5623                 1.2963                 1.2635
 Frc consts  --      1.8173                 1.5593                 1.5271
 IR Inten    --     61.0523                25.7620                12.8148

                     76                     77                     78
                      A                      A                      A
 Frequencies --   1441.1666              1441.6402              1461.0077
 Red. masses --      1.2457                 1.2332                 1.3665
 Frc consts  --      1.5244                 1.5100                 1.7186
 IR Inten    --     14.3581                 2.7985                 6.2506

                     79                     80                     81
                      A                      A                      A
 Frequencies --   1485.5339              1503.4843              1516.4526
 Red. masses --      1.5966                 1.0799                 1.0562
 Frc consts  --      2.0759                 1.4383                 1.4311
 IR Inten    --     44.8421                10.9873                 8.7549

                     82                     83                     84
                      A                      A                      A
 Frequencies --   1520.0938              1521.2213              1524.5669
 Red. masses --      1.0808                 1.0492                 1.0619
 Frc consts  --      1.4714                 1.4306                 1.4542
 IR Inten    --      2.4856                 6.0798                 1.2331

                     85                     86                     87
                      A                      A                      A
 Frequencies --   1527.9579              1530.4662              1534.7295
 Red. masses --      1.0781                 1.0534                 1.0573
 Frc consts  --      1.4829                 1.4537                 1.4672
 IR Inten    --      1.5999                 5.2221                 3.9521

                     88                     89                     90
                      A                      A                      A
 Frequencies --   1539.0139              1541.3205              1544.6876
 Red. masses --      1.0798                 1.0621                 1.0602
 Frc consts  --      1.5069                 1.4866                 1.4905
 IR Inten    --      3.8399                 4.6443                 4.5352

                     91                     92                     93
                      A                      A                      A
 Frequencies --   1546.9146              1557.9696              1567.7297
 Red. masses --      1.0657                 1.0842                 1.0902
 Frc consts  --      1.5025                 1.5505                 1.5787
 IR Inten    --      4.2137                 5.9014                 0.3251

                     94                     95                     96
                      A                      A                      A
 Frequencies --   1719.2335              2961.0342              3025.6481
 Red. masses --     10.0006                 1.0755                 1.0774
 Frc consts  --     17.4159                 5.5558                 5.8110
 IR Inten    --    218.7280                79.1060                23.7831

                     97                     98                     99
                      A                      A                      A
 Frequencies --   3037.2864              3042.0006              3050.6159
 Red. masses --      1.0728                 1.0402                 1.0427
 Frc consts  --      5.8308                 5.6711                 5.7171
 IR Inten    --     30.2793                26.4911                39.2535

                    100                    101                    102
                      A                      A                      A
 Frequencies --   3051.8696              3056.9174              3059.2014
 Red. masses --      1.0780                 1.0373                 1.0821
 Frc consts  --      5.9155                 5.7113                 5.9668
 IR Inten    --     27.9620                18.4052                53.5578

                    103                    104                    105
                      A                      A                      A
 Frequencies --   3063.6177              3065.6051              3078.5883
 Red. masses --      1.0675                 1.0412                 1.0639
 Frc consts  --      5.9032                 5.7653                 5.9407
 IR Inten    --      5.9256                26.7864                61.1098

                    106                    107                    108
                      A                      A                      A
 Frequencies --   3097.2201              3101.9268              3111.5258
 Red. masses --      1.0992                 1.0963                 1.0819
 Frc consts  --      6.2126                 6.2153                 6.1711
 IR Inten    --     24.7999                21.5685                 5.8805

                    109                    110                    111
                      A                      A                      A
 Frequencies --   3118.7644              3121.1177              3123.6446
 Red. masses --      1.1021                 1.0974                 1.0844
 Frc consts  --      6.3157                 6.2986                 6.2341
 IR Inten    --     47.3447                28.9574                51.1240

                    112                    113                    114
                      A                      A                      A
 Frequencies --   3124.8004              3126.3356              3130.9450
 Red. masses --      1.0998                 1.1006                 1.1019
 Frc consts  --      6.3271                 6.3378                 6.3641
 IR Inten    --     46.6492                 7.7931                32.5223

                    115                    116                    117
                      A                      A                      A
 Frequencies --   3141.6464              3154.3953              3163.2248
 Red. masses --      1.0936                 1.1037                 1.0983
 Frc consts  --      6.3595                 6.4705                 6.4748
 IR Inten    --     18.5532                20.3636                20.6635

                    118                    119                    120
                      A                      A                      A
 Frequencies --   3178.0560              3241.9249              3571.1120
 Red. masses --      1.0989                 1.0846                 1.0761
 Frc consts  --      6.5394                 6.7161                 8.0856
 IR Inten    --      7.3152                 6.6028                 0.4501

 - Thermochemistry -
 -------------------
 Temperature   298.150 Kelvin.  Pressure   1.00000 Atm.
 Atom     1 has atomic number  6 and mass  12.00000

 Molecular mass:   226.20451 amu.
 Principal axes and moments of inertia in atomic units:
                           1         2         3
     Eigenvalues --  2338.982284983.905545904.16136
           X            0.99997   0.00444   0.00570
           Y           -0.00443   0.99999  -0.00106
           Z           -0.00571   0.00104   0.99998
 This molecule is an asymmetric top.
 Rotational symmetry number  1.
 Warning -- assumption of classical behavior for rotation
           may cause significant error
 Rotational temperatures (Kelvin)      0.03703     0.01738     0.01467
 Rotational constants (GHZ):           0.77159     0.36211     0.30567
 Zero-point vibrational energy    1013016.7 (Joules/Mol)
                                  242.11680 (Kcal/Mol)
 Warning -- explicit consideration of  28 degrees of freedom as
           vibrations may cause significant error
 Vibrational temperatures:     52.48    61.31   100.83   111.39   146.22
          (Kelvin)            179.30   205.46   218.32   232.89   274.37
                              301.24   314.46   319.60   345.64   354.01
                              378.42   404.99   441.83   476.58   524.75
                              541.77   593.54   638.78   664.96   707.78
                              715.66   748.07   827.70   899.77   947.25
                             1044.43  1101.81  1130.49  1144.81  1159.97
                             1214.51  1254.39  1265.76  1287.80  1343.64
                             1365.07  1387.16  1408.32  1421.28  1434.49
                             1449.44  1511.27  1516.24  1524.41  1580.32
                             1589.90  1628.66  1636.65  1656.40  1685.01
                             1692.21  1704.82  1719.36  1756.18  1778.88
                             1793.82  1834.81  1869.63  1891.40  1903.55
                             1927.62  1955.04  1956.17  1976.07  1993.51
                             1996.04  2016.63  2021.63  2055.86  2060.70
                             2073.52  2074.20  2102.06  2137.35  2163.18
                             2181.84  2187.08  2188.70  2193.51  2198.39
                             2202.00  2208.13  2214.30  2217.62  2222.46
                             2225.67  2241.57  2255.61  2473.59  4260.27
                             4353.23  4369.98  4376.76  4389.16  4390.96
                             4398.22  4401.51  4407.86  4410.72  4429.40
                             4456.21  4462.98  4476.79  4487.21  4490.59
                             4494.23  4495.89  4498.10  4504.73  4520.13
                             4538.47  4551.17  4572.51  4664.41  5138.03

 Zero-point correction=                           0.385838 (Hartree/Particle)
 Thermal correction to Energy=                    0.404274
 Thermal correction to Enthalpy=                  0.405218
 Thermal correction to Gibbs Free Energy=         0.340113
 Sum of electronic and zero-point Energies=           -695.461019
 Sum of electronic and thermal Energies=              -695.442582
 Sum of electronic and thermal Enthalpies=            -695.441638
 Sum of electronic and thermal Free Energies=         -695.506744

                     E (Thermal)             CV                S
                      KCal/Mol        Cal/Mol-Kelvin    Cal/Mol-Kelvin
 Total                  253.686             70.088            137.026
 Electronic               0.000              0.000              0.000
 Translational            0.889              2.981             42.151
 Rotational               0.889              2.981             32.598
 Vibrational            251.908             64.127             62.277
 Vibration     1          0.594              1.982              5.442
 Vibration     2          0.595              1.980              5.134
 Vibration     3          0.598              1.968              4.151
 Vibration     4          0.599              1.964              3.955
 Vibration     5          0.604              1.948              3.423
 Vibration     6          0.610              1.928              3.027
 Vibration     7          0.616              1.910              2.766
 Vibration     8          0.619              1.901              2.650
 Vibration     9          0.622              1.889              2.528
 Vibration    10          0.634              1.853              2.221
 Vibration    11          0.642              1.826              2.049
 Vibration    12          0.646              1.813              1.971
 Vibration    13          0.648              1.807              1.942
 Vibration    14          0.657              1.779              1.801
 Vibration    15          0.661              1.769              1.759
 Vibration    16          0.670              1.741              1.642
 Vibration    17          0.681              1.708              1.525
 Vibration    18          0.697              1.660              1.378
 Vibration    19          0.714              1.613              1.254
 Vibration    20          0.738              1.545              1.102
 Vibration    21          0.747              1.520              1.053
 Vibration    22          0.776              1.443              0.918
 Vibration    23          0.803              1.374              0.814
 Vibration    24          0.820              1.334              0.760
 Vibration    25          0.848              1.268              0.679
 Vibration    26          0.853              1.256              0.665
 Vibration    27          0.875              1.206              0.610
 Vibration    28          0.932              1.085              0.494

 Optimization completed.
    -- Stationary point found.
 Normal termination of Gaussian 16 at Fri Dec 11 00:48:31 2020.

 ----------------------------------------------------------------------
 # B3LYP/6-311++G(d,p) empiricaldispersion=gd3bj scf=xqc pop=npa geom=c
 heck
 ----------------------------------------------------------------------

 --------------------------------------
 CID_83079907_JID_6677_Energie_neutraal
 --------------------------------------
 Structure from the checkpoint file:  "JID_6677.chk"
 Charge =  0 Multiplicity = 1

 SCF Done:  E(RB3LYP) =  -696.043511129     A.U. after   16 cycles
 Normal termination of Gaussian 16 at Fri Dec 11 00:59:23 2020.

 ----------------------------------------------------------------------
 # B3LYP/6-311++G(d,p) empiricaldispersion=gd3bj scf=xqc pop=npa geom=c
 heck
 ----------------------------------------------------------------------

 ------------------------------------
 CID_83079907_JID_6677_Energie_kation
 ------------------------------------
 Structure from the checkpoint file:  "JID_6677.chk"
 Charge =  1 Multiplicity = 2

 SCF Done:  E(UB3LYP) =  -695.754764791     A.U. after   30 cycles
 Normal termination of Gaussian 16 at Fri Dec 11 01:27:50 2020.
 Gaussian 16:  ES64L-G16RevA.03 25-Dec-2016

 ----------------------------------------------------------------------
 # B3LYP/6-311++G(d,p) empiricaldispersion=gd3bj scf=xqc pop=npa geom=c
 heck
 ----------------------------------------------------------------------

 -----------------------------------
 CID_83079907_JID_6677_Energie_anion
 -----------------------------------
 Structure from the checkpoint file:  "JID_6677.chk"
 Charge = -1 Multiplicity = 2

                         Standard orientation:
 ---------------------------------------------------------------------
 Center     Atomic      Atomic             Coordinates (Angstroms)
 Number     Number       Type             X           Y           Z
 ---------------------------------------------------------------------
      1          6           0        4.451095   -0.495895    1.092650
      2          6           0        2.920938   -0.475030    1.049238
      3          6           0        2.361317    0.227100   -0.200969
      4          6           0        2.725811   -0.456994   -1.523152
      5          7           0        0.901226    0.477992   -0.075261
      6          6           0        0.540685    1.891278    0.026258
      7          6           0        0.739563    2.666255   -1.279761
      8          6           0        0.050069   -0.602389   -0.016840
      9          8           0        0.505804   -1.742895   -0.103403
     10          6           0       -1.481442   -0.420868    0.206400
     11          6           0       -2.208327    0.415912   -0.880355
     12          6           0       -3.356819    1.077273   -0.102140
     13          6           0       -2.720842    1.397631    1.258491
     14          7           0       -1.766507    0.303729    1.476534
     15          6           0       -2.128536   -1.825668    0.337904
     16          6           0       -2.197050   -2.697512   -0.919628
     17          1           0        4.871771   -1.106341    0.286680
     18          1           0        4.805106   -0.915748    2.040341
     19          1           0        4.870415    0.514486    0.999775
     20          1           0        2.522841   -1.490822    1.095420
     21          1           0        2.540165    0.059367    1.930456
     22          1           0        2.807361    1.228365   -0.222379
     23          1           0        2.371254   -1.487971   -1.536021
     24          1           0        2.271503    0.078812   -2.363432
     25          1           0        3.811182   -0.448489   -1.666349
     26          1           0       -0.488141    1.979852    0.354046
     27          1           0        1.156697    2.343478    0.816451
     28          1           0        0.124323    2.246258   -2.081929
     29          1           0        0.458693    3.716305   -1.140555
     30          1           0        1.782449    2.638751   -1.610719
     31          1           0       -1.555109    1.179566   -1.307019
     32          1           0       -2.556139   -0.201609   -1.710055
     33          1           0       -3.751733    1.969211   -0.597778
     34          1           0       -4.184919    0.372091    0.023300
     35          1           0       -2.240869    2.391191    1.222653
     36          1           0       -3.463370    1.432727    2.064758
     37          1           0       -0.934888    0.577620    1.985373
     38          1           0       -1.583092   -2.356323    1.122843
     39          1           0       -3.140181   -1.658203    0.725385
     40          1           0       -1.205220   -2.841369   -1.351612
     41          1           0       -2.601505   -3.683899   -0.664443
     42          1           0       -2.856827   -2.272765   -1.685460
 ---------------------------------------------------------------------

 SCF Done:  E(UB3LYP) =  -696.032629241     A.U. after   31 cycles

 The electronic state is 2-A.
 Alpha  occ. eigenvalues --  -18.98468 -14.24286 -14.20208 -10.17192 -10.12129
 Alpha  occ. eigenvalues --  -10.11269 -10.10815 -10.09850 -10.07696 -10.07672
 Alpha  occ. eigenvalues --  -10.06795 -10.06722 -10.06473 -10.06455 -10.06095
 Alpha  occ. eigenvalues --  -10.06019  -0.94085  -0.83800  -0.82376  -0.70199
 Alpha  occ. eigenvalues --   -0.68622  -0.67164  -0.65751  -0.63327  -0.61697
 Alpha  occ. eigenvalues --   -0.56000  -0.54347  -0.53816  -0.51101  -0.49491
 Alpha  occ. eigenvalues --   -0.47626  -0.44400  -0.41850  -0.39714  -0.38618
 Alpha  occ. eigenvalues --   -0.37239  -0.35905  -0.35325  -0.34450  -0.34027
 Alpha  occ. eigenvalues --   -0.33369  -0.32498  -0.32256  -0.30626  -0.30006
 Alpha  occ. eigenvalues --   -0.29427  -0.29291  -0.28915  -0.28357  -0.27410
 Alpha  occ. eigenvalues --   -0.26750  -0.26406  -0.26189  -0.25595  -0.25027
 Alpha  occ. eigenvalues --   -0.24643  -0.23830  -0.23497  -0.23098  -0.22433
 Alpha  occ. eigenvalues --   -0.15756  -0.14562  -0.12631   0.04156
 Alpha virt. eigenvalues --    0.06219   0.07023   0.07219   0.08015   0.08486
 Alpha virt. eigenvalues --    0.08755   0.09211   0.09489   0.10071   0.10375
 Alpha virt. eigenvalues --    0.10743   0.11000   0.11519   0.11835   0.12460

  Beta  occ. eigenvalues --  -18.98458 -14.24291 -14.20199 -10.17179 -10.12131
  Beta  occ. eigenvalues --  -10.11257 -10.10789 -10.09826 -10.07685 -10.07656
  Beta  occ. eigenvalues --  -10.06773 -10.06713 -10.06452 -10.06428 -10.06091
  Beta  occ. eigenvalues --  -10.06007  -0.94065  -0.83787  -0.82360  -0.70173
  Beta  occ. eigenvalues --   -0.68609  -0.67133  -0.65705  -0.63301  -0.61673
  Beta  occ. eigenvalues --   -0.55963  -0.54266  -0.53792  -0.51054  -0.49435
  Beta  occ. eigenvalues --   -0.47602  -0.44364  -0.41814  -0.39692  -0.38593
  Beta  occ. eigenvalues --   -0.37205  -0.35869  -0.35299  -0.34428  -0.34003
  Beta  occ. eigenvalues --   -0.33344  -0.32468  -0.32237  -0.30595  -0.29979
  Beta  occ. eigenvalues --   -0.29382  -0.29265  -0.28868  -0.28316  -0.27383
  Beta  occ. eigenvalues --   -0.26718  -0.26387  -0.26158  -0.25561  -0.25003
  Beta  occ. eigenvalues --   -0.24617  -0.23807  -0.23475  -0.23076  -0.22414
  Beta  occ. eigenvalues --   -0.15735  -0.14547  -0.12616
  Beta virt. eigenvalues --    0.06355   0.06771   0.07520   0.07704   0.08462
  Beta virt. eigenvalues --    0.08741   0.09070   0.09673   0.09727   0.10202
  Beta virt. eigenvalues --    0.10626   0.11070   0.11106   0.11680   0.12087

 Mulliken charges and spin densities:
               1          2
     1  C    0.539351  -1.187104
     2  C   -0.685818   0.780022
     3  C   -0.243961  -0.199097
     4  C    0.333063  -0.771434
     5  N    0.428886  -0.000549
     6  C   -0.902871   0.947792
     7  C    1.194972  -1.696110
     8  C   -1.219331  -0.168183
     9  O   -0.216969  -0.004978
    10  C    0.377196  -0.143133
    11  C   -0.788168   0.784062
    12  C    0.581106  -1.211032
    13  C    0.084767  -0.140133
    14  N   -0.041809   0.108750
    15  C    0.147222  -0.183394
    16  C   -0.597692  -0.007894
    17  H    0.048846   0.086289
    18  H   -0.012301   0.150200
    19  H   -0.319467   0.464153
    20  H    0.182724   0.003920
    21  H   -0.035864   0.167285
    22  H    0.450312  -0.283324
    23  H    0.186717   0.004448
    24  H    0.082294   0.040220
    25  H   -0.056763   0.207180
    26  H    1.552675  -1.494497
    27  H   -0.746470   0.948358
    28  H   -0.221401   0.374502
    29  H   -0.644472   0.816662
    30  H   -0.433324   0.587740
    31  H    0.400384  -0.270784
    32  H   -0.088435   0.239742
    33  H   -0.560267   0.754533
    34  H    0.239331  -0.122583
    35  H   -0.523600   0.701230
    36  H   -0.230290   0.399474
    37  H    0.067765   0.221867
    38  H    0.184065  -0.000512
    39  H    0.136620   0.023957
    40  H    0.156258   0.033090
    41  H    0.107612   0.016196
    42  H    0.087107   0.023070
 Sum of Mulliken charges =  -1.00000   1.00000

 Dipole moment (field-independent basis, Debye):
    X=             -1.6720    Y=             -7.1708    Z=             -0.6601  Tot=              7.3927
 Quadrupole moment (field-independent basis, Debye-Ang):
   XX=           -168.9566   YY=           -169.8440   ZZ=           -139.0100
   XY=              1.6703   XZ=             -0.8868   YZ=              1.6095

 Summary of Natural Population Analysis:

                                       Natural Population
                Natural  -----------------------------------------------
    Atom  No    Charge         Core      Valence    Rydberg      Total
 -----------------------------------------------------------------------
      C    1   -0.28625      0.99967     2.28174    0.00484     3.28625
      C    2   -0.19697      0.99961     2.18860    0.00876     3.19697
      C    3   -0.00212      0.99958     1.98869    0.01386     3.00212
      C    4   -0.29380      0.99963     2.28802    0.00615     3.29380
      N    5   -0.25635      0.99963     2.74406    0.01266     3.75635
      C    6   -0.09175      0.99959     2.07991    0.01225     3.09175
      C    7   -0.28833      0.99965     2.28335    0.00532     3.28833
      C    8    0.35246      0.99958     1.62407    0.02389     2.64754
      O    9   -0.33350      0.99988     3.32864    0.00499     4.33350
      C   10    0.03154      0.99954     1.95522    0.01370     2.96846
      C   11   -0.19597      0.99959     2.18766    0.00872     3.19597
      C   12   -0.19539      0.99963     2.18729    0.00847     3.19539
      C   13   -0.08799      0.99963     2.07737    0.01099     3.08799
      N   14   -0.34885      0.99973     2.83845    0.01068     3.84885
      C   15   -0.18884      0.99960     2.17906    0.01018     3.18884
      C   16   -0.29041      0.99966     2.28620    0.00455     3.29041
      H   17    0.09513      0.00000     0.40402    0.00085     0.40487
      H   18    0.09849      0.00000     0.40085    0.00066     0.40151
      H   19    0.09752      0.00000     0.40134    0.00115     0.40248
      H   20    0.10891      0.00000     0.38988    0.00120     0.39109
      H   21    0.09697      0.00000     0.40181    0.00122     0.40303
      H   22    0.09678      0.00000     0.40079    0.00242     0.40322
      H   23    0.11153      0.00000     0.38758    0.00090     0.38847
      H   24    0.10093      0.00000     0.39821    0.00086     0.39907
      H   25    0.09807      0.00000     0.40127    0.00066     0.40193
      H   26    0.10368      0.00000     0.39295    0.00337     0.39632
      H   27    0.09699      0.00000     0.40073    0.00228     0.40301
      H   28    0.09639      0.00000     0.40238    0.00123     0.40361
      H   29    0.10673      0.00000     0.39107    0.00220     0.39327
      H   30    0.09977      0.00000     0.39884    0.00140     0.40023
      H   31    0.10329      0.00000     0.39489    0.00182     0.39671
      H   32    0.10374      0.00000     0.39526    0.00100     0.39626
      H   33    0.10649      0.00000     0.39220    0.00132     0.39351
      H   34    0.09455      0.00000     0.40425    0.00119     0.40545
      H   35    0.08515      0.00000     0.41254    0.00230     0.41485
      H   36    0.09253      0.00000     0.40627    0.00120     0.40747
      H   37    0.18259      0.00000     0.31424    0.00317     0.31741
      H   38    0.10619      0.00000     0.39267    0.00114     0.39381
      H   39    0.09599      0.00000     0.40281    0.00120     0.40401
      H   40    0.10941      0.00000     0.38955    0.00105     0.39059
      H   41    0.09490      0.00000     0.40422    0.00088     0.40510
      H   42    0.08980      0.00000     0.40922    0.00097     0.41020
 =======================================================================
   * Total *   -0.00000     15.99419    46.80814    0.19767    63.00000

 Normal termination of Gaussian 16 at Fri Dec 11 01:57:22 2020.
