 Gaussian 16, Revision A.03,

 -----------------------------------------------------------
 # opt freq B3LYP/6-31G(d) empiricaldispersion=gd3bj scf=xqc
 -----------------------------------------------------------

 ------------------------------
 CID_83177370_JID_1671_neutraal
 ------------------------------
 Symbolic Z-matrix:
 Charge =  0 Multiplicity = 1

 SCF Done:  E(RB3LYP) =  -500.418156564     A.U. after   12 cycles
 SCF Done:  E(RB3LYP) =  -500.422125808     A.U. after   11 cycles
 SCF Done:  E(RB3LYP) =  -500.422469788     A.U. after   10 cycles
 SCF Done:  E(RB3LYP) =  -500.422975317     A.U. after   10 cycles
 SCF Done:  E(RB3LYP) =  -500.423162285     A.U. after   10 cycles
 SCF Done:  E(RB3LYP) =  -500.423258588     A.U. after   10 cycles
 SCF Done:  E(RB3LYP) =  -500.423319646     A.U. after    9 cycles
 SCF Done:  E(RB3LYP) =  -500.423359514     A.U. after    9 cycles
 SCF Done:  E(RB3LYP) =  -500.423368384     A.U. after    9 cycles
 SCF Done:  E(RB3LYP) =  -500.423390575     A.U. after    9 cycles
 SCF Done:  E(RB3LYP) =  -500.423489826     A.U. after    9 cycles
 SCF Done:  E(RB3LYP) =  -500.423490182     A.U. after    7 cycles
 SCF Done:  E(RB3LYP) =  -500.423491171     A.U. after    7 cycles
 SCF Done:  E(RB3LYP) =  -500.423491248     A.U. after    7 cycles
 SCF Done:  E(RB3LYP) =  -500.423491183     A.U. after    7 cycles
 SCF Done:  E(RB3LYP) =  -500.423491258     A.U. after    6 cycles
 Optimization completed.
    -- Stationary point found.
 Normal termination of Gaussian 16 at Tue Dec  8 20:58:57 2020.

 --------------------------------------------------------------------
 #N Geom=AllCheck Guess=TCheck SCRF=Check GenChk RB3LYP/6-31G(d) Freq
 --------------------------------------------------------------------

 Structure from the checkpoint file:  "JID_1671.chk"
 ------------------------------
 CID_83177370_JID_1671_neutraal
 ------------------------------
 Charge =  0 Multiplicity = 1

 SCF Done:  E(RB3LYP) =  -500.423491258     A.U. after    1 cycles

  Exact polarizability: 114.053  -4.166  93.154  -2.418   0.429  90.297
 Approx polarizability: 139.127  -4.871 129.912  -2.562   3.424 134.581

                      1                      2                      3
                      A                      A                      A
 Frequencies --     29.0708                40.5346                51.5098
 Red. masses --      2.4677                 3.0310                 3.9294
 Frc consts  --      0.0012                 0.0029                 0.0061
 IR Inten    --      0.6075                 1.3744                 0.7266

                      4                      5                      6
                      A                      A                      A
 Frequencies --     85.7847               166.9723               190.3782
 Red. masses --      3.1484                 3.9659                 2.3268
 Frc consts  --      0.0137                 0.0651                 0.0497
 IR Inten    --      1.8535                 2.1456                 0.9329

                      7                      8                      9
                      A                      A                      A
 Frequencies --    234.7124               264.4421               272.5770
 Red. masses --      1.4540                 1.1581                 1.8442
 Frc consts  --      0.0472                 0.0477                 0.0807
 IR Inten    --     11.9341                61.5095                 6.1459

                     10                     11                     12
                      A                      A                      A
 Frequencies --    293.2009               303.4178               355.8590
 Red. masses --      1.6851                 3.1169                 2.4565
 Frc consts  --      0.0853                 0.1691                 0.1833
 IR Inten    --     36.4851                 4.7467                 0.8251

                     13                     14                     15
                      A                      A                      A
 Frequencies --    418.1808               454.0385               539.0597
 Red. masses --      2.2978                 2.3594                 2.2435
 Frc consts  --      0.2367                 0.2866                 0.3841
 IR Inten    --      7.2922                 1.8381                 2.1274

                     16                     17                     18
                      A                      A                      A
 Frequencies --    563.0336               621.1915               659.0674
 Red. masses --      2.4145                 2.4896                 2.7547
 Frc consts  --      0.4510                 0.5660                 0.7050
 IR Inten    --      1.1731                 6.6957                 2.6243

                     19                     20                     21
                      A                      A                      A
 Frequencies --    729.8740               794.6224               817.0468
 Red. masses --      2.1183                 1.6926                 1.9617
 Frc consts  --      0.6649                 0.6297                 0.7716
 IR Inten    --     44.4146                14.7575                19.7704

                     22                     23                     24
                      A                      A                      A
 Frequencies --    855.5196               868.2751               884.4798
 Red. masses --      1.9979                 1.8057                 2.1873
 Frc consts  --      0.8616                 0.8021                 1.0082
 IR Inten    --     72.8955                49.3901                20.5611

                     25                     26                     27
                      A                      A                      A
 Frequencies --    918.2442               942.3455               951.2833
 Red. masses --      1.8843                 2.4438                 2.3680
 Frc consts  --      0.9361                 1.2786                 1.2625
 IR Inten    --      4.8469                13.0117                20.3370

                     28                     29                     30
                      A                      A                      A
 Frequencies --    981.6431              1013.9982              1023.4671
 Red. masses --      1.8021                 1.4174                 1.6315
 Frc consts  --      1.0231                 0.8587                 1.0069
 IR Inten    --      0.1222                 2.0666                14.3155

                     31                     32                     33
                      A                      A                      A
 Frequencies --   1041.1065              1052.8703              1067.0227
 Red. masses --      1.5079                 1.9801                 3.1685
 Frc consts  --      0.9630                 1.2932                 2.1254
 IR Inten    --      4.1383                12.7503                37.6525

                     34                     35                     36
                      A                      A                      A
 Frequencies --   1107.3870              1125.4435              1137.0568
 Red. masses --      3.8960                 2.2096                 1.7119
 Frc consts  --      2.8149                 1.6489                 1.3040
 IR Inten    --     18.0125                34.2953                 8.2657

                     37                     38                     39
                      A                      A                      A
 Frequencies --   1163.3739              1179.8428              1222.4103
 Red. masses --      1.9047                 2.7311                 1.4457
 Frc consts  --      1.5188                 2.2399                 1.2728
 IR Inten    --      8.7530                20.5492                 2.6102

                     40                     41                     42
                      A                      A                      A
 Frequencies --   1242.5191              1246.6338              1270.1910
 Red. masses --      1.3258                 1.3553                 1.1435
 Frc consts  --      1.2060                 1.2410                 1.0870
 IR Inten    --     66.7173                41.4103                10.1852

                     43                     44                     45
                      A                      A                      A
 Frequencies --   1293.0830              1308.8737              1329.6566
 Red. masses --      1.4273                 1.2888                 1.2517
 Frc consts  --      1.4061                 1.3008                 1.3039
 IR Inten    --      2.4854                 5.3280                14.5243

                     46                     47                     48
                      A                      A                      A
 Frequencies --   1343.2611              1352.3286              1356.1888
 Red. masses --      1.2626                 1.2743                 1.2179
 Frc consts  --      1.3423                 1.3731                 1.3198
 IR Inten    --      0.5587                 2.0374                 1.0821

                     49                     50                     51
                      A                      A                      A
 Frequencies --   1378.6048              1400.6541              1408.0542
 Red. masses --      1.3210                 1.3091                 1.3810
 Frc consts  --      1.4792                 1.5131                 1.6131
 IR Inten    --     12.2225                 1.5289                 2.2230

                     52                     53                     54
                      A                      A                      A
 Frequencies --   1428.6506              1436.9344              1471.2689
 Red. masses --      1.3640                 1.2902                 1.4301
 Frc consts  --      1.6403                 1.5696                 1.8239
 IR Inten    --     14.3775                16.4107                 2.6424

                     55                     56                     57
                      A                      A                      A
 Frequencies --   1482.6937              1496.7444              1513.8432
 Red. masses --      1.1514                 1.0979                 1.0558
 Frc consts  --      1.4913                 1.4492                 1.4256
 IR Inten    --      7.3843                 4.3038                 7.0740

                     58                     59                     60
                      A                      A                      A
 Frequencies --   1517.5351              1520.3677              1527.5871
 Red. masses --      1.0844                 1.0871                 1.0514
 Frc consts  --      1.4713                 1.4805                 1.4456
 IR Inten    --      2.1791                 1.8755                 3.6873

                     61                     62                     63
                      A                      A                      A
 Frequencies --   1536.6890              1552.2669              1563.2936
 Red. masses --      1.1011                 1.1193                 1.1648
 Frc consts  --      1.5320                 1.5890                 1.6772
 IR Inten    --      3.1602                16.1020                19.2433

                     64                     65                     66
                      A                      A                      A
 Frequencies --   3003.6163              3028.3235              3036.0335
 Red. masses --      1.0609                 1.0795                 1.0760
 Frc consts  --      5.6393                 5.8326                 5.8433
 IR Inten    --     66.6294                29.2185                14.0405

                     67                     68                     69
                      A                      A                      A
 Frequencies --   3039.3053              3043.1911              3043.8831
 Red. masses --      1.0710                 1.0653                 1.0760
 Frc consts  --      5.8288                 5.8129                 5.8737
 IR Inten    --     48.2740                28.4903                36.1357

                     70                     71                     72
                      A                      A                      A
 Frequencies --   3049.8533              3051.8616              3069.4629
 Red. masses --      1.0678                 1.0711                 1.0675
 Frc consts  --      5.8517                 5.8779                 5.9258
 IR Inten    --     24.0328                64.0602                31.9827

                     73                     74                     75
                      A                      A                      A
 Frequencies --   3088.1689              3105.1996              3111.2180
 Red. masses --      1.1009                 1.0946                 1.0992
 Frc consts  --      6.1856                 6.2185                 6.2687
 IR Inten    --     51.5534                34.4341                37.3413

                     76                     77                     78
                      A                      A                      A
 Frequencies --   3119.8627              3121.8139              3129.2519
 Red. masses --      1.0993                 1.1020                 1.1014
 Frc consts  --      6.3046                 6.3277                 6.3543
 IR Inten    --     16.9688                79.5855                31.2907

                     79                     80                     81
                      A                      A                      A
 Frequencies --   3458.0159              3544.5220              3759.1445
 Red. masses --      1.0741                 1.0753                 1.0665
 Frc consts  --      7.5675                 7.9594                 8.8793
 IR Inten    --      4.2505                63.7284                17.5959

 - Thermochemistry -
 -------------------
 Temperature   298.150 Kelvin.  Pressure   1.00000 Atm.
 Atom     1 has atomic number  6 and mass  12.00000

 Molecular mass:   158.14191 amu.
 Principal axes and moments of inertia in atomic units:
                           1         2         3
     Eigenvalues --   916.233573079.134963362.91207
           X            0.99988  -0.01516  -0.00421
           Y            0.01510   0.99978  -0.01427
           Z            0.00443   0.01421   0.99989
 This molecule is an asymmetric top.
 Rotational symmetry number  1.
 Warning -- assumption of classical behavior for rotation
           may cause significant error
 Rotational temperatures (Kelvin)      0.09453     0.02813     0.02576
 Rotational constants (GHZ):           1.96974     0.58612     0.53666
 Zero-point vibrational energy     701017.6 (Joules/Mol)
                                  167.54723 (Kcal/Mol)
 Warning -- explicit consideration of  16 degrees of freedom as
           vibrations may cause significant error
 Vibrational temperatures:     41.83    58.32    74.11   123.43   240.24
          (Kelvin)            273.91   337.70   380.47   392.18   421.85
                              436.55   512.00   601.67   653.26   775.59
                              810.08   893.76   948.25  1050.13  1143.28
                             1175.55  1230.90  1249.25  1272.57  1321.15
                             1355.82  1368.68  1412.37  1458.92  1472.54
                             1497.92  1514.85  1535.21  1593.28  1619.26
                             1635.97  1673.84  1697.53  1758.78  1787.71
                             1793.63  1827.52  1860.46  1883.18  1913.08
                             1932.65  1945.70  1951.25  1983.50  2015.23
                             2025.88  2055.51  2067.43  2116.83  2133.27
                             2153.48  2178.08  2183.39  2187.47  2197.86
                             2210.95  2233.37  2249.23  4321.53  4357.08
                             4368.18  4372.88  4378.47  4379.47  4388.06
                             4390.95  4416.27  4443.19  4467.69  4476.35
                             4488.79  4491.59  4502.30  4975.31  5099.78
                             5408.57

 Zero-point correction=                           0.267004 (Hartree/Particle)
 Thermal correction to Energy=                    0.279273
 Thermal correction to Enthalpy=                  0.280217
 Thermal correction to Gibbs Free Energy=         0.227293
 Sum of electronic and zero-point Energies=           -500.156488
 Sum of electronic and thermal Energies=              -500.144219
 Sum of electronic and thermal Enthalpies=            -500.143275
 Sum of electronic and thermal Free Energies=         -500.196198

                     E (Thermal)             CV                S
                      KCal/Mol        Cal/Mol-Kelvin    Cal/Mol-Kelvin
 Total                  175.246             45.802            111.387
 Electronic               0.000              0.000              0.000
 Translational            0.889              2.981             41.084
 Rotational               0.889              2.981             30.629
 Vibrational            173.469             39.841             39.674
 Vibration     1          0.593              1.984              5.892
 Vibration     2          0.594              1.981              5.233
 Vibration     3          0.596              1.977              4.759
 Vibration     4          0.601              1.959              3.754
 Vibration     5          0.624              1.883              2.469
 Vibration     6          0.634              1.853              2.224
 Vibration     7          0.655              1.788              1.843
 Vibration     8          0.671              1.738              1.632
 Vibration     9          0.676              1.724              1.580
 Vibration    10          0.688              1.686              1.455
 Vibration    11          0.695              1.667              1.398
 Vibration    12          0.731              1.563              1.140
 Vibration    13          0.781              1.431              0.898
 Vibration    14          0.812              1.352              0.784
 Vibration    15          0.894              1.164              0.567
 Vibration    16          0.919              1.111              0.518

                           ! Non-Optimized Parameters !
 Normal termination of Gaussian 16 at Tue Dec  8 21:05:26 2020.

 ----------------------------------------------------------------------
 # B3LYP/6-311++G(d,p) empiricaldispersion=gd3bj scf=xqc pop=npa geom=c
 heck
 ----------------------------------------------------------------------

 --------------------------------------
 CID_83177370_JID_1671_Energie_neutraal
 --------------------------------------
 Structure from the checkpoint file:  "JID_1671.chk"
 Charge =  0 Multiplicity = 1

 SCF Done:  E(RB3LYP) =  -500.583598605     A.U. after   13 cycles
 Normal termination of Gaussian 16 at Tue Dec  8 21:08:39 2020.

 ----------------------------------------------------------------------
 # B3LYP/6-311++G(d,p) empiricaldispersion=gd3bj scf=xqc pop=npa geom=c
 heck
 ----------------------------------------------------------------------

 ------------------------------------
 CID_83177370_JID_1671_Energie_kation
 ------------------------------------
 Structure from the checkpoint file:  "JID_1671.chk"
 Charge =  1 Multiplicity = 2

 SCF Done:  E(UB3LYP) =  -500.306804781     A.U. after   18 cycles
 Normal termination of Gaussian 16 at Tue Dec  8 21:15:28 2020.
 Gaussian 16:  ES64L-G16RevA.03 25-Dec-2016

 ----------------------------------------------------------------------
 # B3LYP/6-311++G(d,p) empiricaldispersion=gd3bj scf=xqc pop=npa geom=c
 heck
 ----------------------------------------------------------------------

 -----------------------------------
 CID_83177370_JID_1671_Energie_anion
 -----------------------------------
 Structure from the checkpoint file:  "JID_1671.chk"
 Charge = -1 Multiplicity = 2

                         Standard orientation:
 ---------------------------------------------------------------------
 Center     Atomic      Atomic             Coordinates (Angstroms)
 Number     Number       Type             X           Y           Z
 ---------------------------------------------------------------------
      1          6           0       -1.358932    2.163913    0.158531
      2          6           0       -0.822649    0.748786    0.418646
      3          6           0       -1.883993   -0.161531    1.078133
      4          6           0       -3.132133   -0.446150    0.249924
      5          8           0       -2.774867   -1.303594   -0.840806
      6          7           0       -0.265371    0.192364   -0.823108
      7          6           0        1.102738   -0.304345   -0.786913
      8          6           0        1.535042   -1.285555    0.359901
      9          6           0        2.840954   -0.672350    0.925890
     10          7           0        3.362183    0.267324   -0.084950
     11          6           0        2.150184    0.835152   -0.684279
     12          1           0       -2.129456    2.154167   -0.620020
     13          1           0       -0.548456    2.805295   -0.200288
     14          1           0       -1.785690    2.611901    1.065327
     15          1           0       -0.009138    0.840642    1.150766
     16          1           0       -1.430020   -1.125534    1.338251
     17          1           0       -2.209983    0.302450    2.018695
     18          1           0       -3.886434   -0.936495    0.884297
     19          1           0       -3.571390    0.491449   -0.119914
     20          1           0       -3.527161   -1.348368   -1.449373
     21          1           0       -0.900579   -0.506437   -1.194751
     22          1           0        1.255425   -0.813860   -1.745828
     23          1           0        1.707086   -2.290696   -0.040137
     24          1           0        0.762166   -1.376410    1.128333
     25          1           0        2.623266   -0.098352    1.836178
     26          1           0        3.603083   -1.413575    1.184785
     27          1           0        3.844812   -0.275692   -0.801721
     28          1           0        2.364927    1.299600   -1.650691
     29          1           0        1.771528    1.623336   -0.020057
 ---------------------------------------------------------------------

 SCF Done:  E(UB3LYP) =  -500.570664898     A.U. after   28 cycles

 The electronic state is 2-A.
 Alpha  occ. eigenvalues --  -19.01470 -14.19792 -14.17619 -10.10643 -10.09392
 Alpha  occ. eigenvalues --  -10.09106 -10.09096 -10.08384 -10.06235 -10.05869
 Alpha  occ. eigenvalues --  -10.05156  -0.91373  -0.82331  -0.78814  -0.67909
 Alpha  occ. eigenvalues --   -0.63546  -0.61674  -0.59971  -0.53292  -0.50347
 Alpha  occ. eigenvalues --   -0.47858  -0.45088  -0.41383  -0.40666  -0.39596
 Alpha  occ. eigenvalues --   -0.36470  -0.34532  -0.33144  -0.32211  -0.31453
 Alpha  occ. eigenvalues --   -0.30124  -0.29175  -0.28299  -0.27089  -0.26311
 Alpha  occ. eigenvalues --   -0.25990  -0.24828  -0.24675  -0.23388  -0.21408
 Alpha  occ. eigenvalues --   -0.21048  -0.17045  -0.14083  -0.10553   0.04483
 Alpha virt. eigenvalues --    0.06063   0.07324   0.08237   0.08978   0.09347
 Alpha virt. eigenvalues --    0.09584   0.10402   0.11259   0.11578   0.11862
 Alpha virt. eigenvalues --    0.12449   0.13260   0.14001   0.14369   0.14768

  Beta  occ. eigenvalues --  -19.01419 -14.19778 -14.17611 -10.10600 -10.09387
  Beta  occ. eigenvalues --  -10.09097 -10.09083 -10.08376 -10.06224 -10.05857
  Beta  occ. eigenvalues --  -10.05139  -0.91265  -0.82307  -0.78795  -0.67869
  Beta  occ. eigenvalues --   -0.63508  -0.61621  -0.59939  -0.53218  -0.50299
  Beta  occ. eigenvalues --   -0.47814  -0.45049  -0.41237  -0.40619  -0.39563
  Beta  occ. eigenvalues --   -0.36450  -0.34490  -0.33118  -0.32181  -0.31418
  Beta  occ. eigenvalues --   -0.30094  -0.29130  -0.28266  -0.27062  -0.26281
  Beta  occ. eigenvalues --   -0.25948  -0.24802  -0.24644  -0.23367  -0.21377
  Beta  occ. eigenvalues --   -0.21001  -0.16989  -0.14064  -0.10537
  Beta virt. eigenvalues --    0.06645   0.07364   0.08083   0.08588   0.09583
  Beta virt. eigenvalues --    0.09841   0.09980   0.10671   0.11445   0.12192
  Beta virt. eigenvalues --    0.12274   0.12719   0.13395   0.14042   0.14555

 Mulliken charges and spin densities:
               1          2
     1  C    0.928997  -1.374405
     2  C   -0.051314  -0.048330
     3  C   -1.945906   1.580782
     4  C    2.092997  -2.489951
     5  O   -0.365695   0.061025
     6  N    0.100905  -0.029966
     7  C   -0.921972   0.454692
     8  C    0.083506  -0.157031
     9  C    0.300473  -0.810711
    10  N   -0.115204   0.088380
    11  C    0.135085  -0.606426
    12  H   -0.008428   0.159302
    13  H    0.159074  -0.027704
    14  H   -0.101763   0.215881
    15  H    0.076252   0.104287
    16  H    0.196913  -0.026545
    17  H   -0.255396   0.400696
    18  H   -0.639422   0.803845
    19  H   -0.435536   0.576128
    20  H   -0.361751   0.640110
    21  H    0.458068  -0.147736
    22  H   -0.221911   0.383383
    23  H   -0.289396   0.437146
    24  H    0.106277  -0.007866
    25  H    0.029651   0.120750
    26  H   -0.105598   0.269648
    27  H    0.004337   0.226820
    28  H    0.103127   0.076670
    29  H    0.043627   0.127125
 Sum of Mulliken charges =  -1.00000   1.00000

 Dipole moment (field-independent basis, Debye):
    X=              5.0393    Y=              2.1400    Z=              1.7995  Tot=              5.7630
 Quadrupole moment (field-independent basis, Debye-Ang):
   XX=           -157.6887   YY=           -105.1647   ZZ=           -100.2558
   XY=             -5.0248   XZ=             -3.4846   YZ=             -3.7760

 Summary of Natural Population Analysis:

                                       Natural Population
                Natural  -----------------------------------------------
    Atom  No    Charge         Core      Valence    Rydberg      Total
 -----------------------------------------------------------------------
      C    1   -0.28593      0.99964     2.27936    0.00693     3.28593
      C    2   -0.01502      0.99960     2.00254    0.01288     3.01502
      C    3   -0.20304      0.99960     2.19346    0.00998     3.20304
      C    4   -0.01006      0.99959     1.99775    0.01272     3.01006
      O    5   -0.38017      0.99989     3.37296    0.00731     4.38017
      N    6   -0.35582      0.99971     2.84365    0.01247     3.85582
      C    7   -0.01379      0.99959     2.00029    0.01391     3.01379
      C    8   -0.21460      0.99962     2.20678    0.00820     3.21460
      C    9   -0.09290      0.99965     2.08228    0.01098     3.09290
      N   10   -0.33724      0.99977     2.82491    0.01257     3.83724
      C   11   -0.09337      0.99961     2.08159    0.01217     3.09337
      H   12    0.09995      0.00000     0.39870    0.00135     0.40005
      H   13    0.09892      0.00000     0.40007    0.00102     0.40108
      H   14    0.09312      0.00000     0.40602    0.00085     0.40688
      H   15    0.08761      0.00000     0.41015    0.00225     0.41239
      H   16    0.10001      0.00000     0.39836    0.00163     0.39999
      H   17    0.10087      0.00000     0.39799    0.00114     0.39913
      H   18    0.08016      0.00000     0.41719    0.00265     0.41984
      H   19    0.07965      0.00000     0.41755    0.00280     0.42035
      H   20    0.23945      0.00000     0.24807    0.01247     0.26055
      H   21    0.19585      0.00000     0.30061    0.00354     0.30415
      H   22    0.09379      0.00000     0.40486    0.00135     0.40621
      H   23    0.09926      0.00000     0.39924    0.00150     0.40074
      H   24    0.09993      0.00000     0.39878    0.00129     0.40007
      H   25    0.08580      0.00000     0.41277    0.00143     0.41420
      H   26    0.09442      0.00000     0.40450    0.00108     0.40558
      H   27    0.16802      0.00000     0.32941    0.00256     0.33198
      H   28    0.09676      0.00000     0.40226    0.00098     0.40324
      H   29    0.08838      0.00000     0.41017    0.00145     0.41162
 =======================================================================
   * Total *    0.00000     10.99627    32.84225    0.16147    44.00000

 Normal termination of Gaussian 16 at Tue Dec  8 21:27:04 2020.
