 Gaussian 16, Revision A.03,

 -----------------------------------------------------------
 # opt freq B3LYP/6-31G(d) empiricaldispersion=gd3bj scf=xqc
 -----------------------------------------------------------

 ------------------------------
 CID_90712798_JID_6308_neutraal
 ------------------------------
 Symbolic Z-matrix:
 Charge =  0 Multiplicity = 1

 SCF Done:  E(RB3LYP) =  -621.730070332     A.U. after   14 cycles
 SCF Done:  E(RB3LYP) =  -621.735886543     A.U. after   12 cycles
 SCF Done:  E(RB3LYP) =  -621.735529076     A.U. after   12 cycles
 SCF Done:  E(RB3LYP) =  -621.736394432     A.U. after   11 cycles
 SCF Done:  E(RB3LYP) =  -621.736764505     A.U. after   11 cycles
 SCF Done:  E(RB3LYP) =  -621.737181420     A.U. after   12 cycles
 SCF Done:  E(RB3LYP) =  -621.737035208     A.U. after   14 cycles
 SCF Done:  E(RB3LYP) =  -621.737489639     A.U. after   12 cycles
 SCF Done:  E(RB3LYP) =  -621.737161253     A.U. after   12 cycles
 SCF Done:  E(RB3LYP) =  -621.737526898     A.U. after   14 cycles
 SCF Done:  E(RB3LYP) =  -621.738923808     A.U. after    9 cycles
 SCF Done:  E(RB3LYP) =  -621.738926089     A.U. after    9 cycles
 SCF Done:  E(RB3LYP) =  -621.738926535     A.U. after    7 cycles
 SCF Done:  E(RB3LYP) =  -621.738926639     A.U. after    7 cycles
 SCF Done:  E(RB3LYP) =  -621.738926655     A.U. after    6 cycles
 Optimization completed.
    -- Stationary point found.
 Normal termination of Gaussian 16 at Thu Dec 10 22:26:16 2020.

 --------------------------------------------------------------------
 #N Geom=AllCheck Guess=TCheck SCRF=Check GenChk RB3LYP/6-31G(d) Freq
 --------------------------------------------------------------------

 Structure from the checkpoint file:  "JID_6308.chk"
 ------------------------------
 CID_90712798_JID_6308_neutraal
 ------------------------------
 Charge =  0 Multiplicity = 1

 SCF Done:  E(RB3LYP) =  -621.738926655     A.U. after    1 cycles

  Exact polarizability: 196.012  -8.373 152.338 -13.628 -12.431 123.051
 Approx polarizability: 270.686 -10.858 227.588 -29.069 -30.391 196.453

                      1                      2                      3
                      A                      A                      A
 Frequencies --     17.6181                39.6889                43.9510
 Red. masses --      4.3039                 3.3291                 3.8400
 Frc consts  --      0.0008                 0.0031                 0.0044
 IR Inten    --      0.0215                 0.0103                 0.0094

                      4                      5                      6
                      A                      A                      A
 Frequencies --     76.5541                96.2797               125.2529
 Red. masses --      2.9392                 3.6222                 2.8340
 Frc consts  --      0.0101                 0.0198                 0.0262
 IR Inten    --      0.0388                 0.0162                 0.0297

                      7                      8                      9
                      A                      A                      A
 Frequencies --    149.0322               182.9704               229.8644
 Red. masses --      2.9620                 2.6925                 2.6684
 Frc consts  --      0.0388                 0.0531                 0.0831
 IR Inten    --      0.1365                 0.2349                 0.8847

                     10                     11                     12
                      A                      A                      A
 Frequencies --    265.0722               290.2800               295.5269
 Red. masses --      3.2523                 2.7675                 2.2121
 Frc consts  --      0.1346                 0.1374                 0.1138
 IR Inten    --      0.0512                 0.0249                 0.0980

                     13                     14                     15
                      A                      A                      A
 Frequencies --    385.2066               412.4539               419.7245
 Red. masses --      2.7116                 3.3559                 3.0444
 Frc consts  --      0.2371                 0.3364                 0.3160
 IR Inten    --      2.8513                 0.4568                 0.0349

                     16                     17                     18
                      A                      A                      A
 Frequencies --    431.9624               478.2984               494.0416
 Red. masses --      3.0751                 2.7222                 3.1731
 Frc consts  --      0.3381                 0.3669                 0.4563
 IR Inten    --      0.1748                 4.6394                 3.2705

                     19                     20                     21
                      A                      A                      A
 Frequencies --    567.9160               597.7233               637.0519
 Red. masses --      2.1921                 3.5409                 6.3637
 Frc consts  --      0.4166                 0.7454                 1.5216
 IR Inten    --      0.4734                 3.2869                 0.2117

                     22                     23                     24
                      A                      A                      A
 Frequencies --    667.5449               713.1246               723.7462
 Red. masses --      3.0746                 2.4706                 1.6340
 Frc consts  --      0.8072                 0.7402                 0.5043
 IR Inten    --      0.7497                11.6070                 6.1785

                     25                     26                     27
                      A                      A                      A
 Frequencies --    745.8117               755.7752               798.7514
 Red. masses --      1.4852                 1.6969                 1.1240
 Frc consts  --      0.4867                 0.5711                 0.4225
 IR Inten    --     28.7467                34.5269                 1.0722

                     28                     29                     30
                      A                      A                      A
 Frequencies --    799.1984               831.2575               856.5600
 Red. masses --      1.2092                 2.5491                 2.0086
 Frc consts  --      0.4550                 1.0378                 0.8683
 IR Inten    --      2.0484                 3.3260                 5.5387

                     31                     32                     33
                      A                      A                      A
 Frequencies --    864.1511               899.4872               911.9440
 Red. masses --      1.2600                 2.2768                 1.5541
 Frc consts  --      0.5543                 1.0854                 0.7615
 IR Inten    --      0.5344                 0.9076                 1.8955

                     34                     35                     36
                      A                      A                      A
 Frequencies --    922.5000               942.7119               944.0527
 Red. masses --      2.0792                 2.0754                 1.7328
 Frc consts  --      1.0425                 1.0867                 0.9099
 IR Inten    --      4.4425                 1.4660                 0.7851

                     37                     38                     39
                      A                      A                      A
 Frequencies --    960.4462               968.0688               970.3664
 Red. masses --      1.9073                 1.6875                 1.5562
 Frc consts  --      1.0366                 0.9318                 0.8633
 IR Inten    --     12.8388                 2.7820                 1.2904

                     40                     41                     42
                      A                      A                      A
 Frequencies --    976.8031               988.7818               995.6859
 Red. masses --      1.4080                 2.3706                 1.2587
 Frc consts  --      0.7915                 1.3656                 0.7352
 IR Inten    --      0.3456                 7.8893                 1.4982

                     43                     44                     45
                      A                      A                      A
 Frequencies --   1004.3510              1022.0327              1056.1343
 Red. masses --      1.2798                 6.0907                 1.5034
 Frc consts  --      0.7606                 3.7484                 0.9880
 IR Inten    --      0.1372                 0.7267                 3.4364

                     46                     47                     48
                      A                      A                      A
 Frequencies --   1059.1235              1062.4680              1076.5777
 Red. masses --      1.8210                 2.1461                 2.5757
 Frc consts  --      1.2035                 1.4273                 1.7589
 IR Inten    --      3.7818                 8.1656                 3.5088

                     49                     50                     51
                      A                      A                      A
 Frequencies --   1079.5600              1087.0902              1114.8544
 Red. masses --      2.1098                 1.5564                 1.5744
 Frc consts  --      1.4487                 1.0837                 1.1529
 IR Inten    --      0.3130                 0.8902                 2.6281

                     52                     53                     54
                      A                      A                      A
 Frequencies --   1150.2618              1193.1204              1202.6368
 Red. masses --      2.2298                 1.0952                 1.3088
 Frc consts  --      1.7382                 0.9186                 1.1153
 IR Inten    --      1.9390                 0.0623                 0.0276

                     55                     56                     57
                      A                      A                      A
 Frequencies --   1210.5892              1215.7999              1218.8263
 Red. masses --      1.3447                 1.1953                 2.1444
 Frc consts  --      1.1611                 1.0410                 1.8769
 IR Inten    --      1.1941                 0.3367                 2.1808

                     58                     59                     60
                      A                      A                      A
 Frequencies --   1224.0866              1254.1075              1269.6391
 Red. masses --      1.2476                 1.3340                 1.3526
 Frc consts  --      1.1014                 1.2361                 1.2846
 IR Inten    --      0.7363                 0.3478                 1.1171

                     61                     62                     63
                      A                      A                      A
 Frequencies --   1270.6024              1280.1945              1293.1735
 Red. masses --      1.3955                 1.2268                 1.5127
 Frc consts  --      1.3274                 1.1846                 1.4904
 IR Inten    --      0.6998                 0.9504                 2.6158

                     64                     65                     66
                      A                      A                      A
 Frequencies --   1304.4360              1316.1247              1319.7429
 Red. masses --      1.5738                 1.5219                 1.4491
 Frc consts  --      1.5777                 1.5532                 1.4870
 IR Inten    --      2.3211                 5.1238                 4.3020

                     67                     68                     69
                      A                      A                      A
 Frequencies --   1337.6402              1366.5407              1376.5520
 Red. masses --      2.9601                 3.2599                 1.3668
 Frc consts  --      3.1206                 3.5867                 1.5259
 IR Inten    --      1.5882                 4.0329                 2.2178

                     70                     71                     72
                      A                      A                      A
 Frequencies --   1405.2645              1444.0431              1490.3849
 Red. masses --      1.4972                 1.5929                 1.0888
 Frc consts  --      1.7420                 1.9571                 1.4249
 IR Inten    --     11.9677                 6.7692                 1.8557

                     73                     74                     75
                      A                      A                      A
 Frequencies --   1501.3170              1508.3378              1510.2353
 Red. masses --      2.0525                 1.0973                 1.1541
 Frc consts  --      2.7257                 1.4709                 1.5508
 IR Inten    --      2.5717                 0.5402                 6.5179

                     76                     77                     78
                      A                      A                      A
 Frequencies --   1515.2013              1532.9204              1541.9105
 Red. masses --      1.0883                 1.3201                 1.1482
 Frc consts  --      1.4721                 1.8277                 1.6083
 IR Inten    --      2.8817                 4.1043                 1.6173

                     79                     80                     81
                      A                      A                      A
 Frequencies --   1547.7171              1645.2907              1667.0097
 Red. masses --      2.1619                 5.5465                 5.5464
 Frc consts  --      3.0512                 8.8461                 9.0812
 IR Inten    --     15.1771                 0.6511                 9.3956

                     82                     83                     84
                      A                      A                      A
 Frequencies --   1730.9751              3032.3006              3059.9440
 Red. masses --      7.0623                 1.0652                 1.0702
 Frc consts  --     12.4674                 5.7709                 5.9042
 IR Inten    --      1.3831                22.8296                24.0116

                     85                     86                     87
                      A                      A                      A
 Frequencies --   3064.2111              3069.5321              3074.4910
 Red. masses --      1.0701                 1.0584                 1.0618
 Frc consts  --      5.9201                 5.8757                 5.9136
 IR Inten    --     33.3753                34.6344                33.1201

                     88                     89                     90
                      A                      A                      A
 Frequencies --   3079.9819              3108.4820              3115.8513
 Red. masses --      1.0948                 1.1070                 1.1085
 Frc consts  --      6.1192                 6.3020                 6.3405
 IR Inten    --      7.5536                16.0090                18.2472

                     91                     92                     93
                      A                      A                      A
 Frequencies --   3130.9099              3136.9364              3142.9730
 Red. masses --      1.1071                 1.0835                 1.0513
 Frc consts  --      6.3942                 6.2817                 6.1187
 IR Inten    --     68.7779                 4.6823                27.2352

                     94                     95                     96
                      A                      A                      A
 Frequencies --   3145.8825              3162.0859              3172.3082
 Red. masses --      1.0588                 1.0948                 1.0864
 Frc consts  --      6.1740                 6.4494                 6.4415
 IR Inten    --     13.5010                40.3567                 8.5814

                     97                     98                     99
                      A                      A                      A
 Frequencies --   3182.1448              3192.3112              3203.6732
 Red. masses --      1.0865                 1.0913                 1.0931
 Frc consts  --      6.4823                 6.5524                 6.6101
 IR Inten    --      0.2555                27.0974                37.0603

                    100                    101                    102
                      A                      A                      A
 Frequencies --   3210.6361              3217.6277              3231.2003
 Red. masses --      1.0966                 1.1184                 1.1161
 Frc consts  --      6.6604                 6.8218                 6.8655
 IR Inten    --     13.9331                 1.4761                24.5860

 - Thermochemistry -
 -------------------
 Temperature   298.150 Kelvin.  Pressure   1.00000 Atm.
 Atom     1 has atomic number  6 and mass  12.00000

 Molecular mass:   212.15650 amu.
 Principal axes and moments of inertia in atomic units:
                           1         2         3
     Eigenvalues --  2088.159895597.826066718.32264
           X            0.99999   0.00514   0.00006
           Y           -0.00514   0.99992  -0.01140
           Z           -0.00011   0.01140   0.99994
 This molecule is an asymmetric top.
 Rotational symmetry number  1.
 Warning -- assumption of classical behavior for rotation
           may cause significant error
 Rotational temperatures (Kelvin)      0.04148     0.01547     0.01289
 Rotational constants (GHZ):           0.86427     0.32240     0.26863
 Zero-point vibrational energy     835074.7 (Joules/Mol)
                                  199.58765 (Kcal/Mol)
 Warning -- explicit consideration of  20 degrees of freedom as
           vibrations may cause significant error
 Vibrational temperatures:     25.35    57.10    63.24   110.14   138.52
          (Kelvin)            180.21   214.42   263.25   330.72   381.38
                              417.65   425.20   554.23   593.43   603.89
                              621.50   688.16   710.82   817.10   859.99
                              916.58   960.45  1026.03  1041.31  1073.06
                             1087.39  1149.23  1149.87  1195.99  1232.40
                             1243.32  1294.16  1312.08  1327.27  1356.35
                             1358.28  1381.87  1392.84  1396.14  1405.40
                             1422.64  1432.57  1445.04  1470.48  1519.54
                             1523.84  1528.65  1548.96  1553.25  1564.08
                             1604.03  1654.97  1716.63  1730.33  1741.77
                             1749.26  1753.62  1761.19  1804.38  1826.73
                             1828.11  1841.91  1860.59  1876.79  1893.61
                             1898.82  1924.57  1966.15  1980.55  2021.86
                             2077.66  2144.33  2160.06  2170.16  2172.89
                             2180.04  2205.53  2218.47  2226.82  2367.21
                             2398.46  2490.49  4362.80  4402.58  4408.72
                             4416.37  4423.51  4431.41  4472.41  4483.02
                             4504.68  4513.35  4522.04  4526.22  4549.54
                             4564.24  4578.40  4593.02  4609.37  4619.39
                             4629.45  4648.98

 Zero-point correction=                           0.318063 (Hartree/Particle)
 Thermal correction to Energy=                    0.332851
 Thermal correction to Enthalpy=                  0.333795
 Thermal correction to Gibbs Free Energy=         0.274285
 Sum of electronic and zero-point Energies=           -621.420863
 Sum of electronic and thermal Energies=              -621.406076
 Sum of electronic and thermal Enthalpies=            -621.405132
 Sum of electronic and thermal Free Energies=         -621.464642

                     E (Thermal)             CV                S
                      KCal/Mol        Cal/Mol-Kelvin    Cal/Mol-Kelvin
 Total                  208.867             58.322            125.249
 Electronic               0.000              0.000              0.000
 Translational            0.889              2.981             41.960
 Rotational               0.889              2.981             32.729
 Vibrational            207.089             52.361             50.560
 Vibration     1          0.593              1.986              6.886
 Vibration     2          0.594              1.981              5.275
 Vibration     3          0.595              1.980              5.073
 Vibration     4          0.599              1.965              3.977
 Vibration     5          0.603              1.952              3.528
 Vibration     6          0.610              1.928              3.018
 Vibration     7          0.618              1.904              2.685
 Vibration     8          0.630              1.863              2.298
 Vibration     9          0.652              1.795              1.880
 Vibration    10          0.671              1.737              1.628
 Vibration    11          0.686              1.692              1.472
 Vibration    12          0.690              1.682              1.442
 Vibration    13          0.754              1.502              1.019
 Vibration    14          0.776              1.443              0.918
 Vibration    15          0.782              1.427              0.893
 Vibration    16          0.793              1.401              0.852
 Vibration    17          0.835              1.298              0.715
 Vibration    18          0.850              1.263              0.673
 Vibration    19          0.924              1.101              0.508
 Vibration    20          0.956              1.037              0.454

 Optimization completed.
    -- Stationary point found.
 Normal termination of Gaussian 16 at Thu Dec 10 22:38:44 2020.

 ----------------------------------------------------------------------
 # B3LYP/6-311++G(d,p) empiricaldispersion=gd3bj scf=xqc pop=npa geom=c
 heck
 ----------------------------------------------------------------------

 --------------------------------------
 CID_90712798_JID_6308_Energie_neutraal
 --------------------------------------
 Structure from the checkpoint file:  "JID_6308.chk"
 Charge =  0 Multiplicity = 1

 SCF Done:  E(RB3LYP) =  -621.899723161     A.U. after   14 cycles
 Normal termination of Gaussian 16 at Thu Dec 10 22:44:03 2020.

 ----------------------------------------------------------------------
 # B3LYP/6-311++G(d,p) empiricaldispersion=gd3bj scf=xqc pop=npa geom=c
 heck
 ----------------------------------------------------------------------

 ------------------------------------
 CID_90712798_JID_6308_Energie_kation
 ------------------------------------
 Structure from the checkpoint file:  "JID_6308.chk"
 Charge =  1 Multiplicity = 2

 SCF Done:  E(UB3LYP) =  -621.600607249     A.U. after   24 cycles
 Normal termination of Gaussian 16 at Thu Dec 10 22:59:53 2020.
 Gaussian 16:  ES64L-G16RevA.03 25-Dec-2016

 ----------------------------------------------------------------------
 # B3LYP/6-311++G(d,p) empiricaldispersion=gd3bj scf=xqc pop=npa geom=c
 heck
 ----------------------------------------------------------------------

 -----------------------------------
 CID_90712798_JID_6308_Energie_anion
 -----------------------------------
 Structure from the checkpoint file:  "JID_6308.chk"
 Charge = -1 Multiplicity = 2

                         Standard orientation:
 ---------------------------------------------------------------------
 Center     Atomic      Atomic             Coordinates (Angstroms)
 Number     Number       Type             X           Y           Z
 ---------------------------------------------------------------------
      1          6           0        2.360541    2.736757    0.233951
      2          6           0        2.033197    1.744291   -0.910688
      3          6           0        1.713667    0.675940    0.170332
      4          6           0        2.531687    1.522295    1.185311
      5          6           0        2.042050   -0.781505   -0.112535
      6          6           0        3.469046   -1.262251   -0.011288
      7          6           0        2.468874   -1.662506    1.045246
      8          6           0        1.207842   -1.381889   -1.207681
      9          6           0       -0.065941   -1.773297   -1.093232
     10          6           0       -0.898176   -1.698202    0.157171
     11          6           0       -2.040291   -0.694901    0.078158
     12          6           0       -1.939223    0.469821   -0.692155
     13          6           0       -2.977222    1.402371   -0.716270
     14          6           0       -4.136617    1.183540    0.027516
     15          6           0       -4.251279    0.022118    0.793555
     16          6           0       -3.212489   -0.907542    0.814133
     17          1           0        1.489099    3.341380    0.505414
     18          1           0        3.219991    3.401067    0.102808
     19          1           0        1.239959    2.011077   -1.616307
     20          1           0        2.931151    1.469808   -1.475705
     21          1           0        0.652352    0.746886    0.435391
     22          1           0        3.579379    1.209255    1.240195
     23          1           0        2.138962    1.605887    2.203334
     24          1           0        3.788260   -2.023198   -0.719114
     25          1           0        4.247906   -0.555091    0.258598
     26          1           0        2.555658   -1.200767    2.025600
     27          1           0        2.120798   -2.691054    1.060714
     28          1           0        1.688272   -1.466913   -2.182607
     29          1           0       -0.575834   -2.155938   -1.977199
     30          1           0       -1.322654   -2.688074    0.375055
     31          1           0       -0.255612   -1.446649    1.009096
     32          1           0       -1.044047    0.639038   -1.282767
     33          1           0       -2.879617    2.299754   -1.321530
     34          1           0       -4.946052    1.907896    0.007117
     35          1           0       -5.152645   -0.162718    1.371840
     36          1           0       -3.309316   -1.811873    1.410934
 ---------------------------------------------------------------------

 SCF Done:  E(UB3LYP) =  -621.883610764     A.U. after   33 cycles
 SCF Done:  E(UB3LYP) =  -621.883610764     a.u. after    1 cycles

 The electronic state is 2-A.
 Alpha  occ. eigenvalues --  -10.09527 -10.09022 -10.08411 -10.08264 -10.08079
 Alpha  occ. eigenvalues --  -10.08040 -10.07949 -10.07939 -10.07915 -10.07885
 Alpha  occ. eigenvalues --  -10.07756 -10.07727 -10.07611 -10.07483 -10.07393
 Alpha  occ. eigenvalues --  -10.07209  -0.78702  -0.76531  -0.74277  -0.70764
 Alpha  occ. eigenvalues --   -0.65914  -0.65080  -0.59984  -0.57730  -0.56658
 Alpha  occ. eigenvalues --   -0.51767  -0.51394  -0.50681  -0.48840  -0.45646
 Alpha  occ. eigenvalues --   -0.43540  -0.42047  -0.40376  -0.39284  -0.38268
 Alpha  occ. eigenvalues --   -0.37319  -0.36467  -0.35321  -0.33226  -0.32719
 Alpha  occ. eigenvalues --   -0.31861  -0.30137  -0.29659  -0.29007  -0.27662
 Alpha  occ. eigenvalues --   -0.27483  -0.26880  -0.26139  -0.25184  -0.24554
 Alpha  occ. eigenvalues --   -0.23196  -0.22741  -0.21893  -0.20296  -0.18390
 Alpha  occ. eigenvalues --   -0.16363  -0.15985  -0.14817   0.04295
 Alpha virt. eigenvalues --    0.05942   0.06453   0.06814   0.07499   0.07582
 Alpha virt. eigenvalues --    0.07864   0.08168   0.08862   0.09012   0.09277
 Alpha virt. eigenvalues --    0.09326   0.10054   0.10227   0.11166   0.11698

  Beta  occ. eigenvalues --  -10.09527 -10.09022 -10.08404 -10.08262 -10.08062
  Beta  occ. eigenvalues --  -10.08025 -10.07936 -10.07925 -10.07895 -10.07873
  Beta  occ. eigenvalues --  -10.07741 -10.07711 -10.07603 -10.07466 -10.07373
  Beta  occ. eigenvalues --  -10.07199  -0.78688  -0.76509  -0.74262  -0.70733
  Beta  occ. eigenvalues --   -0.65885  -0.65049  -0.59955  -0.57705  -0.56619
  Beta  occ. eigenvalues --   -0.51730  -0.51344  -0.50639  -0.48807  -0.45603
  Beta  occ. eigenvalues --   -0.43506  -0.41997  -0.40348  -0.39250  -0.38237
  Beta  occ. eigenvalues --   -0.37296  -0.36431  -0.35286  -0.33206  -0.32685
  Beta  occ. eigenvalues --   -0.31824  -0.30118  -0.29639  -0.28985  -0.27639
  Beta  occ. eigenvalues --   -0.27454  -0.26860  -0.26118  -0.25149  -0.24525
  Beta  occ. eigenvalues --   -0.23173  -0.22711  -0.21864  -0.20272  -0.18372
  Beta  occ. eigenvalues --   -0.16320  -0.15963  -0.14789
  Beta virt. eigenvalues --    0.06173   0.06833   0.07030   0.07091   0.07762
  Beta virt. eigenvalues --    0.08037   0.08211   0.08375   0.09166   0.09297
  Beta virt. eigenvalues --    0.09520   0.09646   0.10273   0.10605   0.11488

 Mulliken charges and spin densities:
               1          2
     1  C    0.400569  -0.686729
     2  C   -0.586055   0.002393
     3  C   -0.187862   0.017488
     4  C   -0.107187  -0.487272
     5  C    0.219264   0.920272
     6  C    0.443331  -0.788059
     7  C   -0.243528  -0.243326
     8  C   -0.735579   0.451876
     9  C    0.288255  -0.720630
    10  C    1.203692  -1.501735
    11  C    0.044291   0.245096
    12  C   -0.986524   0.471276
    13  C   -0.788568   0.696667
    14  C    1.246307  -1.568751
    15  C    0.956222  -1.293505
    16  C   -0.694152   0.897871
    17  H   -0.031977   0.160269
    18  H   -0.162112   0.319994
    19  H   -0.118373   0.238281
    20  H    0.130658   0.022128
    21  H    0.834248  -0.751317
    22  H    0.128107  -0.017243
    23  H   -0.257125   0.420589
    24  H   -0.055003   0.207004
    25  H   -0.246577   0.390292
    26  H    0.037115   0.119975
    27  H   -0.012083   0.163375
    28  H   -0.039193   0.237070
    29  H   -0.036413   0.195345
    30  H    0.031443   0.128456
    31  H    0.014994   0.213718
    32  H    0.381884  -0.219621
    33  H   -0.524810   0.706066
    34  H   -0.404726   0.564894
    35  H   -0.557689   0.733212
    36  H   -0.584844   0.754583
 Sum of Mulliken charges =  -1.00000   1.00000

 Dipole moment (field-independent basis, Debye):
    X=              3.9220    Y=             -1.5028    Z=             -1.7865  Tot=              4.5642
 Quadrupole moment (field-independent basis, Debye-Ang):
   XX=           -195.5692   YY=           -149.3649   ZZ=           -134.1302
   XY=              2.6365   XZ=              3.2677   YZ=              2.2552

 Summary of Natural Population Analysis:

                                       Natural Population
                Natural  -----------------------------------------------
    Atom  No    Charge         Core      Valence    Rydberg      Total
 -----------------------------------------------------------------------
      C    1   -0.18698      0.99965     2.18036    0.00697     3.18698
      C    2   -0.18483      0.99962     2.17751    0.00770     3.18483
      C    3   -0.10395      0.99956     2.09258    0.01181     3.10395
      C    4   -0.18636      0.99963     2.17893    0.00780     3.18636
      C    5   -0.06507      0.99951     2.05139    0.01417     3.06507
      C    6   -0.19305      0.99960     2.18425    0.00920     3.19305
      C    7   -0.19174      0.99959     2.18366    0.00848     3.19174
      C    8   -0.08639      0.99948     2.07627    0.01064     3.08639
      C    9   -0.07746      0.99953     2.06782    0.01011     3.07746
      C   10   -0.21937      0.99957     2.21045    0.00935     3.21937
      C   11   -0.01177      0.99950     2.00184    0.01044     3.01177
      C   12   -0.10687      0.99951     2.09852    0.00883     3.10687
      C   13   -0.09691      0.99956     2.08644    0.01091     3.09691
      C   14   -0.10487      0.99956     2.09524    0.01007     3.10487
      C   15   -0.09737      0.99956     2.08746    0.01035     3.09737
      C   16   -0.10015      0.99951     2.09031    0.01033     3.10015
      H   17    0.09681      0.00000     0.40175    0.00144     0.40319
      H   18    0.09429      0.00000     0.40453    0.00118     0.40571
      H   19    0.09722      0.00000     0.40167    0.00110     0.40278
      H   20    0.09504      0.00000     0.40365    0.00131     0.40496
      H   21    0.10318      0.00000     0.39416    0.00266     0.39682
      H   22    0.09551      0.00000     0.40291    0.00158     0.40449
      H   23    0.09794      0.00000     0.40108    0.00098     0.40206
      H   24    0.10202      0.00000     0.39695    0.00102     0.39798
      H   25    0.10238      0.00000     0.39640    0.00121     0.39762
      H   26    0.10352      0.00000     0.39541    0.00107     0.39648
      H   27    0.10411      0.00000     0.39494    0.00095     0.39589
      H   28    0.09689      0.00000     0.40204    0.00107     0.40311
      H   29    0.09509      0.00000     0.40372    0.00119     0.40491
      H   30    0.10700      0.00000     0.39169    0.00131     0.39300
      H   31    0.11047      0.00000     0.38780    0.00174     0.38953
      H   32    0.10540      0.00000     0.39258    0.00201     0.39460
      H   33    0.10135      0.00000     0.39749    0.00116     0.39865
      H   34    0.10194      0.00000     0.39654    0.00151     0.39806
      H   35    0.10222      0.00000     0.39605    0.00173     0.39778
      H   36    0.10075      0.00000     0.39762    0.00162     0.39925
 =======================================================================
   * Total *   -0.00000     15.99294    41.82203    0.18503    58.00000

 Normal termination of Gaussian 16 at Thu Dec 10 23:18:35 2020.
