 Gaussian 16, Revision A.03,

 -----------------------------------------------------------
 # opt freq B3LYP/6-31G(d) empiricaldispersion=gd3bj scf=xqc
 -----------------------------------------------------------

 -------------------------------
 CID_128653161_JID_9895_neutraal
 -------------------------------
 Symbolic Z-matrix:
 Charge =  0 Multiplicity = 1

 SCF Done:  E(RB3LYP) =  -1204.95017000     A.U. after   17 cycles
 SCF Done:  E(RB3LYP) =  -1204.95550244     A.U. after   14 cycles
 SCF Done:  E(RB3LYP) =  -1204.95249547     A.U. after   14 cycles
 SCF Done:  E(RB3LYP) =  -1204.95801821     A.U. after   12 cycles
 SCF Done:  E(RB3LYP) =  -1204.95925491     A.U. after   15 cycles
 SCF Done:  E(RB3LYP) =  -1204.95981349     A.U. after   13 cycles
 SCF Done:  E(RB3LYP) =  -1204.95988055     A.U. after   12 cycles
 SCF Done:  E(RB3LYP) =  -1204.96061568     A.U. after   11 cycles
 SCF Done:  E(RB3LYP) =  -1204.96069321     A.U. after   12 cycles
 SCF Done:  E(RB3LYP) =  -1204.96079799     A.U. after   12 cycles
 SCF Done:  E(RB3LYP) =  -1204.96093906     A.U. after    7 cycles
 SCF Done:  E(RB3LYP) =  -1204.96093912     A.U. after    7 cycles
 SCF Done:  E(RB3LYP) =  -1204.96093915     A.U. after    7 cycles
 SCF Done:  E(RB3LYP) =  -1204.96093916     A.U. after    7 cycles
 Optimization completed.
    -- Stationary point found.
 Normal termination of Gaussian 16 at Mon Dec 14 13:54:59 2020.

 --------------------------------------------------------------------
 #N Geom=AllCheck Guess=TCheck SCRF=Check GenChk RB3LYP/6-31G(d) Freq
 --------------------------------------------------------------------

 Structure from the checkpoint file:  "JID_9895.chk"
 -------------------------------
 CID_128653161_JID_9895_neutraal
 -------------------------------
 Charge =  0 Multiplicity = 1

 SCF Done:  E(RB3LYP) =  -1204.96093916     A.U. after    1 cycles

  Exact polarizability: 215.274  11.537 175.804   9.134 -12.820 139.030
 Approx polarizability: 294.885   9.168 282.686  17.058 -43.549 222.911

                      1                      2                      3
                      A                      A                      A
 Frequencies --     17.0087                29.5475                53.3877
 Red. masses --      4.6523                 5.3767                 5.0006
 Frc consts  --      0.0008                 0.0028                 0.0084
 IR Inten    --      1.5900                 0.1802                 0.9271

                      4                      5                      6
                      A                      A                      A
 Frequencies --     67.1881                78.7960                86.2777
 Red. masses --      4.2512                 1.0706                 2.8960
 Frc consts  --      0.0113                 0.0039                 0.0127
 IR Inten    --      2.4474                 0.0385                 0.8890

                      7                      8                      9
                      A                      A                      A
 Frequencies --    113.9100               140.5768               156.2517
 Red. masses --      3.2348                 4.0561                 4.5338
 Frc consts  --      0.0247                 0.0472                 0.0652
 IR Inten    --      0.9901                 2.1351                 1.3233

                     10                     11                     12
                      A                      A                      A
 Frequencies --    185.9122               209.4882               222.5315
 Red. masses --      3.0676                 2.2401                 1.7375
 Frc consts  --      0.0625                 0.0579                 0.0507
 IR Inten    --      2.4365                20.9778                27.4528

                     13                     14                     15
                      A                      A                      A
 Frequencies --    230.7882               244.5889               249.9877
 Red. masses --      2.8327                 1.3095                 1.2951
 Frc consts  --      0.0889                 0.0462                 0.0477
 IR Inten    --      2.2857                18.3088                12.3451

                     16                     17                     18
                      A                      A                      A
 Frequencies --    264.5759               290.8836               308.1877
 Red. masses --      3.1781                 1.3237                 3.3519
 Frc consts  --      0.1311                 0.0660                 0.1876
 IR Inten    --      2.4842                 0.9497                 0.3669

                     19                     20                     21
                      A                      A                      A
 Frequencies --    312.9028               329.6518               337.1653
 Red. masses --      2.4018                 3.3707                 2.6947
 Frc consts  --      0.1385                 0.2158                 0.1805
 IR Inten    --      1.8353                 4.2057                 0.7588

                     22                     23                     24
                      A                      A                      A
 Frequencies --    371.1003               376.9997               406.7451
 Red. masses --      2.7352                 4.3495                 2.8593
 Frc consts  --      0.2219                 0.3642                 0.2787
 IR Inten    --      9.1952                 3.0204                 0.5867

                     25                     26                     27
                      A                      A                      A
 Frequencies --    423.0828               484.1010               500.0262
 Red. masses --      3.3979                 2.9406                 3.2346
 Frc consts  --      0.3584                 0.4060                 0.4765
 IR Inten    --      1.1759                 1.8617                 2.3393

                     28                     29                     30
                      A                      A                      A
 Frequencies --    505.8832               532.8221               576.5176
 Red. masses --      5.2898                 4.6871                 2.9562
 Frc consts  --      0.7976                 0.7840                 0.5789
 IR Inten    --      8.1221                 3.3066                 9.0824

                     31                     32                     33
                      A                      A                      A
 Frequencies --    582.7231               602.2423               618.6863
 Red. masses --      3.0355                 2.9217                 2.7653
 Frc consts  --      0.6073                 0.6243                 0.6237
 IR Inten    --     10.6212                 6.9309                12.7525

                     34                     35                     36
                      A                      A                      A
 Frequencies --    661.4953               692.5272               703.4725
 Red. masses --      3.9682                 4.1451                 1.8586
 Frc consts  --      1.0230                 1.1713                 0.5419
 IR Inten    --     47.2760                 7.0688                63.4886

                     37                     38                     39
                      A                      A                      A
 Frequencies --    751.7092               781.6714               796.3645
 Red. masses --      2.3023                 4.6154                 1.6930
 Frc consts  --      0.7665                 1.6615                 0.6326
 IR Inten    --      0.5014                32.7725                 1.1240

                     40                     41                     42
                      A                      A                      A
 Frequencies --    808.7663               841.8261               856.4735
 Red. masses --      9.7254                 2.8836                 1.9999
 Frc consts  --      3.7480                 1.2040                 0.8643
 IR Inten    --     15.9138                 4.4845                 1.3355

                     43                     44                     45
                      A                      A                      A
 Frequencies --    880.7777               901.8015               905.0446
 Red. masses --      1.4691                 2.1841                 2.0018
 Frc consts  --      0.6715                 1.0465                 0.9661
 IR Inten    --     13.0169                 1.8127                31.7904

                     46                     47                     48
                      A                      A                      A
 Frequencies --    916.2016               953.2647               958.0520
 Red. masses --      2.5761                 4.9176                 2.1393
 Frc consts  --      1.2741                 2.6329                 1.1569
 IR Inten    --      9.1293                 7.7461                10.1211

                     49                     50                     51
                      A                      A                      A
 Frequencies --    964.5773               985.2898              1002.8688
 Red. masses --      1.5102                 2.2595                 1.6749
 Frc consts  --      0.8279                 1.2924                 0.9925
 IR Inten    --      2.6795                 8.0422                46.6441

                     52                     53                     54
                      A                      A                      A
 Frequencies --   1014.7988              1023.2503              1038.6747
 Red. masses --      1.6147                 1.6975                 1.4540
 Frc consts  --      0.9797                 1.0472                 0.9242
 IR Inten    --      0.4028                 2.8334                 5.3952

                     55                     56                     57
                      A                      A                      A
 Frequencies --   1058.7825              1068.3851              1071.6128
 Red. masses --      1.6081                 2.0132                 1.4285
 Frc consts  --      1.0621                 1.3539                 0.9665
 IR Inten    --      2.0029                14.5696                 1.3280

                     58                     59                     60
                      A                      A                      A
 Frequencies --   1102.7683              1136.7103              1150.7069
 Red. masses --      2.1560                 2.1598                 2.9932
 Frc consts  --      1.5448                 1.6442                 2.3352
 IR Inten    --      7.0229                20.9285                 5.3601

                     61                     62                     63
                      A                      A                      A
 Frequencies --   1194.3939              1205.1172              1220.1909
 Red. masses --      1.4228                 3.1397                 2.1309
 Frc consts  --      1.1959                 2.6865                 1.8693
 IR Inten    --     36.7408                16.7076                33.5503

                     64                     65                     66
                      A                      A                      A
 Frequencies --   1222.4986              1232.0107              1261.1052
 Red. masses --      2.0221                 1.7923                 1.5237
 Frc consts  --      1.7805                 1.6029                 1.4278
 IR Inten    --     15.5759                40.1102                 0.7516

                     67                     68                     69
                      A                      A                      A
 Frequencies --   1273.3894              1298.9753              1311.6819
 Red. masses --      2.2959                 1.3626                 1.4613
 Frc consts  --      2.1934                 1.3546                 1.4814
 IR Inten    --      3.4510                 3.3413                35.3938

                     70                     71                     72
                      A                      A                      A
 Frequencies --   1319.6525              1337.8780              1352.2392
 Red. masses --      1.2858                 1.8280                 1.4542
 Frc consts  --      1.3193                 1.9278                 1.5667
 IR Inten    --      0.6919               117.9428                 4.1040

                     73                     74                     75
                      A                      A                      A
 Frequencies --   1357.3387              1363.0706              1404.8803
 Red. masses --      1.5319                 1.3899                 1.5568
 Frc consts  --      1.6629                 1.5215                 1.8103
 IR Inten    --      9.8941                 1.8114                 7.8123

                     76                     77                     78
                      A                      A                      A
 Frequencies --   1415.4859              1422.2781              1442.6362
 Red. masses --      1.6001                 1.2380                 1.2308
 Frc consts  --      1.8889                 1.4755                 1.5092
 IR Inten    --     32.0512                 7.0585                 5.4002

                     79                     80                     81
                      A                      A                      A
 Frequencies --   1447.9803              1466.6265              1472.6696
 Red. masses --      1.2883                 3.3235                 4.2714
 Frc consts  --      1.5915                 4.2119                 5.4580
 IR Inten    --     35.2265                 3.8488               156.5591

                     82                     83                     84
                      A                      A                      A
 Frequencies --   1503.7006              1507.5275              1509.9788
 Red. masses --      1.1157                 1.1142                 1.0417
 Frc consts  --      1.4864                 1.4919                 1.3994
 IR Inten    --     10.4771                 4.5127                 9.1634

                     85                     86                     87
                      A                      A                      A
 Frequencies --   1511.1251              1517.2641              1518.7766
 Red. masses --      1.4671                 1.1090                 1.1913
 Frc consts  --      1.9738                 1.5042                 1.6191
 IR Inten    --     26.7674                 6.5461                15.0746

                     88                     89                     90
                      A                      A                      A
 Frequencies --   1522.6901              1530.5619              1533.2980
 Red. masses --      1.0944                 1.0638                 1.0835
 Frc consts  --      1.4951                 1.4683                 1.5008
 IR Inten    --      9.6029                 0.8551                 6.2419

                     91                     92                     93
                      A                      A                      A
 Frequencies --   1538.2870              1549.2105              1555.6627
 Red. masses --      1.0833                 1.1029                 1.0582
 Frc consts  --      1.5103                 1.5595                 1.5089
 IR Inten    --      1.9776                 7.4657                 9.0189

                     94                     95                     96
                      A                      A                      A
 Frequencies --   1599.4045              1751.7336              3022.1609
 Red. masses --      5.9012                 7.2416                 1.0738
 Frc consts  --      8.8943                13.0924                 5.7784
 IR Inten    --      6.0190               355.6247                63.1338

                     97                     98                     99
                      A                      A                      A
 Frequencies --   3022.5269              3044.5381              3053.6857
 Red. masses --      1.0736                 1.0438                 1.0397
 Frc consts  --      5.7787                 5.7003                 5.7122
 IR Inten    --     24.1353                25.8604                36.2678

                    100                    101                    102
                      A                      A                      A
 Frequencies --   3055.0169              3071.1840              3085.5520
 Red. masses --      1.0365                 1.0617                 1.0665
 Frc consts  --      5.6996                 5.9003                 5.9825
 IR Inten    --     21.0750                36.8833                32.9328

                    103                    104                    105
                      A                      A                      A
 Frequencies --   3096.0179              3103.3594              3109.3844
 Red. masses --      1.0796                 1.0803                 1.1006
 Frc consts  --      6.0970                 6.1299                 6.2692
 IR Inten    --     26.3457                 4.7703                32.6131

                    106                    107                    108
                      A                      A                      A
 Frequencies --   3110.4417              3113.0993              3114.1794
 Red. masses --      1.1016                 1.0970                 1.0978
 Frc consts  --      6.2796                 6.2637                 6.2726
 IR Inten    --      9.8305                24.6925                45.5975

                    109                    110                    111
                      A                      A                      A
 Frequencies --   3139.0358              3141.9100              3157.7735
 Red. masses --      1.1020                 1.1016                 1.0989
 Frc consts  --      6.3974                 6.4069                 6.4561
 IR Inten    --     30.8710                 8.1403                 3.8537

                    112                    113                    114
                      A                      A                      A
 Frequencies --   3161.4378              3165.7718              3203.8763
 Red. masses --      1.0974                 1.0985                 1.0882
 Frc consts  --      6.4623                 6.4867                 6.5810
 IR Inten    --     23.7482                18.8667                 2.9342

                    115                    116                    117
                      A                      A                      A
 Frequencies --   3266.7698              3584.9460              3760.7325
 Red. masses --      1.0946                 1.0745                 1.0659
 Frc consts  --      6.8824                 8.1364                 8.8820
 IR Inten    --      1.6774                26.0298                 7.4435

 - Thermochemistry -
 -------------------
 Temperature   298.150 Kelvin.  Pressure   1.00000 Atm.
 Atom     1 has atomic number  6 and mass  12.00000

 Molecular mass:   282.14020 amu.
 Principal axes and moments of inertia in atomic units:
                           1         2         3
     Eigenvalues --  3174.712497820.499429257.80054
           X            0.99995   0.00699   0.00731
           Y           -0.00722   0.99946   0.03207
           Z           -0.00708  -0.03212   0.99946
 This molecule is an asymmetric top.
 Rotational symmetry number  1.
 Warning -- assumption of classical behavior for rotation
           may cause significant error
 Rotational temperatures (Kelvin)      0.02728     0.01108     0.00936
 Rotational constants (GHZ):           0.56847     0.23077     0.19494
 Zero-point vibrational energy     922279.7 (Joules/Mol)
                                  220.43015 (Kcal/Mol)
 Warning -- explicit consideration of  33 degrees of freedom as
           vibrations may cause significant error
 Vibrational temperatures:     24.47    42.51    76.81    96.67   113.37
          (Kelvin)            124.13   163.89   202.26   224.81   267.49
                              301.41   320.17   332.05   351.91   359.68
                              380.67   418.52   443.41   450.20   474.30
                              485.11   533.93   542.42   585.22   608.72
                              696.51   719.43   727.85   766.61   829.48
                              838.41   866.49   890.15   951.74   996.39
                             1012.14  1081.54  1124.65  1145.79  1163.63
                             1211.20  1232.27  1267.24  1297.49  1302.16
                             1318.21  1371.54  1378.42  1387.81  1417.61
                             1442.90  1460.07  1472.23  1494.42  1523.35
                             1537.17  1541.81  1586.64  1635.47  1655.61
                             1718.47  1733.89  1755.58  1758.90  1772.59
                             1814.45  1832.12  1868.94  1887.22  1898.69
                             1924.91  1945.57  1952.91  1961.15  2021.31
                             2036.57  2046.34  2075.63  2083.32  2110.15
                             2118.84  2163.49  2169.00  2172.52  2174.17
                             2183.00  2185.18  2190.81  2202.14  2206.07
                             2213.25  2228.97  2238.25  2301.19  2520.35
                             4348.22  4348.74  4380.41  4393.57  4395.49
                             4418.75  4439.42  4454.48  4465.04  4473.71
                             4475.23  4479.06  4480.61  4516.37  4520.51
                             4543.33  4548.60  4554.84  4609.66  4700.15
                             5157.94  5410.86

 Zero-point correction=                           0.351278 (Hartree/Particle)
 Thermal correction to Energy=                    0.371245
 Thermal correction to Enthalpy=                  0.372189
 Thermal correction to Gibbs Free Energy=         0.302117
 Sum of electronic and zero-point Energies=          -1204.609661
 Sum of electronic and thermal Energies=             -1204.589695
 Sum of electronic and thermal Enthalpies=           -1204.588750
 Sum of electronic and thermal Free Energies=        -1204.658822

                     E (Thermal)             CV                S
                      KCal/Mol        Cal/Mol-Kelvin    Cal/Mol-Kelvin
 Total                  232.960             76.373            147.479
 Electronic               0.000              0.000              0.000
 Translational            0.889              2.981             42.810
 Rotational               0.889              2.981             33.796
 Vibrational            231.182             70.411             70.873
 Vibration     1          0.593              1.986              6.956
 Vibration     2          0.593              1.984              5.860
 Vibration     3          0.596              1.976              4.688
 Vibration     4          0.598              1.970              4.234
 Vibration     5          0.600              1.963              3.921
 Vibration     6          0.601              1.959              3.743
 Vibration     7          0.607              1.938              3.201
 Vibration     8          0.615              1.913              2.796
 Vibration     9          0.620              1.896              2.595
 Vibration    10          0.632              1.859              2.268
 Vibration    11          0.642              1.826              2.048
 Vibration    12          0.648              1.807              1.938
 Vibration    13          0.652              1.794              1.873
 Vibration    14          0.660              1.772              1.769
 Vibration    15          0.663              1.763              1.731
 Vibration    16          0.671              1.738              1.631
 Vibration    17          0.687              1.691              1.469
 Vibration    18          0.698              1.658              1.372
 Vibration    19          0.701              1.649              1.347
 Vibration    20          0.712              1.616              1.262
 Vibration    21          0.718              1.601              1.226
 Vibration    22          0.743              1.532              1.075
 Vibration    23          0.748              1.519              1.051
 Vibration    24          0.772              1.456              0.938
 Vibration    25          0.785              1.420              0.882
 Vibration    26          0.840              1.285              0.699
 Vibration    27          0.855              1.250              0.658
 Vibration    28          0.861              1.237              0.644
 Vibration    29          0.888              1.177              0.581
 Vibration    30          0.933              1.082              0.492
 Vibration    31          0.940              1.069              0.480
 Vibration    32          0.961              1.027              0.446
 Vibration    33          0.979              0.992              0.419

                           ! Non-Optimized Parameters !
 Normal termination of Gaussian 16 at Mon Dec 14 14:21:12 2020.

 ----------------------------------------------------------------------
 # B3LYP/6-311++G(d,p) empiricaldispersion=gd3bj scf=xqc pop=npa geom=c
 heck
 ----------------------------------------------------------------------

 ---------------------------------------
 CID_128653161_JID_9895_Energie_neutraal
 ---------------------------------------
 Structure from the checkpoint file:  "JID_9895.chk"
 Charge =  0 Multiplicity = 1

 SCF Done:  E(RB3LYP) =  -1205.22061309     A.U. after   18 cycles
 Normal termination of Gaussian 16 at Mon Dec 14 14:35:59 2020.

 ----------------------------------------------------------------------
 # B3LYP/6-311++G(d,p) empiricaldispersion=gd3bj scf=xqc pop=npa geom=c
 heck
 ----------------------------------------------------------------------

 -------------------------------------
 CID_128653161_JID_9895_Energie_kation
 -------------------------------------
 Structure from the checkpoint file:  "JID_9895.chk"
 Charge =  1 Multiplicity = 2

 SCF Done:  E(UB3LYP) =  -1204.90369988     A.U. after   33 cycles
 SCF Done:  E(UB3LYP) =  -1204.90369988     a.u. after    2 cycles
 Normal termination of Gaussian 16 at Mon Dec 14 16:01:38 2020.
 Gaussian 16:  ES64L-G16RevA.03 25-Dec-2016

 ----------------------------------------------------------------------
 # B3LYP/6-311++G(d,p) empiricaldispersion=gd3bj scf=xqc pop=npa geom=c
 heck
 ----------------------------------------------------------------------

 ------------------------------------
 CID_128653161_JID_9895_Energie_anion
 ------------------------------------
 Structure from the checkpoint file:  "JID_9895.chk"
 Charge = -1 Multiplicity = 2

                         Standard orientation:
 ---------------------------------------------------------------------
 Center     Atomic      Atomic             Coordinates (Angstroms)
 Number     Number       Type             X           Y           Z
 ---------------------------------------------------------------------
      1          6           0       -5.350717   -0.571840    0.042442
      2          6           0       -3.894661   -0.230946    0.122089
      3          6           0       -3.246795    0.885860   -0.331460
      4          6           0       -1.845240    0.825718   -0.057333
      5          7           0       -1.413017   -0.260309    0.560834
      6         16           0       -2.713748   -1.282420    0.850650
      7          6           0       -0.946124    1.937348   -0.528964
      8          8           0       -1.412286    2.757251   -1.320740
      9          7           0        0.350641    2.012144   -0.120957
     10          6           0        1.064308    1.363390    0.976521
     11          6           0        2.449062    0.767289    0.610514
     12          6           0        3.246377    1.784775   -0.227145
     13          6           0        3.186433    0.548880    1.948312
     14          6           0        2.363882   -0.594382   -0.142243
     15          6           0        1.587730   -0.600415   -1.476202
     16          6           0        1.366855   -2.092910   -1.760103
     17          6           0        1.005741   -2.672299   -0.374755
     18          6           0        1.704018   -1.751168    0.663529
     19          8           0        3.743075   -0.935919   -0.412529
     20          1           0       -5.894059    0.229732   -0.465122
     21          1           0       -5.788220   -0.701846    1.038870
     22          1           0       -5.515812   -1.500926   -0.514901
     23          1           0       -3.711874    1.716853   -0.844105
     24          1           0        0.806729    2.817100   -0.534509
     25          1           0        1.238770    2.121275    1.753273
     26          1           0        0.414321    0.604564    1.401959
     27          1           0        3.296188    2.750947    0.291848
     28          1           0        4.265389    1.428793   -0.387400
     29          1           0        2.795352    1.946831   -1.211350
     30          1           0        2.592834   -0.058951    2.640507
     31          1           0        4.137629    0.041396    1.776689
     32          1           0        3.386880    1.509696    2.436407
     33          1           0        0.618949   -0.115320   -1.349712
     34          1           0        2.134401   -0.076314   -2.264845
     35          1           0        2.285413   -2.552775   -2.152512
     36          1           0        0.589560   -2.271439   -2.509515
     37          1           0        1.297171   -3.722644   -0.271438
     38          1           0       -0.078127   -2.623066   -0.235062
     39          1           0        2.477982   -2.269069    1.237683
     40          1           0        0.967619   -1.374121    1.375743
     41          1           0        3.747986   -1.811308   -0.827101
 ---------------------------------------------------------------------

 SCF Done:  E(UB3LYP) =  -1205.22830530     A.U. after   33 cycles
 SCF Done:  E(UB3LYP) =  -1205.22830530     a.u. after    1 cycles

 The electronic state is 2-A.
 Alpha  occ. eigenvalues --  -88.72579 -19.02142 -18.92456 -14.19140 -14.14189
 Alpha  occ. eigenvalues --  -10.12181 -10.11085 -10.08183 -10.08026 -10.06645
 Alpha  occ. eigenvalues --  -10.05872 -10.05813 -10.05685 -10.05683 -10.05553
 Alpha  occ. eigenvalues --  -10.05027 -10.04655 -10.03679 -10.02068  -7.81071
 Alpha  occ. eigenvalues --   -5.77460  -5.76993  -5.76630  -0.92559  -0.88250
 Alpha  occ. eigenvalues --   -0.79439  -0.78208  -0.72569  -0.69831  -0.65798
 Alpha  occ. eigenvalues --   -0.61025  -0.59498  -0.59275  -0.58470  -0.57259
 Alpha  occ. eigenvalues --   -0.56634  -0.49657  -0.47633  -0.46846  -0.43485
 Alpha  occ. eigenvalues --   -0.41625  -0.40429  -0.39557  -0.38027  -0.36814
 Alpha  occ. eigenvalues --   -0.35758  -0.34444  -0.33079  -0.32437  -0.31036
 Alpha  occ. eigenvalues --   -0.30747  -0.30642  -0.29864  -0.29482  -0.28732
 Alpha  occ. eigenvalues --   -0.28017  -0.27970  -0.26740  -0.26358  -0.25021
 Alpha  occ. eigenvalues --   -0.24568  -0.23962  -0.23722  -0.23400  -0.23258
 Alpha  occ. eigenvalues --   -0.22707  -0.22081  -0.21665  -0.20298  -0.19729
 Alpha  occ. eigenvalues --   -0.16910  -0.13387  -0.11901  -0.11432  -0.10874
 Alpha  occ. eigenvalues --   -0.10150   0.05065
 Alpha virt. eigenvalues --    0.06766   0.07875   0.08225   0.08989   0.09665
 Alpha virt. eigenvalues --    0.10295   0.10606   0.10951   0.11461   0.11637
 Alpha virt. eigenvalues --    0.12110   0.12331   0.13075   0.13406   0.13576

  Beta  occ. eigenvalues --  -88.72521 -19.02141 -18.92171 -14.19099 -14.13429
  Beta  occ. eigenvalues --  -10.12181 -10.10946 -10.08180 -10.08028 -10.06644
  Beta  occ. eigenvalues --  -10.05873 -10.05811 -10.05707 -10.05683 -10.05553
  Beta  occ. eigenvalues --  -10.05027 -10.04342 -10.03488 -10.02183  -7.81019
  Beta  occ. eigenvalues --   -5.77442  -5.76975  -5.76421  -0.92558  -0.87806
  Beta  occ. eigenvalues --   -0.78690  -0.77931  -0.72556  -0.69811  -0.65239
  Beta  occ. eigenvalues --   -0.61024  -0.59421  -0.58918  -0.58459  -0.57201
  Beta  occ. eigenvalues --   -0.56411  -0.49640  -0.47118  -0.46845  -0.43449
  Beta  occ. eigenvalues --   -0.41143  -0.40408  -0.39361  -0.37998  -0.36792
  Beta  occ. eigenvalues --   -0.35702  -0.34229  -0.33063  -0.32370  -0.30994
  Beta  occ. eigenvalues --   -0.30533  -0.30339  -0.29847  -0.29381  -0.28660
  Beta  occ. eigenvalues --   -0.27797  -0.27721  -0.26336  -0.25899  -0.24719
  Beta  occ. eigenvalues --   -0.24476  -0.23830  -0.23674  -0.23344  -0.22831
  Beta  occ. eigenvalues --   -0.22503  -0.21779  -0.20958  -0.20264  -0.19404
  Beta  occ. eigenvalues --   -0.16906  -0.12650  -0.11001  -0.10220  -0.09379
  Beta  occ. eigenvalues --   -0.08910
  Beta virt. eigenvalues --    0.06715   0.07804   0.08192   0.08914   0.09554
  Beta virt. eigenvalues --    0.10205   0.10453   0.10683   0.11187   0.11540
  Beta virt. eigenvalues --    0.12057   0.12248   0.12653   0.13038   0.13359

 Mulliken charges and spin densities:
               1          2
     1  C   -0.104640  -0.037124
     2  C    0.193937   0.120277
     3  C   -0.175944  -0.026901
     4  C   -0.509414   0.111358
     5  N    0.116021   0.308289
     6  S   -0.086964   0.205046
     7  C   -0.582390   0.031995
     8  O   -0.389480   0.095589
     9  N   -0.209877   0.007132
    10  C   -0.797334  -0.049460
    11  C    1.138053   0.144221
    12  C   -0.523272  -0.052129
    13  C   -0.432162  -0.026209
    14  C   -0.611407  -0.036812
    15  C   -0.057412  -0.025344
    16  C   -0.417491  -0.030231
    17  C   -0.525999  -0.001605
    18  C   -0.296563   0.001706
    19  O   -0.179240   0.002762
    20  H    0.147555   0.001571
    21  H    0.054346   0.092016
    22  H    0.109648   0.033044
    23  H    0.170461   0.006549
    24  H    0.312389  -0.004918
    25  H    0.127076   0.025010
    26  H    0.275632   0.002920
    27  H    0.138612   0.006883
    28  H    0.149404   0.005140
    29  H    0.112254   0.012661
    30  H    0.146674  -0.002867
    31  H    0.152231   0.014959
    32  H    0.122624   0.020200
    33  H    0.175809  -0.003018
    34  H    0.192883   0.000279
    35  H    0.059466   0.008330
    36  H    0.178193   0.009450
    37  H    0.140787   0.000414
    38  H    0.081610   0.022361
    39  H    0.182886   0.002131
    40  H    0.159898   0.004842
    41  H    0.261140  -0.000519
 Sum of Mulliken charges =  -1.00000   1.00000

 Dipole moment (field-independent basis, Debye):
    X=              6.1840    Y=             -3.0406    Z=              0.5414  Tot=              6.9124
 Quadrupole moment (field-independent basis, Debye-Ang):
   XX=           -169.4418   YY=           -148.8576   ZZ=           -140.3252
   XY=              1.7520   XZ=              0.3704   YZ=              9.4309

 Summary of Natural Population Analysis:

                                       Natural Population
                Natural  -----------------------------------------------
    Atom  No    Charge         Core      Valence    Rydberg      Total
 -----------------------------------------------------------------------
      C    1   -0.29865      0.99962     2.29347    0.00556     3.29865
      C    2   -0.05958      0.99952     2.04709    0.01296     3.05958
      C    3   -0.16096      0.99943     2.15314    0.00839     3.16096
      C    4    0.06989      0.99952     1.91379    0.01681     2.93011
      N    5   -0.23213      0.99969     2.71836    0.01408     3.73213
      S    6    0.27792      4.99939     2.69563    0.02706     7.72208
      C    7    0.34720      0.99961     1.63084    0.02235     2.65280
      O    8   -0.31311      0.99988     3.30741    0.00582     4.31311
      N    9   -0.32100      0.99966     2.80987    0.01148     3.82100
      C   10   -0.09233      0.99955     2.08141    0.01136     3.09233
      C   11   -0.04739      0.99952     2.03622    0.01165     3.04739
      C   12   -0.29086      0.99963     2.28503    0.00620     3.29086
      C   13   -0.28691      0.99964     2.28120    0.00607     3.28691
      C   14    0.14453      0.99948     1.83716    0.01883     2.85547
      C   15   -0.20970      0.99957     2.20227    0.00786     3.20970
      C   16   -0.19151      0.99965     2.18472    0.00714     3.19151
      C   17   -0.19843      0.99965     2.19210    0.00669     3.19843
      C   18   -0.20810      0.99959     2.20143    0.00708     3.20810
      O   19   -0.38784      0.99989     3.38138    0.00658     4.38784
      H   20    0.10062      0.00000     0.39860    0.00078     0.39938
      H   21    0.10141      0.00000     0.39733    0.00126     0.39859
      H   22    0.10106      0.00000     0.39809    0.00085     0.39894
      H   23    0.11126      0.00000     0.38773    0.00101     0.38874
      H   24    0.18414      0.00000     0.31394    0.00193     0.31586
      H   25    0.08366      0.00000     0.41506    0.00128     0.41634
      H   26    0.12652      0.00000     0.37178    0.00170     0.37348
      H   27    0.09377      0.00000     0.40542    0.00081     0.40623
      H   28    0.10711      0.00000     0.39211    0.00078     0.39289
      H   29    0.10250      0.00000     0.39666    0.00084     0.39750
      H   30    0.09990      0.00000     0.39938    0.00071     0.40010
      H   31    0.10652      0.00000     0.39266    0.00082     0.39348
      H   32    0.09493      0.00000     0.40381    0.00126     0.40507
      H   33    0.12298      0.00000     0.37562    0.00139     0.37702
      H   34    0.09960      0.00000     0.39945    0.00095     0.40040
      H   35    0.07956      0.00000     0.41891    0.00153     0.42044
      H   36    0.10274      0.00000     0.39633    0.00093     0.39726
      H   37    0.08957      0.00000     0.40936    0.00106     0.41043
      H   38    0.11304      0.00000     0.38483    0.00213     0.38696
      H   39    0.09596      0.00000     0.40298    0.00106     0.40404
      H   40    0.11641      0.00000     0.38265    0.00093     0.38359
      H   41    0.22570      0.00000     0.27184    0.00246     0.27430
 =======================================================================
   * Total *   -0.00000     22.99250    52.76707    0.24044    76.00000

 Normal termination of Gaussian 16 at Mon Dec 14 16:38:22 2020.
