 Gaussian 16, Revision A.03,

 -----------------------------------------------------------
 # opt freq B3LYP/6-31G(d) empiricaldispersion=gd3bj scf=xqc
 -----------------------------------------------------------

 -------------------------------
 CID_141956426_JID_4865_neutraal
 -------------------------------
 Symbolic Z-matrix:
 Charge =  0 Multiplicity = 1

 SCF Done:  E(RB3LYP) =  -592.478863266     A.U. after   14 cycles
 SCF Done:  E(RB3LYP) =  -592.483648176     A.U. after   12 cycles
 SCF Done:  E(RB3LYP) =  -592.484443560     A.U. after   12 cycles
 SCF Done:  E(RB3LYP) =  -592.485044604     A.U. after   12 cycles
 SCF Done:  E(RB3LYP) =  -592.485502003     A.U. after   12 cycles
 SCF Done:  E(RB3LYP) =  -592.485740036     A.U. after   11 cycles
 SCF Done:  E(RB3LYP) =  -592.485849544     A.U. after   11 cycles
 SCF Done:  E(RB3LYP) =  -592.485864770     A.U. after   10 cycles
 SCF Done:  E(RB3LYP) =  -592.485887166     A.U. after   11 cycles
 SCF Done:  E(RB3LYP) =  -592.485891750     A.U. after   10 cycles
 SCF Done:  E(RB3LYP) =  -592.485892344     A.U. after    8 cycles
 SCF Done:  E(RB3LYP) =  -592.485892404     A.U. after    7 cycles
 Optimization completed.
    -- Stationary point found.
 Normal termination of Gaussian 16 at Thu Dec 10 10:44:46 2020.

 --------------------------------------------------------------------
 #N Geom=AllCheck Guess=TCheck SCRF=Check GenChk RB3LYP/6-31G(d) Freq
 --------------------------------------------------------------------

 Structure from the checkpoint file:  "JID_4865.chk"
 -------------------------------
 CID_141956426_JID_4865_neutraal
 -------------------------------
 Charge =  0 Multiplicity = 1

 SCF Done:  E(RB3LYP) =  -592.485892404     A.U. after    1 cycles

  Exact polarizability: 178.763  -8.072 139.917   7.209  -4.921  87.333
 Approx polarizability: 243.558 -15.230 230.750  11.973  -9.955 133.259

                      1                      2                      3
                      A                      A                      A
 Frequencies --     28.1358                37.9658                59.2076
 Red. masses --      3.3168                 3.1921                 4.4701
 Frc consts  --      0.0015                 0.0027                 0.0092
 IR Inten    --      0.2186                 0.2388                 1.1409

                      4                      5                      6
                      A                      A                      A
 Frequencies --     83.9301               121.9820               147.3933
 Red. masses --      4.0608                 3.3040                 4.1839
 Frc consts  --      0.0169                 0.0290                 0.0536
 IR Inten    --      1.0954                 2.3657                 2.1877

                      7                      8                      9
                      A                      A                      A
 Frequencies --    193.3475               211.6535               239.3882
 Red. masses --      3.2571                 2.2676                 1.3130
 Frc consts  --      0.0717                 0.0598                 0.0443
 IR Inten    --      2.7251                 1.5356                 0.5410

                     10                     11                     12
                      A                      A                      A
 Frequencies --    256.4037               341.7788               378.1737
 Red. masses --      3.6547                 3.5345                 3.2104
 Frc consts  --      0.1416                 0.2433                 0.2705
 IR Inten    --      0.9609                 1.1863                 5.5928

                     13                     14                     15
                      A                      A                      A
 Frequencies --    400.3729               452.4268               456.8329
 Red. masses --      3.2268                 2.2859                 2.1897
 Frc consts  --      0.3048                 0.2757                 0.2692
 IR Inten    --      4.8531                 7.3928                11.1742

                     16                     17                     18
                      A                      A                      A
 Frequencies --    467.6617               493.8546               516.2845
 Red. masses --      1.5812                 2.5650                 2.7563
 Frc consts  --      0.2038                 0.3686                 0.4329
 IR Inten    --     24.2857                22.5688                 8.2493

                     19                     20                     21
                      A                      A                      A
 Frequencies --    556.6902               607.1751               612.9940
 Red. masses --      2.6404                 3.5040                 2.9265
 Frc consts  --      0.4821                 0.7611                 0.6479
 IR Inten    --     69.5935                 8.6687                21.9558

                     22                     23                     24
                      A                      A                      A
 Frequencies --    647.4653               677.8739               715.3259
 Red. masses --      2.1325                 1.2606                 2.3480
 Frc consts  --      0.5267                 0.3413                 0.7079
 IR Inten    --     98.9284                61.8613                32.5986

                     25                     26                     27
                      A                      A                      A
 Frequencies --    744.6716               755.1950               776.8270
 Red. masses --      4.0308                 2.3110                 1.2922
 Frc consts  --      1.3169                 0.7765                 0.4595
 IR Inten    --      8.7845               108.7153                22.8776

                     28                     29                     30
                      A                      A                      A
 Frequencies --    814.2646               821.7591               861.7695
 Red. masses --      1.4225                 1.6593                 3.5269
 Frc consts  --      0.5557                 0.6602                 1.5432
 IR Inten    --     71.4952                27.3621                 5.0673

                     31                     32                     33
                      A                      A                      A
 Frequencies --    866.4118               918.8600               939.6904
 Red. masses --      1.1701                 1.8468                 1.6060
 Frc consts  --      0.5175                 0.9187                 0.8355
 IR Inten    --     18.0304                 3.9201                 0.5021

                     34                     35                     36
                      A                      A                      A
 Frequencies --    952.8442               978.3855               989.1465
 Red. masses --      1.6776                 1.7811                 1.2926
 Frc consts  --      0.8974                 1.0045                 0.7452
 IR Inten    --      2.9676                 9.8425                 1.0470

                     37                     38                     39
                      A                      A                      A
 Frequencies --   1011.7592              1022.2806              1070.1756
 Red. masses --      1.5123                 5.3088                 1.5806
 Frc consts  --      0.9121                 3.2688                 1.0666
 IR Inten    --      5.9382                 1.3270                 2.9763

                     40                     41                     42
                      A                      A                      A
 Frequencies --   1087.1888              1105.8203              1125.7771
 Red. masses --      1.5025                 1.8720                 1.7749
 Frc consts  --      1.0464                 1.3487                 1.3254
 IR Inten    --      1.7388                30.9648                13.8695

                     43                     44                     45
                      A                      A                      A
 Frequencies --   1149.7854              1163.7669              1196.2116
 Red. masses --      2.8891                 1.5469                 1.4501
 Frc consts  --      2.2503                 1.2343                 1.2226
 IR Inten    --     12.3155                 9.3729                70.4469

                     46                     47                     48
                      A                      A                      A
 Frequencies --   1206.2598              1252.5300              1263.7625
 Red. masses --      1.1219                 1.4987                 1.8777
 Frc consts  --      0.9618                 1.3853                 1.7669
 IR Inten    --      8.0700                62.5242                 9.9033

                     49                     50                     51
                      A                      A                      A
 Frequencies --   1324.5339              1363.4570              1372.1622
 Red. masses --      1.5729                 2.7528                 2.5817
 Frc consts  --      1.6258                 3.0151                 2.8640
 IR Inten    --      4.6515                13.2424               118.5682

                     52                     53                     54
                      A                      A                      A
 Frequencies --   1387.1462              1433.2501              1441.4768
 Red. masses --      1.6753                 1.6763                 1.6388
 Frc consts  --      1.8993                 2.0288                 2.0063
 IR Inten    --     25.0811                58.9392                71.6162

                     55                     56                     57
                      A                      A                      A
 Frequencies --   1452.9125              1492.0280              1511.6360
 Red. masses --      1.3805                 3.1121                 1.0466
 Frc consts  --      1.7170                 4.0819                 1.4091
 IR Inten    --     24.8564                28.7880                 9.2434

                     58                     59                     60
                      A                      A                      A
 Frequencies --   1521.2766              1532.7913              1533.8050
 Red. masses --      1.1206                 2.3223                 1.1835
 Frc consts  --      1.5280                 3.2147                 1.6404
 IR Inten    --     34.8458                 2.9768                 0.7369

                     61                     62                     63
                      A                      A                      A
 Frequencies --   1540.7063              1643.4702              1648.9934
 Red. masses --      1.0973                 4.1769                 1.5060
 Frc consts  --      1.5347                 6.6471                 2.4128
 IR Inten    --      8.6099                22.3023                69.8958

                     64                     65                     66
                      A                      A                      A
 Frequencies --   1666.4834              1721.1302              1730.3851
 Red. masses --      5.6125                 4.1126                 4.6033
 Frc consts  --      9.1835                 7.1779                 8.1210
 IR Inten    --     10.9594               156.4253               143.9394

                     67                     68                     69
                      A                      A                      A
 Frequencies --   2971.6731              3043.8616              3075.6659
 Red. masses --      1.0739                 1.0404                 1.0861
 Frc consts  --      5.5875                 5.6793                 6.0534
 IR Inten    --     61.7651                19.6806                23.2194

                     70                     71                     72
                      A                      A                      A
 Frequencies --   3094.3396              3148.4667              3168.3064
 Red. masses --      1.1000                 1.0987                 1.0625
 Frc consts  --      6.2053                 6.4168                 6.2841
 IR Inten    --     17.5921                22.9559                 6.3006

                     73                     74                     75
                      A                      A                      A
 Frequencies --   3181.4759              3199.3309              3207.3126
 Red. masses --      1.0873                 1.0915                 1.0896
 Frc consts  --      6.4842                 6.5828                 6.6038
 IR Inten    --      7.1087                19.9106                 0.8605

                     76                     77                     78
                      A                      A                      A
 Frequencies --   3217.5522              3256.3116              3479.6931
 Red. masses --      1.0941                 1.1134                 1.0746
 Frc consts  --      6.6736                 6.9561                 7.6660
 IR Inten    --     10.9895                16.5442                 1.9889

                     79                     80                     81
                      A                      A                      A
 Frequencies --   3535.3755              3544.7783              3654.6339
 Red. masses --      1.0747                 1.0468                 1.0993
 Frc consts  --      7.9139                 7.7500                 8.6507
 IR Inten    --      1.2524                18.3460                12.7255

 - Thermochemistry -
 -------------------
 Temperature   298.150 Kelvin.  Pressure   1.00000 Atm.
 Atom     1 has atomic number  6 and mass  12.00000

 Molecular mass:   189.12660 amu.
 Principal axes and moments of inertia in atomic units:
                           1         2         3
     Eigenvalues --  1509.141905416.399686439.53129
           X            0.99997  -0.00718  -0.00195
           Y            0.00719   0.99997   0.00213
           Z            0.00193  -0.00214   1.00000
 This molecule is an asymmetric top.
 Rotational symmetry number  1.
 Warning -- assumption of classical behavior for rotation
           may cause significant error
 Rotational temperatures (Kelvin)      0.05739     0.01599     0.01345
 Rotational constants (GHZ):           1.19587     0.33320     0.28026
 Zero-point vibrational energy     651222.4 (Joules/Mol)
                                  155.64589 (Kcal/Mol)
 Warning -- explicit consideration of  21 degrees of freedom as
           vibrations may cause significant error
 Vibrational temperatures:     40.48    54.62    85.19   120.76   175.50
          (Kelvin)            212.07   278.18   304.52   344.43   368.91
                              491.74   544.11   576.05   650.94   657.28
                              672.86   710.55   742.82   800.95   873.59
                              881.96   931.56   975.31  1029.19  1071.42
                             1086.56  1117.68  1171.55  1182.33  1239.89
                             1246.57  1322.03  1352.00  1370.93  1407.68
                             1423.16  1455.70  1470.83  1539.74  1564.22
                             1591.03  1619.74  1654.28  1674.40  1721.08
                             1735.54  1802.11  1818.27  1905.71  1961.71
                             1974.24  1995.79  2062.13  2073.96  2090.42
                             2146.70  2174.91  2188.78  2205.34  2206.80
                             2216.73  2364.59  2372.53  2397.70  2476.32
                             2489.64  4275.57  4379.44  4425.20  4452.06
                             4529.94  4558.49  4577.43  4603.12  4614.61
                             4629.34  4685.11  5006.50  5086.62  5100.15
                             5258.20

 Zero-point correction=                           0.248038 (Hartree/Particle)
 Thermal correction to Energy=                    0.261833
 Thermal correction to Enthalpy=                  0.262777
 Thermal correction to Gibbs Free Energy=         0.206168
 Sum of electronic and zero-point Energies=           -592.237855
 Sum of electronic and thermal Energies=              -592.224060
 Sum of electronic and thermal Enthalpies=            -592.223116
 Sum of electronic and thermal Free Energies=         -592.279724

                     E (Thermal)             CV                S
                      KCal/Mol        Cal/Mol-Kelvin    Cal/Mol-Kelvin
 Total                  164.302             52.825            119.143
 Electronic               0.000              0.000              0.000
 Translational            0.889              2.981             41.618
 Rotational               0.889              2.981             32.332
 Vibrational            162.525             46.864             45.193
 Vibration     1          0.593              1.984              5.957
 Vibration     2          0.594              1.982              5.362
 Vibration     3          0.597              1.974              4.483
 Vibration     4          0.601              1.960              3.797
 Vibration     5          0.609              1.931              3.069
 Vibration     6          0.617              1.906              2.706
 Vibration     7          0.635              1.849              2.195
 Vibration     8          0.643              1.823              2.029
 Vibration     9          0.657              1.780              1.807
 Vibration    10          0.666              1.752              1.686
 Vibration    11          0.721              1.592              1.204
 Vibration    12          0.748              1.517              1.046
 Vibration    13          0.766              1.469              0.961
 Vibration    14          0.811              1.356              0.788
 Vibration    15          0.815              1.346              0.775
 Vibration    16          0.825              1.322              0.744
 Vibration    17          0.850              1.264              0.674
 Vibration    18          0.871              1.214              0.619
 Vibration    19          0.912              1.125              0.530
 Vibration    20          0.966              1.017              0.437
 Vibration    21          0.972              1.004              0.428

                           ! Non-Optimized Parameters !
 Normal termination of Gaussian 16 at Thu Dec 10 10:51:58 2020.

 ----------------------------------------------------------------------
 # B3LYP/6-311++G(d,p) empiricaldispersion=gd3bj scf=xqc pop=npa geom=c
 heck
 ----------------------------------------------------------------------

 ---------------------------------------
 CID_141956426_JID_4865_Energie_neutraal
 ---------------------------------------
 Structure from the checkpoint file:  "JID_4865.chk"
 Charge =  0 Multiplicity = 1

 SCF Done:  E(RB3LYP) =  -592.660878227     A.U. after   15 cycles
 Normal termination of Gaussian 16 at Thu Dec 10 10:55:02 2020.

 ----------------------------------------------------------------------
 # B3LYP/6-311++G(d,p) empiricaldispersion=gd3bj scf=xqc pop=npa geom=c
 heck
 ----------------------------------------------------------------------

 -------------------------------------
 CID_141956426_JID_4865_Energie_kation
 -------------------------------------
 Structure from the checkpoint file:  "JID_4865.chk"
 Charge =  1 Multiplicity = 2

 SCF Done:  E(UB3LYP) =  -592.378120136     A.U. after   31 cycles
 Normal termination of Gaussian 16 at Thu Dec 10 11:04:54 2020.
 Gaussian 16:  ES64L-G16RevA.03 25-Dec-2016

 ----------------------------------------------------------------------
 # B3LYP/6-311++G(d,p) empiricaldispersion=gd3bj scf=xqc pop=npa geom=c
 heck
 ----------------------------------------------------------------------

 ------------------------------------
 CID_141956426_JID_4865_Energie_anion
 ------------------------------------
 Structure from the checkpoint file:  "JID_4865.chk"
 Charge = -1 Multiplicity = 2

                         Standard orientation:
 ---------------------------------------------------------------------
 Center     Atomic      Atomic             Coordinates (Angstroms)
 Number     Number       Type             X           Y           Z
 ---------------------------------------------------------------------
      1          6           0        4.044361   -0.473319   -1.288701
      2          6           0        3.558497   -0.527247    0.136856
      3          6           0        4.343014   -0.948304    1.141881
      4          7           0        2.210590   -0.185929    0.336082
      5          6           0        1.630410    0.961558   -0.356831
      6          6           0        0.138865    1.040236   -0.112640
      7          6           0       -0.645042   -0.115215   -0.161504
      8          6           0       -2.029634   -0.057407    0.029790
      9          6           0       -2.637043    1.184445    0.266957
     10          6           0       -1.861367    2.340084    0.324253
     11          6           0       -0.480417    2.268520    0.138404
     12          6           0       -2.835907   -1.314873   -0.012236
     13          7           0       -2.447245   -2.475435    0.375305
     14          7           0       -4.137068   -1.155995   -0.474099
     15          1           0        5.034607   -0.927194   -1.367978
     16          1           0        4.119812    0.557245   -1.657843
     17          1           0        3.359724   -1.010956   -1.956241
     18          1           0        3.994030   -0.972001    2.171200
     19          1           0        5.344023   -1.316652    0.951096
     20          1           0        1.962674   -0.182209    1.321039
     21          1           0        2.099696    1.917959   -0.068398
     22          1           0        1.814536    0.837244   -1.430025
     23          1           0       -0.164179   -1.067950   -0.361020
     24          1           0       -3.708006    1.230127    0.436004
     25          1           0       -2.331357    3.298113    0.527733
     26          1           0        0.122530    3.171822    0.189876
     27          1           0       -1.521939   -2.411685    0.802967
     28          1           0       -4.257028   -0.509725   -1.244161
     29          1           0       -4.607492   -2.043506   -0.612642
 ---------------------------------------------------------------------

 SCF Done:  E(UB3LYP) =  -592.653350785     A.U. after   33 cycles
 SCF Done:  E(UB3LYP) =  -592.653350785     a.u. after    1 cycles

 The electronic state is 2-A.
 Alpha  occ. eigenvalues --  -14.21307 -14.20575 -14.14536 -10.11119 -10.10834
 Alpha  occ. eigenvalues --  -10.09659 -10.06646 -10.05952 -10.05463 -10.04896
 Alpha  occ. eigenvalues --  -10.04796 -10.04716 -10.04225 -10.04221  -0.82702
 Alpha  occ. eigenvalues --   -0.82582  -0.73760  -0.72517  -0.67835  -0.63781
 Alpha  occ. eigenvalues --   -0.62739  -0.59370  -0.55497  -0.51375  -0.47276
 Alpha  occ. eigenvalues --   -0.46195  -0.45197  -0.42206  -0.39123  -0.37693
 Alpha  occ. eigenvalues --   -0.37284  -0.34411  -0.34062  -0.32903  -0.32302
 Alpha  occ. eigenvalues --   -0.31067  -0.30130  -0.29515  -0.29294  -0.28387
 Alpha  occ. eigenvalues --   -0.26455  -0.25928  -0.23661  -0.23294  -0.22406
 Alpha  occ. eigenvalues --   -0.19971  -0.15029  -0.14002  -0.13442  -0.12355
 Alpha  occ. eigenvalues --   -0.10512   0.04862
 Alpha virt. eigenvalues --    0.06457   0.07595   0.08224   0.08630   0.09134
 Alpha virt. eigenvalues --    0.09720   0.09869   0.10465   0.11106   0.11651
 Alpha virt. eigenvalues --    0.11910   0.12368   0.12900   0.13092   0.13906

  Beta  occ. eigenvalues --  -14.21294 -14.20557 -14.14367 -10.11027 -10.10829
  Beta  occ. eigenvalues --  -10.09653 -10.06607 -10.05946 -10.05488 -10.04803
  Beta  occ. eigenvalues --  -10.04676 -10.04570 -10.04211 -10.03958  -0.82630
  Beta  occ. eigenvalues --   -0.82435  -0.73516  -0.72276  -0.67759  -0.63552
  Beta  occ. eigenvalues --   -0.62412  -0.59292  -0.55385  -0.50897  -0.47181
  Beta  occ. eigenvalues --   -0.46115  -0.45029  -0.42124  -0.39064  -0.37647
  Beta  occ. eigenvalues --   -0.37155  -0.34302  -0.33896  -0.32774  -0.32222
  Beta  occ. eigenvalues --   -0.30965  -0.30041  -0.29443  -0.29171  -0.28339
  Beta  occ. eigenvalues --   -0.25954  -0.25692  -0.23502  -0.22787  -0.22284
  Beta  occ. eigenvalues --   -0.19903  -0.14497  -0.13443  -0.12858  -0.11253
  Beta  occ. eigenvalues --   -0.10481
  Beta virt. eigenvalues --    0.07093   0.07623   0.08366   0.08864   0.09060
  Beta virt. eigenvalues --    0.09435   0.09873   0.09928   0.10690   0.11216
  Beta virt. eigenvalues --    0.11717   0.12046   0.12351   0.13037   0.13274

 Mulliken charges and spin densities:
               1          2
     1  C    1.501534  -2.107755
     2  C   -1.180110   1.497939
     3  C    0.023078  -0.604046
     4  N    0.036975   0.067743
     5  C   -0.054857  -0.534701
     6  C    0.944425  -0.151824
     7  C   -0.622617   0.299494
     8  C    0.648234   0.334575
     9  C   -0.966908   0.174541
    10  C   -0.133006  -0.291159
    11  C   -0.308444   0.087889
    12  C   -0.533201   0.081375
    13  N   -0.368814   0.097606
    14  N   -0.300572   0.004765
    15  H   -0.462943   0.617483
    16  H   -0.311433   0.476932
    17  H    0.015034   0.140801
    18  H    0.079890  -0.014149
    19  H   -0.192997   0.317876
    20  H    0.105985   0.076923
    21  H    0.107940   0.059536
    22  H   -0.000574   0.150460
    23  H    0.244906  -0.070740
    24  H    0.093433   0.046255
    25  H    0.090487   0.036938
    26  H   -0.085797   0.182021
    27  H    0.152815   0.022805
    28  H    0.215593  -0.004813
    29  H    0.261941   0.005227
 Sum of Mulliken charges =  -1.00000   1.00000

 Dipole moment (field-independent basis, Debye):
    X=             -3.9372    Y=              2.2305    Z=              0.4441  Tot=              4.5469
 Quadrupole moment (field-independent basis, Debye-Ang):
   XX=           -160.9468   YY=           -120.6258   ZZ=           -104.3785
   XY=             -3.0839   XZ=             16.6286   YZ=              4.3435

 Summary of Natural Population Analysis:

                                       Natural Population
                Natural  -----------------------------------------------
    Atom  No    Charge         Core      Valence    Rydberg      Total
 -----------------------------------------------------------------------
      C    1   -0.30649      0.99962     2.30070    0.00617     3.30649
      C    2    0.10111      0.99952     1.88589    0.01347     2.89889
      C    3   -0.25571      0.99952     2.24926    0.00693     3.25571
      N    4   -0.32070      0.99969     2.81041    0.01060     3.82070
      C    5   -0.08959      0.99958     2.07941    0.01061     3.08959
      C    6   -0.02916      0.99951     2.01868    0.01098     3.02916
      C    7   -0.08159      0.99948     2.07384    0.00827     3.08159
      C    8   -0.02606      0.99946     2.01510    0.01149     3.02606
      C    9   -0.08495      0.99954     2.07640    0.00902     3.08495
      C   10   -0.11088      0.99957     2.10062    0.01068     3.11088
      C   11   -0.05597      0.99952     2.04754    0.00892     3.05597
      C   12    0.22781      0.99963     1.75385    0.01871     2.77219
      N   13   -0.34904      0.99971     2.84091    0.00843     3.84904
      N   14   -0.40569      0.99971     2.89754    0.00844     3.90569
      H   15    0.10700      0.00000     0.39166    0.00135     0.39300
      H   16    0.10582      0.00000     0.39256    0.00162     0.39418
      H   17    0.10435      0.00000     0.39452    0.00113     0.39565
      H   18    0.08992      0.00000     0.40910    0.00098     0.41008
      H   19    0.09590      0.00000     0.40320    0.00090     0.40410
      H   20    0.18006      0.00000     0.31738    0.00256     0.31994
      H   21    0.08470      0.00000     0.41398    0.00132     0.41530
      H   22    0.10002      0.00000     0.39857    0.00141     0.39998
      H   23    0.10428      0.00000     0.39410    0.00161     0.39572
      H   24    0.09904      0.00000     0.39973    0.00123     0.40096
      H   25    0.09377      0.00000     0.40538    0.00085     0.40623
      H   26    0.09208      0.00000     0.40684    0.00107     0.40792
      H   27    0.16211      0.00000     0.33511    0.00277     0.33789
      H   28    0.18256      0.00000     0.31566    0.00178     0.31744
      H   29    0.18530      0.00000     0.31310    0.00159     0.31470
 =======================================================================
   * Total *    0.00000     13.99406    36.84103    0.16491    51.00000

 Normal termination of Gaussian 16 at Thu Dec 10 11:16:43 2020.
