 Gaussian 16, Revision A.03,

 -----------------------------------------------------------
 # opt freq B3LYP/6-31G(d) empiricaldispersion=gd3bj scf=xqc
 -----------------------------------------------------------

 -------------------------------
 CID_62674953_JID_10060_neutraal
 -------------------------------
 Symbolic Z-matrix:
 Charge =  0 Multiplicity = 1

 SCF Done:  E(RB3LYP) =  -1328.54983545     A.U. after   15 cycles
 SCF Done:  E(RB3LYP) =  -1328.55873777     A.U. after   13 cycles
 SCF Done:  E(RB3LYP) =  -1328.55883605     A.U. after   13 cycles
 SCF Done:  E(RB3LYP) =  -1328.56028112     A.U. after   13 cycles
 SCF Done:  E(RB3LYP) =  -1328.56090347     A.U. after   12 cycles
 SCF Done:  E(RB3LYP) =  -1328.56162030     A.U. after   13 cycles
 SCF Done:  E(RB3LYP) =  -1328.56229943     A.U. after   12 cycles
 SCF Done:  E(RB3LYP) =  -1328.56306134     A.U. after   13 cycles
 SCF Done:  E(RB3LYP) =  -1328.56399177     A.U. after   15 cycles
 SCF Done:  E(RB3LYP) =  -1328.56409968     A.U. after   13 cycles
 SCF Done:  E(RB3LYP) =  -1328.56481791     A.U. after   10 cycles
 SCF Done:  E(RB3LYP) =  -1328.56481798     A.U. after    9 cycles
 SCF Done:  E(RB3LYP) =  -1328.56481818     A.U. after    9 cycles
 SCF Done:  E(RB3LYP) =  -1328.56481832     A.U. after    8 cycles
 Optimization completed.
    -- Stationary point found.
 Normal termination of Gaussian 16 at Mon Dec 14 17:34:29 2020.

 --------------------------------------------------------------------
 #N Geom=AllCheck Guess=TCheck SCRF=Check GenChk RB3LYP/6-31G(d) Freq
 --------------------------------------------------------------------

 Structure from the checkpoint file:  "JID_10060.chk"
 -------------------------------
 CID_62674953_JID_10060_neutraal
 -------------------------------
 Charge =  0 Multiplicity = 1

 SCF Done:  E(RB3LYP) =  -1328.56481832     A.U. after    1 cycles

  Exact polarizability: 205.457  36.513 155.058  19.016 -17.545 150.716
 Approx polarizability: 293.942  77.839 272.846  32.525 -53.670 273.964

                      1                      2                      3
                      A                      A                      A
 Frequencies --     18.5121                22.6491                35.1637
 Red. masses --      8.5236                 8.7081                 4.2262
 Frc consts  --      0.0017                 0.0026                 0.0031
 IR Inten    --      1.1590                 0.7177                 0.5294

                      4                      5                      6
                      A                      A                      A
 Frequencies --     38.2209                68.6512                75.5109
 Red. masses --      7.8096                 9.0096                 4.9078
 Frc consts  --      0.0067                 0.0250                 0.0165
 IR Inten    --      0.2209                 4.3336                 1.0024

                      7                      8                      9
                      A                      A                      A
 Frequencies --    105.7346               138.0201               168.7235
 Red. masses --      6.5385                 5.3642                 3.7297
 Frc consts  --      0.0431                 0.0602                 0.0626
 IR Inten    --      3.4835                 2.3668                 1.6437

                     10                     11                     12
                      A                      A                      A
 Frequencies --    184.8545               201.9651               212.4199
 Red. masses --      3.1794                 1.8365                 2.6554
 Frc consts  --      0.0640                 0.0441                 0.0706
 IR Inten    --      1.3477                 3.6932                 1.5486

                     13                     14                     15
                      A                      A                      A
 Frequencies --    227.1982               243.5873               259.6691
 Red. masses --      3.0687                 1.5937                 2.7972
 Frc consts  --      0.0933                 0.0557                 0.1111
 IR Inten    --      1.0572                 0.4328                 3.2413

                     16                     17                     18
                      A                      A                      A
 Frequencies --    268.2057               281.8817               312.2371
 Red. masses --      2.5537                 6.9213                 4.0266
 Frc consts  --      0.1082                 0.3240                 0.2313
 IR Inten    --      0.4785                 3.9724                 1.2527

                     19                     20                     21
                      A                      A                      A
 Frequencies --    354.0417               376.2937               412.9635
 Red. masses --      3.2810                 3.8044                 6.9012
 Frc consts  --      0.2423                 0.3174                 0.6934
 IR Inten    --      1.0871                 2.8080                 1.8502

                     22                     23                     24
                      A                      A                      A
 Frequencies --    431.5262               471.4190               509.3098
 Red. masses --     11.5143                 4.8340                 4.4259
 Frc consts  --      1.2633                 0.6330                 0.6764
 IR Inten    --      2.3134                13.5929                14.3982

                     25                     26                     27
                      A                      A                      A
 Frequencies --    521.7700               534.3781               554.8948
 Red. masses --      5.7531                 3.9645                 6.7692
 Frc consts  --      0.9228                 0.6670                 1.2280
 IR Inten    --      1.5816                11.5371                44.0333

                     28                     29                     30
                      A                      A                      A
 Frequencies --    581.5327               610.7554               615.7286
 Red. masses --      5.3016                 4.0067                 3.9048
 Frc consts  --      1.0563                 0.8806                 0.8722
 IR Inten    --     15.3329                27.1508                25.2905

                     31                     32                     33
                      A                      A                      A
 Frequencies --    621.3504               622.2986               646.6514
 Red. masses --      1.7572                 1.9890                 3.4225
 Frc consts  --      0.3997                 0.4538                 0.8432
 IR Inten    --     23.1368                71.2285                14.3636

                     34                     35                     36
                      A                      A                      A
 Frequencies --    717.9278               723.6604               735.5156
 Red. masses --      2.4269                 1.6684                 2.7578
 Frc consts  --      0.7370                 0.5148                 0.8790
 IR Inten    --     39.6844                54.1270                38.1793

                     37                     38                     39
                      A                      A                      A
 Frequencies --    776.3533               784.1126               790.4271
 Red. masses --      5.6299                 3.7154                10.1976
 Frc consts  --      1.9993                 1.3459                 3.7538
 IR Inten    --     51.6100                14.8702                14.8743

                     40                     41                     42
                      A                      A                      A
 Frequencies --    822.6251               848.6383               904.8885
 Red. masses --      2.9905                 5.9960                 2.2578
 Frc consts  --      1.1923                 2.5442                 1.0892
 IR Inten    --     14.1440                14.0110                13.5702

                     43                     44                     45
                      A                      A                      A
 Frequencies --    918.3341               929.9912               978.4001
 Red. masses --      1.6997                 1.3959                 4.7691
 Frc consts  --      0.8445                 0.7113                 2.6898
 IR Inten    --     19.1695                 1.6092                14.8364

                     46                     47                     48
                      A                      A                      A
 Frequencies --   1000.1784              1041.7545              1063.7779
 Red. masses --      4.9741                 1.9872                 2.6897
 Frc consts  --      2.9317                 1.2707                 1.7933
 IR Inten    --     20.2418                99.1759                 3.9494

                     49                     50                     51
                      A                      A                      A
 Frequencies --   1076.3458              1079.1154              1119.1055
 Red. masses --      1.5277                 2.1064                 2.7807
 Frc consts  --      1.0427                 1.4452                 2.0519
 IR Inten    --      0.1473                 4.5230                30.5227

                     52                     53                     54
                      A                      A                      A
 Frequencies --   1131.3338              1160.4773              1181.2896
 Red. masses --      2.5250                 2.7110                 2.5780
 Frc consts  --      1.9041                 2.1511                 2.1195
 IR Inten    --     45.8653                37.3808                19.4240

                     55                     56                     57
                      A                      A                      A
 Frequencies --   1191.6610              1214.2572              1282.9597
 Red. masses --      4.1048                 1.9880                 1.6936
 Frc consts  --      3.4344                 1.7270                 1.6424
 IR Inten    --     20.7746               167.7383               134.6231

                     58                     59                     60
                      A                      A                      A
 Frequencies --   1312.2644              1339.2663              1366.6468
 Red. masses --      3.3202                 1.2691                 2.0560
 Frc consts  --      3.3686                 1.3412                 2.2625
 IR Inten    --     26.3532                 3.5121               127.6712

                     61                     62                     63
                      A                      A                      A
 Frequencies --   1375.2365              1388.1709              1410.1088
 Red. masses --      2.3884                 1.4247                 1.6592
 Frc consts  --      2.6614                 1.6176                 1.9438
 IR Inten    --     95.9252                 9.5535                15.4813

                     64                     65                     66
                      A                      A                      A
 Frequencies --   1420.5210              1425.1657              1445.2809
 Red. masses --      1.8021                 2.7983                 1.2821
 Frc consts  --      2.1425                 3.3487                 1.5779
 IR Inten    --     34.7156                11.8453                 9.9231

                     67                     68                     69
                      A                      A                      A
 Frequencies --   1448.1909              1479.2564              1484.3511
 Red. masses --      1.2651                 2.4033                 1.6106
 Frc consts  --      1.5632                 3.0984                 2.0908
 IR Inten    --     11.8703               114.1300                 7.7177

                     70                     71                     72
                      A                      A                      A
 Frequencies --   1500.3651              1517.0821              1518.3401
 Red. masses --      1.6420                 1.5268                 1.4249
 Frc consts  --      2.1778                 2.0703                 1.9354
 IR Inten    --     22.8379                19.8247                27.1289

                     73                     74                     75
                      A                      A                      A
 Frequencies --   1524.1276              1530.5643              1538.2826
 Red. masses --      1.1446                 1.0551                 1.0531
 Frc consts  --      1.5666                 1.4563                 1.4682
 IR Inten    --     23.3855                10.4162                19.6840

                     76                     77                     78
                      A                      A                      A
 Frequencies --   1588.7077              1642.9301              1759.2105
 Red. masses --      5.0222                 5.5156                 8.3233
 Frc consts  --      7.4684                 8.7717                15.1768
 IR Inten    --     19.0797               210.7310               322.4853

                     79                     80                     81
                      A                      A                      A
 Frequencies --   1799.1204              1851.5585              3062.3657
 Red. masses --      9.3722                 9.5961                 1.0347
 Frc consts  --     17.8736                19.3830                 5.7171
 IR Inten    --    473.7240               231.5102                16.0227

                     82                     83                     84
                      A                      A                      A
 Frequencies --   3065.7776              3095.7044              3107.6548
 Red. masses --      1.0397                 1.0798                 1.0692
 Frc consts  --      5.7576                 6.0971                 6.0840
 IR Inten    --      9.4527                 3.0182                15.8263

                     85                     86                     87
                      A                      A                      A
 Frequencies --   3123.6884              3134.2658              3139.0262
 Red. masses --      1.0961                 1.1026                 1.1028
 Frc consts  --      6.3015                 6.3820                 6.4021
 IR Inten    --      7.6047                15.3743                18.9542

                     88                     89                     90
                      A                      A                      A
 Frequencies --   3160.9915              3165.1949              3206.4557
 Red. masses --      1.1025                 1.1033                 1.0929
 Frc consts  --      6.4907                 6.5126                 6.6205
 IR Inten    --     17.5283                 3.5436                 8.4951

                     91                     92                     93
                      A                      A                      A
 Frequencies --   3567.6311              3592.1941              3685.6486
 Red. masses --      1.0751                 1.0783                 1.0641
 Frc consts  --      8.0627                 8.1978                 8.5164
 IR Inten    --     23.1806                73.1236                54.7920

 - Thermochemistry -
 -------------------
 Temperature   298.150 Kelvin.  Pressure   1.00000 Atm.
 Atom     1 has atomic number  6 and mass  12.00000

 Molecular mass:   295.06268 amu.
 Principal axes and moments of inertia in atomic units:
                           1         2         3
     Eigenvalues --  3883.473338893.316059856.48833
           X            0.99996   0.00896  -0.00016
           Y           -0.00896   0.99996  -0.00087
           Z            0.00015   0.00087   1.00000
 This molecule is an asymmetric top.
 Rotational symmetry number  1.
 Warning -- assumption of classical behavior for rotation
           may cause significant error
 Rotational temperatures (Kelvin)      0.02230     0.00974     0.00879
 Rotational constants (GHZ):           0.46472     0.20293     0.18310
 Zero-point vibrational energy     663763.5 (Joules/Mol)
                                  158.64329 (Kcal/Mol)
 Warning -- explicit consideration of  30 degrees of freedom as
           vibrations may cause significant error
 Vibrational temperatures:     26.63    32.59    50.59    54.99    98.77
          (Kelvin)            108.64   152.13   198.58   242.76   265.96
                              290.58   305.62   326.89   350.47   373.61
                              385.89   405.56   449.24   509.39   541.40
                              594.16   620.87   678.27   732.78   750.71
                              768.85   798.37   836.70   878.74   885.90
                              893.98   895.35   930.39  1032.94  1041.19
                             1058.24  1117.00  1128.16  1137.25  1183.57
                             1221.00  1301.93  1321.28  1338.05  1407.70
                             1439.03  1498.85  1530.54  1548.62  1552.61
                             1610.14  1627.74  1669.67  1699.61  1714.53
                             1747.05  1845.89  1888.06  1926.91  1966.30
                             1978.66  1997.27  2028.83  2043.81  2050.50
                             2079.44  2083.62  2128.32  2135.65  2158.69
                             2182.74  2184.55  2192.88  2202.14  2213.25
                             2285.80  2363.81  2531.11  2588.53  2663.98
                             4406.06  4410.97  4454.03  4471.22  4494.29
                             4509.51  4516.36  4547.96  4554.01  4613.37
                             5133.03  5168.37  5302.83

 Zero-point correction=                           0.252814 (Hartree/Particle)
 Thermal correction to Energy=                    0.271755
 Thermal correction to Enthalpy=                  0.272700
 Thermal correction to Gibbs Free Energy=         0.202771
 Sum of electronic and zero-point Energies=          -1328.312004
 Sum of electronic and thermal Energies=             -1328.293063
 Sum of electronic and thermal Enthalpies=           -1328.292119
 Sum of electronic and thermal Free Energies=        -1328.362047

                     E (Thermal)             CV                S
                      KCal/Mol        Cal/Mol-Kelvin    Cal/Mol-Kelvin
 Total                  170.529             69.861            147.177
 Electronic               0.000              0.000              0.000
 Translational            0.889              2.981             42.943
 Rotational               0.889              2.981             34.186
 Vibrational            168.752             63.899             70.048
 Vibration     1          0.593              1.986              6.788
 Vibration     2          0.593              1.985              6.387
 Vibration     3          0.594              1.982              5.514
 Vibration     4          0.594              1.982              5.349
 Vibration     5          0.598              1.969              4.192
 Vibration     6          0.599              1.965              4.004
 Vibration     7          0.605              1.945              3.346
 Vibration     8          0.614              1.915              2.831
 Vibration     9          0.625              1.881              2.450
 Vibration    10          0.631              1.861              2.279
 Vibration    11          0.639              1.837              2.115
 Vibration    12          0.643              1.822              2.023
 Vibration    13          0.651              1.800              1.901
 Vibration    14          0.659              1.773              1.777
 Vibration    15          0.668              1.746              1.664
 Vibration    16          0.673              1.732              1.608
 Vibration    17          0.681              1.707              1.522
 Vibration    18          0.701              1.650              1.350
 Vibration    19          0.730              1.567              1.148
 Vibration    20          0.747              1.521              1.054
 Vibration    21          0.777              1.442              0.916
 Vibration    22          0.793              1.402              0.854
 Vibration    23          0.828              1.313              0.734
 Vibration    24          0.864              1.229              0.635
 Vibration    25          0.877              1.202              0.606
 Vibration    26          0.889              1.174              0.578
 Vibration    27          0.910              1.129              0.534
 Vibration    28          0.938              1.071              0.483
 Vibration    29          0.970              1.009              0.432
 Vibration    30          0.975              0.999              0.423

                           ! Non-Optimized Parameters !
 Normal termination of Gaussian 16 at Mon Dec 14 17:50:16 2020.

 ----------------------------------------------------------------------
 # B3LYP/6-311++G(d,p) empiricaldispersion=gd3bj scf=xqc pop=npa geom=c
 heck
 ----------------------------------------------------------------------

 ---------------------------------------
 CID_62674953_JID_10060_Energie_neutraal
 ---------------------------------------
 Structure from the checkpoint file:  "JID_10060.chk"
 Charge =  0 Multiplicity = 1

 SCF Done:  E(RB3LYP) =  -1328.86627848     A.U. after   16 cycles
 Normal termination of Gaussian 16 at Mon Dec 14 17:56:19 2020.

 ----------------------------------------------------------------------
 # B3LYP/6-311++G(d,p) empiricaldispersion=gd3bj scf=xqc pop=npa geom=c
 heck
 ----------------------------------------------------------------------

 -------------------------------------
 CID_62674953_JID_10060_Energie_kation
 -------------------------------------
 Structure from the checkpoint file:  "JID_10060.chk"
 Charge =  1 Multiplicity = 2

 SCF Done:  E(UB3LYP) =  -1328.56218433     A.U. after   33 cycles
 SCF Done:  E(UB3LYP) =  -1328.56218433     a.u. after    1 cycles
 Normal termination of Gaussian 16 at Mon Dec 14 18:13:21 2020.
 Gaussian 16:  ES64L-G16RevA.03 25-Dec-2016

 ----------------------------------------------------------------------
 # B3LYP/6-311++G(d,p) empiricaldispersion=gd3bj scf=xqc pop=npa geom=c
 heck
 ----------------------------------------------------------------------

 ------------------------------------
 CID_62674953_JID_10060_Energie_anion
 ------------------------------------
 Structure from the checkpoint file:  "JID_10060.chk"
 Charge = -1 Multiplicity = 2

                         Standard orientation:
 ---------------------------------------------------------------------
 Center     Atomic      Atomic             Coordinates (Angstroms)
 Number     Number       Type             X           Y           Z
 ---------------------------------------------------------------------
      1          6           0       -0.591331   -0.088368    2.458056
      2          6           0       -0.911366    0.331307    1.051260
      3          6           0       -0.197791    1.227284    0.286334
      4         16           0       -0.956241    1.580643   -1.261074
      5          6           0       -2.229452    0.452615   -0.914302
      6          6           0       -2.079082   -0.120914    0.350647
      7          6           0       -3.074495   -1.072421    0.805750
      8          8           0       -3.126409   -1.672224    1.870290
      9          7           0       -4.077257   -1.272872   -0.177153
     10          6           0       -4.114998   -0.655102   -1.392999
     11          7           0       -3.232339    0.203709   -1.806508
     12          6           0        1.028947    2.008014    0.593368
     13          8           0        1.120423    3.194232    0.295883
     14          7           0        2.061056    1.342284    1.226594
     15          6           0        2.409672   -0.054756    0.975745
     16          6           0        2.761300   -0.344240   -0.504110
     17          6           0        3.909186    0.539768   -1.013012
     18          6           0        3.077442   -1.817944   -0.661113
     19          8           0        2.429377   -2.619388   -1.294800
     20          8           0        4.197808   -2.169156    0.025713
     21          1           0       -1.461334    0.070362    3.101397
     22          1           0       -0.373194   -1.160997    2.508178
     23          1           0        0.257031    0.471424    2.855358
     24          1           0       -4.801142   -1.934263    0.081277
     25          1           0       -4.950504   -0.918013   -2.036440
     26          1           0        2.851413    1.966770    1.349167
     27          1           0        3.265509   -0.293683    1.612481
     28          1           0        1.586700   -0.699762    1.285528
     29          1           0        1.866931   -0.171150   -1.109970
     30          1           0        4.810231    0.402253   -0.406605
     31          1           0        4.157164    0.298062   -2.051185
     32          1           0        3.616249    1.593560   -0.978439
     33          1           0        4.316784   -3.125877   -0.124526
 ---------------------------------------------------------------------

 SCF Done:  E(UB3LYP) =  -1328.88705610     A.U. after   33 cycles
 SCF Done:  E(UB3LYP) =  -1328.88705610     a.u. after    1 cycles

 The electronic state is 2-A.
 Alpha  occ. eigenvalues --  -88.72494 -19.09762 -19.03527 -18.96689 -18.95641
 Alpha  occ. eigenvalues --  -14.23524 -14.21764 -14.17765 -10.22256 -10.15370
 Alpha  occ. eigenvalues --  -10.13713 -10.11493 -10.10311 -10.10026 -10.08617
 Alpha  occ. eigenvalues --  -10.08426 -10.05469 -10.05350 -10.04571 -10.04085
 Alpha  occ. eigenvalues --   -7.81182  -5.77484  -5.77137  -5.76756  -1.03418
 Alpha  occ. eigenvalues --   -0.94275  -0.92147  -0.91099  -0.85429  -0.81071
 Alpha  occ. eigenvalues --   -0.77599  -0.73241  -0.71326  -0.63801  -0.62745
 Alpha  occ. eigenvalues --   -0.60632  -0.57654  -0.55948  -0.54157  -0.51085
 Alpha  occ. eigenvalues --   -0.49995  -0.47528  -0.43017  -0.41626  -0.40676
 Alpha  occ. eigenvalues --   -0.40453  -0.39979  -0.39441  -0.36950  -0.36016
 Alpha  occ. eigenvalues --   -0.35330  -0.33468  -0.33220  -0.32778  -0.31531
 Alpha  occ. eigenvalues --   -0.30963  -0.30036  -0.29635  -0.29375  -0.28678
 Alpha  occ. eigenvalues --   -0.28329  -0.26943  -0.26258  -0.25451  -0.25259
 Alpha  occ. eigenvalues --   -0.25031  -0.24666  -0.22633  -0.21110  -0.20166
 Alpha  occ. eigenvalues --   -0.16285  -0.15292  -0.14985  -0.14162  -0.13215
 Alpha  occ. eigenvalues --   -0.11842  -0.09141   0.03472
 Alpha virt. eigenvalues --    0.05658   0.07160   0.08020   0.08153   0.08803
 Alpha virt. eigenvalues --    0.09924   0.10124   0.11211   0.11465   0.11802
 Alpha virt. eigenvalues --    0.12242   0.12477   0.13001   0.13236   0.14584

  Beta  occ. eigenvalues --  -88.72429 -19.09757 -19.03512 -18.96713 -18.95424
  Beta  occ. eigenvalues --  -14.23396 -14.21745 -14.17871 -10.22235 -10.15384
  Beta  occ. eigenvalues --  -10.13552 -10.11477 -10.10025 -10.09819 -10.08420
  Beta  occ. eigenvalues --  -10.08284 -10.05409 -10.05141 -10.04574 -10.04052
  Beta  occ. eigenvalues --   -7.81123  -5.77451  -5.77107  -5.76546  -1.03396
  Beta  occ. eigenvalues --   -0.94251  -0.92107  -0.90720  -0.85091  -0.80928
  Beta  occ. eigenvalues --   -0.77308  -0.73007  -0.71288  -0.63578  -0.62381
  Beta  occ. eigenvalues --   -0.60594  -0.57556  -0.55627  -0.53657  -0.51035
  Beta  occ. eigenvalues --   -0.49696  -0.47269  -0.42806  -0.41594  -0.40576
  Beta  occ. eigenvalues --   -0.40343  -0.39812  -0.39331  -0.36873  -0.35704
  Beta  occ. eigenvalues --   -0.35270  -0.33409  -0.32970  -0.32205  -0.31409
  Beta  occ. eigenvalues --   -0.30891  -0.29783  -0.29467  -0.29285  -0.28362
  Beta  occ. eigenvalues --   -0.28150  -0.26656  -0.26162  -0.25337  -0.24956
  Beta  occ. eigenvalues --   -0.24712  -0.24159  -0.21594  -0.20833  -0.20128
  Beta  occ. eigenvalues --   -0.15588  -0.14999  -0.14952  -0.14022  -0.12868
  Beta  occ. eigenvalues --   -0.11032  -0.07756
  Beta virt. eigenvalues --    0.05635   0.07254   0.07983   0.08151   0.08604
  Beta virt. eigenvalues --    0.09370   0.10084   0.10994   0.11229   0.11427
  Beta virt. eigenvalues --    0.11789   0.12430   0.12848   0.13053   0.13352

 Mulliken charges and spin densities:
               1          2
     1  C   -0.752354  -0.011280
     2  C    0.150004   0.076299
     3  C   -0.121564   0.056759
     4  S   -0.203187   0.160005
     5  C   -0.694990   0.134426
     6  C    0.283130   0.026346
     7  C    0.275962  -0.022799
     8  O   -0.392630  -0.004714
     9  N   -0.309410   0.027354
    10  C    0.077953   0.385755
    11  N   -0.112121  -0.075527
    12  C   -0.094960   0.155370
    13  O   -0.314887   0.068041
    14  N   -0.231897   0.009703
    15  C    0.212420  -0.000173
    16  C   -0.173994   0.014039
    17  C   -0.767485  -0.010698
    18  C   -0.144273  -0.012811
    19  O   -0.239752   0.004269
    20  O   -0.131450   0.000498
    21  H    0.188204   0.001105
    22  H    0.181880   0.000817
    23  H    0.158163   0.001860
    24  H    0.324138  -0.002261
    25  H    0.154576  -0.029952
    26  H    0.311040  -0.000214
    27  H    0.163838   0.016645
    28  H    0.209775  -0.002442
    29  H    0.226794   0.010964
    30  H    0.159436   0.000803
    31  H    0.133616   0.007637
    32  H    0.198799   0.014458
    33  H    0.275228  -0.000284
 Sum of Mulliken charges =  -1.00000   1.00000

 Dipole moment (field-independent basis, Debye):
    X=              5.9911    Y=             -4.1769    Z=              1.0294  Tot=              7.3756
 Quadrupole moment (field-independent basis, Debye-Ang):
   XX=           -141.5024   YY=           -157.8923   ZZ=           -147.5233
   XY=             -4.7639   XZ=              3.2534   YZ=              3.3967

 Summary of Natural Population Analysis:

                                       Natural Population
                Natural  -----------------------------------------------
    Atom  No    Charge         Core      Valence    Rydberg      Total
 -----------------------------------------------------------------------
      C    1   -0.29764      0.99963     2.29344    0.00456     3.29764
      C    2   -0.00797      0.99943     1.99878    0.00977     3.00797
      C    3   -0.11299      0.99938     2.09916    0.01446     3.11299
      S    4    0.23473      4.99941     2.74470    0.02116     7.76527
      C    5    0.08364      0.99944     1.90037    0.01654     2.91636
      C    6   -0.11720      0.99935     2.10677    0.01108     3.11720
      C    7    0.32604      0.99959     1.65304    0.02133     2.67396
      O    8   -0.34284      0.99988     3.33618    0.00678     4.34284
      N    9   -0.28717      0.99967     2.78028    0.00722     3.78717
      C   10    0.23590      0.99968     1.74745    0.01698     2.76410
      N   11   -0.28682      0.99967     2.77533    0.01183     3.78682
      C   12    0.34567      0.99958     1.63109    0.02366     2.65433
      O   13   -0.30142      0.99988     3.29586    0.00568     4.30142
      N   14   -0.32781      0.99968     2.81624    0.01188     3.82781
      C   15   -0.08541      0.99960     2.07367    0.01215     3.08541
      C   16   -0.16637      0.99955     2.15557    0.01125     3.16637
      C   17   -0.28733      0.99965     2.28262    0.00506     3.28733
      C   18    0.41054      0.99968     1.56295    0.02682     2.58946
      O   19   -0.29875      0.99987     3.29221    0.00667     4.29875
      O   20   -0.35360      0.99988     3.34676    0.00697     4.35360
      H   21    0.11091      0.00000     0.38815    0.00094     0.38909
      H   22    0.10370      0.00000     0.39527    0.00103     0.39630
      H   23    0.10216      0.00000     0.39684    0.00100     0.39784
      H   24    0.19246      0.00000     0.30497    0.00257     0.30754
      H   25    0.07259      0.00000     0.42627    0.00114     0.42741
      H   26    0.18519      0.00000     0.31315    0.00166     0.31481
      H   27    0.09580      0.00000     0.40321    0.00099     0.40420
      H   28    0.10749      0.00000     0.39146    0.00105     0.39251
      H   29    0.12238      0.00000     0.37587    0.00174     0.37762
      H   30    0.09742      0.00000     0.40162    0.00096     0.40258
      H   31    0.10043      0.00000     0.39884    0.00073     0.39957
      H   32    0.11029      0.00000     0.38879    0.00092     0.38971
      H   33    0.23597      0.00000     0.25999    0.00404     0.26403
 =======================================================================
   * Total *    0.00000     23.99250    52.73688    0.27062    77.00000

 Normal termination of Gaussian 16 at Mon Dec 14 18:31:12 2020.
