 Gaussian 16, Revision A.03,

 -----------------------------------------------------------
 # opt freq B3LYP/6-31G(d) empiricaldispersion=gd3bj scf=xqc
 -----------------------------------------------------------

 ------------------------------
 CID_60179217_JID_3354_neutraal
 ------------------------------
 Symbolic Z-matrix:
 Charge =  0 Multiplicity = 1

 SCF Done:  E(RB3LYP) =  -585.251298096     A.U. after   14 cycles
 SCF Done:  E(RB3LYP) =  -585.258238424     A.U. after   12 cycles
 SCF Done:  E(RB3LYP) =  -585.258836402     A.U. after   11 cycles
 SCF Done:  E(RB3LYP) =  -585.259377803     A.U. after   11 cycles
 SCF Done:  E(RB3LYP) =  -585.259540521     A.U. after   11 cycles
 SCF Done:  E(RB3LYP) =  -585.259638547     A.U. after   11 cycles
 SCF Done:  E(RB3LYP) =  -585.259658436     A.U. after    9 cycles
 SCF Done:  E(RB3LYP) =  -585.259688580     A.U. after   10 cycles
 SCF Done:  E(RB3LYP) =  -585.259723581     A.U. after   11 cycles
 SCF Done:  E(RB3LYP) =  -585.259741275     A.U. after   12 cycles
 SCF Done:  E(RB3LYP) =  -585.260707143     A.U. after   11 cycles
 SCF Done:  E(RB3LYP) =  -585.260726143     A.U. after   10 cycles
 SCF Done:  E(RB3LYP) =  -585.260729013     A.U. after    9 cycles
 SCF Done:  E(RB3LYP) =  -585.260729621     A.U. after    8 cycles
 SCF Done:  E(RB3LYP) =  -585.260729703     A.U. after    7 cycles
 SCF Done:  E(RB3LYP) =  -585.260729740     A.U. after    7 cycles
 Optimization completed.
    -- Stationary point found.

 1\1\GINC-NODE316\FOpt\RB3LYP\6-31G(d)\C8H11N5\VSC10255\09-Dec-2020\0\\
 # opt freq B3LYP/6-31G(d) empiricaldispersion=gd3bj scf=xqc\\CID_60179
 217_JID_3354_neutraal\\0,1\C,0.7338088412,0.0806295912,-0.0142755254\C
 ,0.3561802718,-0.2851719306,-1.4119845304\C,0.3273797522,-1.5175376002
 ,-2.0141583962\C,-0.1375492762,-1.3517135807,-3.3539077312\C,-0.397882
 9346,-0.0203911564,-3.5586711856\N,-0.0939426478,0.6426816699,-2.36168
 05991\C,-0.2136944737,2.0158113452,-2.1557516264\N,0.6424619022,2.6959
 948405,-1.4099671902\N,0.1009332622,3.9608342938,-1.4602622375\C,-0.99

 Normal termination of Gaussian 16 at Wed Dec  9 23:03:09 2020.

 --------------------------------------------------------------------
 #N Geom=AllCheck Guess=TCheck SCRF=Check GenChk RB3LYP/6-31G(d) Freq
 --------------------------------------------------------------------

 Structure from the checkpoint file:  "JID_3354.chk"
 ------------------------------
 CID_60179217_JID_3354_neutraal
 ------------------------------
 Charge =  0 Multiplicity = 1

 SCF Done:  E(RB3LYP) =  -585.260729740     A.U. after    1 cycles

  Exact polarizability: 156.891   1.124 119.308  -1.291  -4.173  59.742
 Approx polarizability: 223.054   5.776 186.177  -4.920 -15.582  95.757

                      1                      2                      3
                      A                      A                      A
 Frequencies --     38.7545                78.8341               120.5571
 Red. masses --      4.9536                 3.6698                 4.0035
 Frc consts  --      0.0044                 0.0134                 0.0343
 IR Inten    --      0.7844                 1.0485                 2.9147

                      4                      5                      6
                      A                      A                      A
 Frequencies --    163.5656               175.9867               192.7650
 Red. masses --      2.6644                 1.1138                 1.1327
 Frc consts  --      0.0420                 0.0203                 0.0248
 IR Inten    --      8.1825                 0.5232                 0.6600

                      7                      8                      9
                      A                      A                      A
 Frequencies --    247.6157               264.9674               272.0191
 Red. masses --      2.6516                 1.3017                 3.1880
 Frc consts  --      0.0958                 0.0538                 0.1390
 IR Inten    --     24.9363                33.9233                 7.0702

                     10                     11                     12
                      A                      A                      A
 Frequencies --    289.4871               310.6472               349.8816
 Red. masses --      2.8682                 3.4928                 3.4636
 Frc consts  --      0.1416                 0.1986                 0.2498
 IR Inten    --      1.3700                 2.0403                36.0629

                     13                     14                     15
                      A                      A                      A
 Frequencies --    399.3851               415.4831               459.3591
 Red. masses --      1.8830                 4.9137                 2.4915
 Frc consts  --      0.1770                 0.4998                 0.3098
 IR Inten    --     32.6854                 1.5297                21.4590

                     16                     17                     18
                      A                      A                      A
 Frequencies --    536.6907               613.7925               629.0858
 Red. masses --      3.7365                 4.0727                 3.3718
 Frc consts  --      0.6341                 0.9040                 0.7862
 IR Inten    --      5.0150                13.4652                 5.0217

                     19                     20                     21
                      A                      A                      A
 Frequencies --    641.2409               655.9012               720.5920
 Red. masses --      5.3060                 1.7855                 4.3557
 Frc consts  --      1.2855                 0.4526                 1.3326
 IR Inten    --      2.6775               242.4685                38.3140

                     22                     23                     24
                      A                      A                      A
 Frequencies --    736.7599               764.9039               770.7750
 Red. masses --      4.9945                 2.9772                 2.1208
 Frc consts  --      1.5973                 1.0263                 0.7423
 IR Inten    --     23.7482                61.1938                 6.6696

                     25                     26                     27
                      A                      A                      A
 Frequencies --    781.3110               828.6973               985.6482
 Red. masses --      2.0831                 1.2997                 4.8231
 Frc consts  --      0.7492                 0.5259                 2.7607
 IR Inten    --     46.5998                 0.0393                 3.5648

                     28                     29                     30
                      A                      A                      A
 Frequencies --   1000.0074              1010.5542              1053.1955
 Red. masses --      2.5697                 1.8226                 1.3817
 Frc consts  --      1.5140                 1.0966                 0.9030
 IR Inten    --      1.8276                 5.8590                11.3714

                     31                     32                     33
                      A                      A                      A
 Frequencies --   1060.7285              1073.0242              1079.6377
 Red. masses --      1.9507                 2.9092                 1.4083
 Frc consts  --      1.2932                 1.9735                 0.9672
 IR Inten    --      1.7686                 2.8019                 0.0545

                     34                     35                     36
                      A                      A                      A
 Frequencies --   1087.2699              1101.5854              1131.4241
 Red. masses --      1.4464                 2.9666                 2.4524
 Frc consts  --      1.0074                 2.1210                 1.8497
 IR Inten    --      3.5628                 7.5611                24.9030

                     37                     38                     39
                      A                      A                      A
 Frequencies --   1192.1035              1256.5817              1297.2747
 Red. masses --      5.3704                 1.4162                 4.8090
 Frc consts  --      4.4966                 1.3175                 4.7683
 IR Inten    --     26.2154                 1.6901                17.8136

                     40                     41                     42
                      A                      A                      A
 Frequencies --   1334.7450              1361.4904              1417.5624
 Red. masses --      2.6366                 3.7465                 3.1173
 Frc consts  --      2.7676                 4.0917                 3.6908
 IR Inten    --     17.6802                 1.7226                 8.2871

                     43                     44                     45
                      A                      A                      A
 Frequencies --   1440.6628              1447.1436              1453.0064
 Red. masses --      3.3375                 1.2727                 1.3126
 Frc consts  --      4.0813                 1.5704                 1.6327
 IR Inten    --    131.2656                 7.6050                18.7813

                     46                     47                     48
                      A                      A                      A
 Frequencies --   1504.3050              1505.1624              1518.2240
 Red. masses --      1.0488                 1.0443                 1.2192
 Frc consts  --      1.3984                 1.3939                 1.6557
 IR Inten    --      5.4444                 9.3795                36.7914

                     49                     50                     51
                      A                      A                      A
 Frequencies --   1522.1242              1530.0543              1589.4025
 Red. masses --      1.2156                 3.9355                 4.8983
 Frc consts  --      1.6594                 5.4283                 7.2906
 IR Inten    --     21.3696               204.7452                96.0725

                     52                     53                     54
                      A                      A                      A
 Frequencies --   1594.0914              1628.7689              1654.0998
 Red. masses --      7.4820                 2.2385                 5.6448
 Frc consts  --     11.2020                 3.4988                 9.0995
 IR Inten    --    274.4988                41.5853                15.0108

                     55                     56                     57
                      A                      A                      A
 Frequencies --   1692.7973              3047.3503              3048.3685
 Red. masses --      1.6666                 1.0403                 1.0396
 Frc consts  --      2.8138                 5.6917                 5.6916
 IR Inten    --    187.6255                62.1203                11.7502

                     58                     59                     60
                      A                      A                      A
 Frequencies --   3104.2464              3105.8892              3132.2209
 Red. masses --      1.0967                 1.0947                 1.1025
 Frc consts  --      6.2265                 6.2216                 6.3730
 IR Inten    --     16.3033                22.4753                21.0494

                     61                     62                     63
                      A                      A                      A
 Frequencies --   3134.9811              3244.8174              3259.5846
 Red. masses --      1.1028                 1.0915                 1.1003
 Frc consts  --      6.3858                 6.7710                 6.8880
 IR Inten    --     21.8556                12.1361                 9.3343

                     64                     65                     66
                      A                      A                      A
 Frequencies --   3547.7274              3647.9962              3667.1297
 Red. masses --      1.0484                 1.0976                 1.0814
 Frc consts  --      7.7742                 8.6060                 8.5678
 IR Inten    --     27.7008                27.2936                68.0111

 - Thermochemistry -
 -------------------
 Temperature   298.150 Kelvin.  Pressure   1.00000 Atm.
 Atom     1 has atomic number  6 and mass  12.00000

 Molecular mass:   177.10145 amu.
 Principal axes and moments of inertia in atomic units:
                           1         2         3
     Eigenvalues --  1176.644582993.395903982.92363
           X            0.99997  -0.00703   0.00271
           Y            0.00700   0.99991   0.01108
           Z           -0.00279  -0.01106   0.99993
 This molecule is an asymmetric top.
 Rotational symmetry number  1.
 Warning -- assumption of classical behavior for rotation
           may cause significant error
 Rotational temperatures (Kelvin)      0.07361     0.02894     0.02175
 Rotational constants (GHZ):           1.53380     0.60291     0.45312
 Zero-point vibrational energy     513928.0 (Joules/Mol)
                                  122.83173 (Kcal/Mol)
 Warning -- explicit consideration of  17 degrees of freedom as
           vibrations may cause significant error
 Vibrational temperatures:     55.76   113.42   173.45   235.33   253.21
          (Kelvin)            277.35   356.26   381.23   391.37   416.51
                              446.95   503.40   574.63   597.79   660.92
                              772.18   883.11   905.11   922.60   943.70
                             1036.77  1060.03  1100.53  1108.97  1124.13
                             1192.31  1418.13  1438.79  1453.96  1515.31
                             1526.15  1543.84  1553.36  1564.34  1584.94
                             1627.87  1715.17  1807.94  1866.49  1920.40
                             1958.88  2039.56  2072.79  2082.12  2090.55
                             2164.36  2165.59  2184.39  2190.00  2201.41
                             2286.80  2293.54  2343.44  2379.88  2435.56
                             4384.46  4385.92  4466.32  4468.68  4506.57
                             4510.54  4668.57  4689.82  5104.39  5248.65
                             5276.18

 Zero-point correction=                           0.195745 (Hartree/Particle)
 Thermal correction to Energy=                    0.207895
 Thermal correction to Enthalpy=                  0.208839
 Thermal correction to Gibbs Free Energy=         0.157488
 Sum of electronic and zero-point Energies=           -585.064985
 Sum of electronic and thermal Energies=              -585.052835
 Sum of electronic and thermal Enthalpies=            -585.051891
 Sum of electronic and thermal Free Energies=         -585.103242

                     E (Thermal)             CV                S
                      KCal/Mol        Cal/Mol-Kelvin    Cal/Mol-Kelvin
 Total                  130.456             46.043            108.078
 Electronic               0.000              0.000              0.000
 Translational            0.889              2.981             41.422
 Rotational               0.889              2.981             31.018
 Vibrational            128.679             40.081             35.638
 Vibration     1          0.594              1.981              5.322
 Vibration     2          0.600              1.963              3.920
 Vibration     3          0.609              1.932              3.091
 Vibration     4          0.623              1.887              2.508
 Vibration     5          0.628              1.872              2.371
 Vibration     6          0.635              1.850              2.201
 Vibration     7          0.661              1.767              1.747
 Vibration     8          0.671              1.737              1.629
 Vibration     9          0.675              1.725              1.583
 Vibration    10          0.686              1.693              1.477
 Vibration    11          0.699              1.653              1.359
 Vibration    12          0.727              1.575              1.167
 Vibration    13          0.765              1.471              0.965
 Vibration    14          0.779              1.437              0.907
 Vibration    15          0.817              1.340              0.768
 Vibration    16          0.892              1.169              0.572
 Vibration    17          0.973              1.003              0.427

                           ! Non-Optimized Parameters !

 1\1\GINC-NODE316\Freq\RB3LYP\6-31G(d)\C8H11N5\VSC10255\09-Dec-2020\0\\
 #N Geom=AllCheck Guess=TCheck SCRF=Check GenChk RB3LYP/6-31G(d) Freq\\
 CID_60179217_JID_3354_neutraal\\0,1\C,0.7338088412,0.0806295912,-0.014
 2755254\C,0.3561802718,-0.2851719306,-1.4119845304\C,0.3273797522,-1.5
 175376002,-2.0141583962\C,-0.1375492762,-1.3517135807,-3.3539077312\C,
 -0.3978829346,-0.0203911564,-3.5586711856\N,-0.0939426478,0.6426816699
 ,-2.3616805991\C,-0.2136944737,2.0158113452,-2.1557516264\N,0.64246190
 22,2.6959948405,-1.4099671902\N,0.1009332622,3.9608342938,-1.460262237

 Normal termination of Gaussian 16 at Wed Dec  9 23:08:40 2020.

 ----------------------------------------------------------------------
 # B3LYP/6-311++G(d,p) empiricaldispersion=gd3bj scf=xqc pop=npa geom=c
 heck
 ----------------------------------------------------------------------

 --------------------------------------
 CID_60179217_JID_3354_Energie_neutraal
 --------------------------------------
 Structure from the checkpoint file:  "JID_3354.chk"
 Charge =  0 Multiplicity = 1

 SCF Done:  E(RB3LYP) =  -585.425627672     A.U. after   14 cycles
 Normal termination of Gaussian 16 at Wed Dec  9 23:10:29 2020.

 ----------------------------------------------------------------------
 # B3LYP/6-311++G(d,p) empiricaldispersion=gd3bj scf=xqc pop=npa geom=c
 heck
 ----------------------------------------------------------------------

 ------------------------------------
 CID_60179217_JID_3354_Energie_kation
 ------------------------------------
 Structure from the checkpoint file:  "JID_3354.chk"
 Charge =  1 Multiplicity = 2

 SCF Done:  E(UB3LYP) =  -585.161851268     A.U. after   24 cycles
 Normal termination of Gaussian 16 at Wed Dec  9 23:14:36 2020.
 Gaussian 16:  ES64L-G16RevA.03 25-Dec-2016

 -----------------------------------
 CID_60179217_JID_3354_Energie_anion
 -----------------------------------
 Structure from the checkpoint file:  "JID_3354.chk"
 Charge = -1 Multiplicity = 2

                         Standard orientation:
 ---------------------------------------------------------------------
 Center     Atomic      Atomic             Coordinates (Angstroms)
 Number     Number       Type             X           Y           Z
 ---------------------------------------------------------------------
      1          6           0        1.520734   -2.431276   -0.303468
      2          6           0        1.849998   -0.982569   -0.152344
      3          6           0        3.070051   -0.356289   -0.189895
      4          6           0        2.859451    1.046818   -0.030140
      5          6           0        1.511540    1.269339    0.095325
      6          7           0        0.883704    0.018298    0.020819
      7          6           0       -0.490569   -0.193334    0.114721
      8          7           0       -1.002734   -1.254304    0.717943
      9          7           0       -2.350349   -1.056717    0.516713
     10          6           0       -2.558228    0.105460   -0.145391
     11          7           0       -1.399083    0.672276   -0.438103
     12          7           0       -3.805649    0.630299   -0.418427
     13          6           0        0.777349    2.550456    0.319260
     14          1           0        2.437057   -2.973224   -0.556100
     15          1           0        0.790478   -2.606996   -1.102990
     16          1           0        1.098674   -2.863199    0.609399
     17          1           0        4.017823   -0.860129   -0.325799
     18          1           0        3.616782    1.819085   -0.004433
     19          1           0       -3.012815   -1.672888    0.962282
     20          1           0       -3.742931    1.407495   -1.065758
     21          1           0       -4.503655   -0.044329   -0.709592
     22          1           0        1.508083    3.355387    0.442530
     23          1           0        0.112502    2.801104   -0.512733
     24          1           0        0.154826    2.517088    1.222163
 ---------------------------------------------------------------------

 SCF Done:  E(UB3LYP) =  -585.422090289     A.U. after   28 cycles

 The electronic state is 2-A.
 Alpha  occ. eigenvalues --  -14.27329 -14.26733 -14.22681 -14.21519 -14.19298
 Alpha  occ. eigenvalues --  -10.16869 -10.15437 -10.10340 -10.10317 -10.07362
 Alpha  occ. eigenvalues --  -10.07287 -10.05941 -10.05896  -0.97180  -0.89117
 Alpha  occ. eigenvalues --   -0.82235  -0.78307  -0.72220  -0.68396  -0.67238
 Alpha  occ. eigenvalues --   -0.62746  -0.54898  -0.54265  -0.52587  -0.48050
 Alpha  occ. eigenvalues --   -0.46431  -0.42348  -0.39618  -0.38737  -0.37447
 Alpha  occ. eigenvalues --   -0.36752  -0.33972  -0.33279  -0.32733  -0.31768
 Alpha  occ. eigenvalues --   -0.31434  -0.29272  -0.28212  -0.27540  -0.26685
 Alpha  occ. eigenvalues --   -0.23208  -0.22856  -0.19892  -0.17913  -0.15223
 Alpha  occ. eigenvalues --   -0.11587  -0.10930   0.04463
 Alpha virt. eigenvalues --    0.06998   0.07744   0.08584   0.09033   0.09450
 Alpha virt. eigenvalues --    0.10546   0.11123   0.11650   0.11921   0.12590
 Alpha virt. eigenvalues --    0.13523   0.13960   0.14222   0.15082   0.15482

  Beta  occ. eigenvalues --  -14.27254 -14.26734 -14.22669 -14.21392 -14.19285
  Beta  occ. eigenvalues --  -10.16863 -10.15437 -10.10338 -10.10315 -10.07358
  Beta  occ. eigenvalues --  -10.07283 -10.05940 -10.05895  -0.97140  -0.89108
  Beta  occ. eigenvalues --   -0.82113  -0.78232  -0.72152  -0.68386  -0.67183
  Beta  occ. eigenvalues --   -0.62739  -0.54890  -0.54222  -0.52493  -0.48007
  Beta  occ. eigenvalues --   -0.46331  -0.42277  -0.39596  -0.38640  -0.37341
  Beta  occ. eigenvalues --   -0.36705  -0.33959  -0.33250  -0.32722  -0.31761
  Beta  occ. eigenvalues --   -0.31427  -0.29267  -0.28207  -0.27529  -0.26678
  Beta  occ. eigenvalues --   -0.23167  -0.22776  -0.19863  -0.17896  -0.15191
  Beta  occ. eigenvalues --   -0.11525  -0.10922
  Beta virt. eigenvalues --    0.06826   0.07716   0.08266   0.09258   0.09565
  Beta virt. eigenvalues --    0.09985   0.10771   0.11576   0.11812   0.12100
  Beta virt. eigenvalues --    0.12796   0.13595   0.14145   0.14448   0.15329

 Mulliken charges and spin densities:
               1          2
     1  C   -0.417589  -0.346896
     2  C    0.203589   0.005478
     3  C   -0.190151   0.038236
     4  C   -0.215925   0.041529
     5  C    0.088225   0.028111
     6  N    0.365479  -0.023654
     7  C    1.312291  -1.560818
     8  N   -0.558311   0.429539
     9  N    0.586652  -0.774285
    10  C   -0.084863   0.265640
    11  N   -0.131321  -0.128582
    12  N   -0.495147   0.158142
    13  C   -0.377826  -0.370924
    14  H    0.098145   0.014427
    15  H    0.050620   0.134427
    16  H    0.156109   0.026748
    17  H    0.116086   0.018783
    18  H    0.099075   0.032174
    19  H   -0.580389   0.940080
    20  H   -0.401448   0.678927
    21  H   -0.990925   1.274281
    22  H    0.103388   0.013257
    23  H    0.150518   0.042267
    24  H    0.113719   0.063115
 Sum of Mulliken charges =  -1.00000   1.00000

 Dipole moment (field-independent basis, Debye):
    X=             13.0396    Y=              1.9443    Z=              1.4577  Tot=             13.2641
 Quadrupole moment (field-independent basis, Debye-Ang):
   XX=           -169.3239   YY=           -104.0263   ZZ=           -101.4167
   XY=             -8.2978   XZ=             -8.4252   YZ=              4.7973

 Summary of Natural Population Analysis:

                                       Natural Population
                Natural  -----------------------------------------------
    Atom  No    Charge         Core      Valence    Rydberg      Total
 -----------------------------------------------------------------------
      C    1   -0.30152      0.99963     2.29718    0.00470     3.30152
      C    2    0.08572      0.99953     1.90518    0.00956     2.91428
      C    3   -0.14920      0.99950     2.14004    0.00966     3.14920
      C    4   -0.14924      0.99950     2.14003    0.00971     3.14924
      C    5    0.08613      0.99953     1.90475    0.00959     2.91387
      N    6   -0.21361      0.99956     2.70608    0.00797     3.71361
      C    7    0.26030      0.99962     1.72044    0.01964     2.73970
      N    8   -0.17785      0.99969     2.66588    0.01227     3.67785
      N    9   -0.19214      0.99965     2.67885    0.01364     3.69214
      C   10    0.28922      0.99962     1.69442    0.01673     2.71078
      N   11   -0.29486      0.99967     2.78497    0.01022     3.79486
      N   12   -0.39848      0.99971     2.88889    0.00988     3.89848
      C   13   -0.30159      0.99963     2.29738    0.00458     3.30159
      H   14    0.09938      0.00000     0.39982    0.00080     0.40062
      H   15    0.10814      0.00000     0.39059    0.00127     0.39186
      H   16    0.11259      0.00000     0.38592    0.00149     0.38741
      H   17    0.09985      0.00000     0.39928    0.00087     0.40015
      H   18    0.09990      0.00000     0.39924    0.00086     0.40010
      H   19    0.21201      0.00000     0.27520    0.01279     0.28799
      H   20    0.19701      0.00000     0.29755    0.00544     0.30299
      H   21    0.20755      0.00000     0.23347    0.05899     0.29245
      H   22    0.09927      0.00000     0.39993    0.00080     0.40073
      H   23    0.11562      0.00000     0.38282    0.00156     0.38438
      H   24    0.10581      0.00000     0.39293    0.00126     0.39419
 =======================================================================
   * Total *    0.00000     12.99487    33.78084    0.22429    47.00000

 Normal termination of Gaussian 16 at Wed Dec  9 23:19:27 2020.
