 Gaussian 16, Revision A.03,

 -----------------------------------------------------------
 # opt freq B3LYP/6-31G(d) empiricaldispersion=gd3bj scf=xqc
 -----------------------------------------------------------

 -------------------------------
 CID_103563826_JID_6243_neutraal
 -------------------------------
 Symbolic Z-matrix:
 Charge =  0 Multiplicity = 1

 SCF Done:  E(RB3LYP) =  -695.768472090     A.U. after   13 cycles
 SCF Done:  E(RB3LYP) =  -695.781503667     A.U. after   10 cycles
 SCF Done:  E(RB3LYP) =  -695.782507930     A.U. after   10 cycles
 SCF Done:  E(RB3LYP) =  -695.782715555     A.U. after   10 cycles
 SCF Done:  E(RB3LYP) =  -695.782987324     A.U. after   10 cycles
 SCF Done:  E(RB3LYP) =  -695.783026414     A.U. after    9 cycles
 SCF Done:  E(RB3LYP) =  -695.783030771     A.U. after    9 cycles
 SCF Done:  E(RB3LYP) =  -695.783033900     A.U. after    8 cycles
 SCF Done:  E(RB3LYP) =  -695.783034623     A.U. after    8 cycles
 SCF Done:  E(RB3LYP) =  -695.783034994     A.U. after    7 cycles
 SCF Done:  E(RB3LYP) =  -695.783035076     A.U. after    6 cycles
 Optimization completed.
    -- Stationary point found.
 Normal termination of Gaussian 16 at Thu Dec 10 21:47:29 2020.

 --------------------------------------------------------------------
 #N Geom=AllCheck Guess=TCheck SCRF=Check GenChk RB3LYP/6-31G(d) Freq
 --------------------------------------------------------------------

 Structure from the checkpoint file:  "JID_6243.chk"
 -------------------------------
 CID_103563826_JID_6243_neutraal
 -------------------------------
 Charge =  0 Multiplicity = 1

 SCF Done:  E(RB3LYP) =  -695.783035076     A.U. after    1 cycles

  Exact polarizability: 165.196   1.025 156.115  -2.103  -2.930 127.566
 Approx polarizability: 209.212   1.383 209.052  -6.932  -1.979 200.056

                      1                      2                      3
                      A                      A                      A
 Frequencies --     31.6784                43.6767                54.8259
 Red. masses --      3.6002                 3.7036                 2.8412
 Frc consts  --      0.0021                 0.0042                 0.0050
 IR Inten    --      0.1440                 0.2541                 0.1497

                      4                      5                      6
                      A                      A                      A
 Frequencies --     70.8447                90.2541               143.1226
 Red. masses --      2.7094                 3.1411                 2.9184
 Frc consts  --      0.0080                 0.0151                 0.0352
 IR Inten    --      0.0929                 0.2546                 0.5480

                      7                      8                      9
                      A                      A                      A
 Frequencies --    150.6702               178.9833               206.0957
 Red. masses --      3.0617                 3.0150                 2.0124
 Frc consts  --      0.0410                 0.0569                 0.0504
 IR Inten    --      1.0300                 2.4860                 0.1094

                     10                     11                     12
                      A                      A                      A
 Frequencies --    232.6248               241.5053               246.7180
 Red. masses --      1.3255                 1.8027                 1.2267
 Frc consts  --      0.0423                 0.0619                 0.0440
 IR Inten    --      2.9950                 0.4131                 0.1004

                     13                     14                     15
                      A                      A                      A
 Frequencies --    263.1776               266.5434               299.9994
 Red. masses --      1.3473                 1.9120                 2.5801
 Frc consts  --      0.0550                 0.0800                 0.1368
 IR Inten    --      0.8766                 4.9850                 0.6176

                     16                     17                     18
                      A                      A                      A
 Frequencies --    322.4346               353.5444               373.6365
 Red. masses --      2.4549                 2.4341                 2.5249
 Frc consts  --      0.1504                 0.1793                 0.2077
 IR Inten    --      1.5894                 5.5929                 0.5654

                     19                     20                     21
                      A                      A                      A
 Frequencies --    402.0575               428.4872               451.2116
 Red. masses --      2.4951                 2.7037                 3.4657
 Frc consts  --      0.2376                 0.2925                 0.4157
 IR Inten    --      4.4387                 0.8914                 0.5175

                     22                     23                     24
                      A                      A                      A
 Frequencies --    460.6619               475.6224               507.2050
 Red. masses --      3.9527                 2.0183                 2.3530
 Frc consts  --      0.4942                 0.2690                 0.3566
 IR Inten    --      2.2633                 1.5568                 0.8811

                     25                     26                     27
                      A                      A                      A
 Frequencies --    538.4981               545.2616               595.5169
 Red. masses --      2.9756                 2.0229                 2.3279
 Frc consts  --      0.5084                 0.3544                 0.4864
 IR Inten    --      9.5446                 0.9126                 4.2770

                     28                     29                     30
                      A                      A                      A
 Frequencies --    617.5181               729.1489               801.2218
 Red. masses --      1.8493                 2.6302                 2.0286
 Frc consts  --      0.4155                 0.8239                 0.7673
 IR Inten    --      2.2150                 0.2861               105.7124

                     31                     32                     33
                      A                      A                      A
 Frequencies --    827.6543               839.9959               866.9696
 Red. masses --      1.2543                 2.0316                 2.6018
 Frc consts  --      0.5062                 0.8446                 1.1522
 IR Inten    --      0.7611                42.0520                 2.8307

                     34                     35                     36
                      A                      A                      A
 Frequencies --    875.0503               896.4450               911.5285
 Red. masses --      2.6579                 1.8400                 2.4238
 Frc consts  --      1.1991                 0.8712                 1.1866
 IR Inten    --      2.7534                15.8423                13.8479

                     37                     38                     39
                      A                      A                      A
 Frequencies --    926.2431               937.9327               950.1246
 Red. masses --      2.4813                 1.2044                 2.1738
 Frc consts  --      1.2542                 0.6243                 1.1562
 IR Inten    --      3.3618                 0.9603                 5.0023

                     40                     41                     42
                      A                      A                      A
 Frequencies --    968.2121               975.2985               993.5174
 Red. masses --      2.2507                 1.4590                 2.6139
 Frc consts  --      1.2431                 0.8177                 1.5202
 IR Inten    --      6.5626                 0.2311                 5.0461

                     43                     44                     45
                      A                      A                      A
 Frequencies --   1016.3643              1044.9724              1051.7736
 Red. masses --      1.5067                 1.7090                 1.7623
 Frc consts  --      0.9170                 1.0995                 1.1486
 IR Inten    --      2.6951                13.7020                 4.0471

                     46                     47                     48
                      A                      A                      A
 Frequencies --   1059.6142              1069.8176              1075.5175
 Red. masses --      1.7471                 2.4734                 2.4598
 Frc consts  --      1.1557                 1.6679                 1.6764
 IR Inten    --      6.3440                16.5345                 6.2914

                     49                     50                     51
                      A                      A                      A
 Frequencies --   1116.4606              1127.7075              1138.1180
 Red. masses --      2.4993                 1.7945                 3.4578
 Frc consts  --      1.8355                 1.3445                 2.6389
 IR Inten    --     20.1990                31.7107                82.4190

                     52                     53                     54
                      A                      A                      A
 Frequencies --   1144.7366              1155.2498              1161.4962
 Red. masses --      2.8062                 2.5891                 2.5146
 Frc consts  --      2.1666                 2.0358                 1.9987
 IR Inten    --     63.9964                16.1878                 9.8449

                     55                     56                     57
                      A                      A                      A
 Frequencies --   1168.9842              1179.7737              1212.7490
 Red. masses --      1.4857                 2.0108                 1.8452
 Frc consts  --      1.1962                 1.6490                 1.5989
 IR Inten    --      1.1810                 3.5266                21.7642

                     58                     59                     60
                      A                      A                      A
 Frequencies --   1213.9373              1228.1555              1234.4870
 Red. masses --      1.6623                 1.5765                 1.4086
 Frc consts  --      1.4433                 1.4010                 1.2648
 IR Inten    --      4.1473                 0.7587                 2.2855

                     61                     62                     63
                      A                      A                      A
 Frequencies --   1250.7372              1271.7820              1287.8634
 Red. masses --      1.3533                 1.3749                 1.2209
 Frc consts  --      1.2473                 1.3102                 1.1930
 IR Inten    --      4.1154                 2.9397                 0.7047

                     64                     65                     66
                      A                      A                      A
 Frequencies --   1300.0222              1315.7636              1324.6979
 Red. masses --      1.2614                 1.4071                 1.5747
 Frc consts  --      1.2561                 1.4352                 1.6281
 IR Inten    --     27.6848                 1.8987                 6.9414

                     67                     68                     69
                      A                      A                      A
 Frequencies --   1349.8589              1356.0241              1360.8109
 Red. masses --      1.6532                 1.3482                 1.2876
 Frc consts  --      1.7749                 1.4606                 1.4049
 IR Inten    --     32.4417                12.2569                 1.8482

                     70                     71                     72
                      A                      A                      A
 Frequencies --   1372.3611              1377.6344              1379.4946
 Red. masses --      1.1745                 1.6104                 1.6403
 Frc consts  --      1.3033                 1.8008                 1.8391
 IR Inten    --     15.7420                25.9035                 2.7255

                     73                     74                     75
                      A                      A                      A
 Frequencies --   1399.5406              1408.3719              1411.0839
 Red. masses --      1.3058                 1.3322                 1.2880
 Frc consts  --      1.5070                 1.5569                 1.5110
 IR Inten    --      6.2666                 9.1343                 4.0675

                     76                     77                     78
                      A                      A                      A
 Frequencies --   1423.5640              1429.0535              1439.2433
 Red. masses --      1.4734                 1.3043                 1.3051
 Frc consts  --      1.7592                 1.5693                 1.5928
 IR Inten    --      3.4663                 6.4180                11.7910

                     79                     80                     81
                      A                      A                      A
 Frequencies --   1441.7873              1453.1989              1486.0961
 Red. masses --      1.3399                 1.2918                 1.1390
 Frc consts  --      1.6411                 1.6073                 1.4820
 IR Inten    --     20.1050                 7.0858                 5.5828

                     82                     83                     84
                      A                      A                      A
 Frequencies --   1494.3795              1505.1703              1505.5138
 Red. masses --      1.0756                 1.1496                 1.1079
 Frc consts  --      1.4153                 1.5345                 1.4796
 IR Inten    --      0.1614                 7.2071                 2.7498

                     85                     86                     87
                      A                      A                      A
 Frequencies --   1507.1646              1512.8917              1517.9531
 Red. masses --      1.0928                 1.0864                 1.0537
 Frc consts  --      1.4626                 1.4651                 1.4305
 IR Inten    --      0.3858                15.7823                 0.4246

                     88                     89                     90
                      A                      A                      A
 Frequencies --   1519.6977              1520.9785              1526.3597
 Red. masses --      1.0997                 1.1079                 1.0574
 Frc consts  --      1.4964                 1.5100                 1.4514
 IR Inten    --      8.5260                 1.9390                 1.8194

                     91                     92                     93
                      A                      A                      A
 Frequencies --   1535.5587              1538.8937              1541.7753
 Red. masses --      1.1037                 1.0669                 1.0697
 Frc consts  --      1.5334                 1.4886                 1.4981
 IR Inten    --      1.6047                 6.9577                13.7783

                     94                     95                     96
                      A                      A                      A
 Frequencies --   1553.5763              2963.4530              2964.7094
 Red. masses --      1.0563                 1.0716                 1.0588
 Frc consts  --      1.5021                 5.5446                 5.4832
 IR Inten    --      8.7514                53.6316                73.5171

                     97                     98                     99
                      A                      A                      A
 Frequencies --   2998.3099              3006.8538              3017.3999
 Red. masses --      1.0804                 1.0832                 1.0847
 Frc consts  --      5.7227                 5.7703                 5.8187
 IR Inten    --     60.8074                25.1034                34.3546

                    100                    101                    102
                      A                      A                      A
 Frequencies --   3038.9561              3041.0410              3043.3644
 Red. masses --      1.0493                 1.0657                 1.0634
 Frc consts  --      5.7092                 5.8065                 5.8032
 IR Inten    --     15.6629                60.6139                39.1607

                    103                    104                    105
                      A                      A                      A
 Frequencies --   3047.4390              3047.9071              3050.8138
 Red. masses --      1.0613                 1.0415                 1.0726
 Frc consts  --      5.8070                 5.7004                 5.8821
 IR Inten    --     31.0084                10.3937                34.6094

                    106                    107                    108
                      A                      A                      A
 Frequencies --   3053.5807              3078.2186              3084.9037
 Red. masses --      1.0641                 1.0607                 1.0629
 Frc consts  --      5.8458                 5.9219                 5.9599
 IR Inten    --     63.5677                42.5884                 1.6189

                    109                    110                    111
                      A                      A                      A
 Frequencies --   3092.6061              3094.3211              3096.2398
 Red. masses --      1.0948                 1.1011                 1.1033
 Frc consts  --      6.1695                 6.2116                 6.2320
 IR Inten    --     62.6341                37.8372                42.2893

                    112                    113                    114
                      A                      A                      A
 Frequencies --   3103.8635              3108.6621              3110.4508
 Red. masses --      1.1019                 1.1022                 1.0991
 Frc consts  --      6.2547                 6.2756                 6.2653
 IR Inten    --     10.8555                31.9832                17.3880

                    115                    116                    117
                      A                      A                      A
 Frequencies --   3112.0666              3114.6330              3115.2415
 Red. masses --      1.1016                 1.1017                 1.0993
 Frc consts  --      6.2860                 6.2966                 6.2856
 IR Inten    --     76.0625                51.7330                67.0822

                    118                    119                    120
                      A                      A                      A
 Frequencies --   3134.1434              3140.0424              3455.7515
 Red. masses --      1.1055                 1.1019                 1.0735
 Frc consts  --      6.3981                 6.4013                 7.5533
 IR Inten    --     12.4693                63.2894                 3.5833

 - Thermochemistry -
 -------------------
 Temperature   298.150 Kelvin.  Pressure   1.00000 Atm.
 Atom     1 has atomic number  6 and mass  12.00000

 Molecular mass:   226.20451 amu.
 Principal axes and moments of inertia in atomic units:
                           1         2         3
     Eigenvalues --  2686.846265167.585206597.60317
           X            0.99984  -0.01754   0.00438
           Y            0.01759   0.99976  -0.01270
           Z           -0.00416   0.01278   0.99991
 This molecule is an asymmetric top.
 Rotational symmetry number  1.
 Warning -- assumption of classical behavior for rotation
           may cause significant error
 Rotational temperatures (Kelvin)      0.03224     0.01676     0.01313
 Rotational constants (GHZ):           0.67170     0.34924     0.27354
 Zero-point vibrational energy    1018174.6 (Joules/Mol)
                                  243.34958 (Kcal/Mol)
 Warning -- explicit consideration of  28 degrees of freedom as
           vibrations may cause significant error
 Vibrational temperatures:     45.58    62.84    78.88   101.93   129.86
          (Kelvin)            205.92   216.78   257.52   296.53   334.70
                              347.47   354.97   378.65   383.50   431.63
                              463.91   508.67   537.58   578.47   616.50
                              649.19   662.79   684.31   729.75   774.78
                              784.51   856.82   888.47  1049.08  1152.78
                             1190.81  1208.57  1247.38  1259.00  1289.78
                             1311.49  1332.66  1349.48  1367.02  1393.04
                             1403.24  1429.45  1462.32  1503.48  1513.27
                             1524.55  1539.23  1547.43  1606.34  1622.52
                             1637.50  1647.02  1662.15  1671.13  1681.91
                             1697.43  1744.88  1746.59  1767.04  1776.15
                             1799.53  1829.81  1852.95  1870.44  1893.09
                             1905.94  1942.15  1951.02  1957.90  1974.52
                             1982.11  1984.79  2013.63  2026.33  2030.23
                             2048.19  2056.09  2070.75  2074.41  2090.83
                             2138.16  2150.08  2165.60  2166.10  2168.47
                             2176.71  2184.00  2186.51  2188.35  2196.09
                             2209.33  2214.12  2218.27  2235.25  4263.75
                             4265.56  4313.90  4326.19  4341.37  4372.38
                             4375.38  4378.72  4384.58  4385.26  4389.44
                             4393.42  4428.87  4438.49  4449.57  4452.04
                             4454.80  4465.77  4472.67  4475.24  4477.57
                             4481.26  4482.14  4509.33  4517.82  4972.06

 Zero-point correction=                           0.387802 (Hartree/Particle)
 Thermal correction to Energy=                    0.404832
 Thermal correction to Enthalpy=                  0.405776
 Thermal correction to Gibbs Free Energy=         0.343001
 Sum of electronic and zero-point Energies=           -695.395233
 Sum of electronic and thermal Energies=              -695.378203
 Sum of electronic and thermal Enthalpies=            -695.377259
 Sum of electronic and thermal Free Energies=         -695.440034

                     E (Thermal)             CV                S
                      KCal/Mol        Cal/Mol-Kelvin    Cal/Mol-Kelvin
 Total                  254.036             66.267            132.121
 Electronic               0.000              0.000              0.000
 Translational            0.889              2.981             42.151
 Rotational               0.889              2.981             32.882
 Vibrational            252.258             60.305             57.088
 Vibration     1          0.594              1.983              5.721
 Vibration     2          0.595              1.980              5.085
 Vibration     3          0.596              1.976              4.635
 Vibration     4          0.598              1.968              4.130
 Vibration     5          0.602              1.956              3.655
 Vibration     6          0.616              1.910              2.762
 Vibration     7          0.618              1.902              2.664
 Vibration     8          0.629              1.868              2.339
 Vibration     9          0.641              1.831              2.078
 Vibration    10          0.653              1.791              1.859
 Vibration    11          0.658              1.777              1.792
 Vibration    12          0.661              1.768              1.754
 Vibration    13          0.670              1.740              1.641
 Vibration    14          0.672              1.734              1.619
 Vibration    15          0.693              1.674              1.417
 Vibration    16          0.707              1.631              1.298
 Vibration    17          0.730              1.568              1.150
 Vibration    18          0.745              1.526              1.065
 Vibration    19          0.768              1.466              0.955
 Vibration    20          0.790              1.408              0.864
 Vibration    21          0.810              1.358              0.792
 Vibration    22          0.818              1.337              0.764
 Vibration    23          0.832              1.304              0.722
 Vibration    24          0.862              1.234              0.640
 Vibration    25          0.894              1.165              0.569
 Vibration    26          0.900              1.150              0.554
 Vibration    27          0.953              1.041              0.457
 Vibration    28          0.977              0.995              0.420

 Optimization completed.
    -- Stationary point found.
 Normal termination of Gaussian 16 at Thu Dec 10 22:03:43 2020.

 ----------------------------------------------------------------------
 # B3LYP/6-311++G(d,p) empiricaldispersion=gd3bj scf=xqc pop=npa geom=c
 heck
 ----------------------------------------------------------------------

 ---------------------------------------
 CID_103563826_JID_6243_Energie_neutraal
 ---------------------------------------
 Structure from the checkpoint file:  "JID_6243.chk"
 Charge =  0 Multiplicity = 1

 SCF Done:  E(RB3LYP) =  -695.978458208     A.U. after   14 cycles
 Normal termination of Gaussian 16 at Thu Dec 10 22:11:28 2020.

 ----------------------------------------------------------------------
 # B3LYP/6-311++G(d,p) empiricaldispersion=gd3bj scf=xqc pop=npa geom=c
 heck
 ----------------------------------------------------------------------

 -------------------------------------
 CID_103563826_JID_6243_Energie_kation
 -------------------------------------
 Structure from the checkpoint file:  "JID_6243.chk"
 Charge =  1 Multiplicity = 2

 SCF Done:  E(UB3LYP) =  -695.712625848     A.U. after   20 cycles
 Normal termination of Gaussian 16 at Thu Dec 10 22:26:19 2020.
 Gaussian 16:  ES64L-G16RevA.03 25-Dec-2016

 ----------------------------------------------------------------------
 # B3LYP/6-311++G(d,p) empiricaldispersion=gd3bj scf=xqc pop=npa geom=c
 heck
 ----------------------------------------------------------------------

 ------------------------------------
 CID_103563826_JID_6243_Energie_anion
 ------------------------------------
 Structure from the checkpoint file:  "JID_6243.chk"
 Charge = -1 Multiplicity = 2

                         Standard orientation:
 ---------------------------------------------------------------------
 Center     Atomic      Atomic             Coordinates (Angstroms)
 Number     Number       Type             X           Y           Z
 ---------------------------------------------------------------------
      1          6           0        4.114364   -1.726981    0.483561
      2          6           0        3.033185   -1.307005   -0.522297
      3          6           0        1.809376   -2.224681   -0.404546
      4          6           0        2.718325    0.185554   -0.357231
      5          6           0        1.583227    0.862837   -1.171999
      6          6           0        1.310009    1.756666    0.087254
      7          6           0        2.046673    0.703316    0.946727
      8          7           0       -0.001219    2.226964    0.466669
      9          6           0       -0.558210    3.183097   -0.469525
     10          6           0       -0.927227    1.332941    1.136512
     11          6           0       -1.440224    0.082252    0.400325
     12          6           0       -2.246537    0.350367   -0.874713
     13          7           0       -2.869652   -0.858441   -1.429302
     14          6           0       -3.609581   -1.586064   -0.393700
     15          6           0       -2.774875   -1.821218    0.865212
     16          8           0       -2.258229   -0.593916    1.361296
     17          1           0        3.748065   -1.621340    1.512422
     18          1           0        5.013115   -1.107000    0.384833
     19          1           0        4.407905   -2.773267    0.340607
     20          1           0        3.443545   -1.435360   -1.535652
     21          1           0        1.346734   -2.154676    0.587121
     22          1           0        1.043880   -1.985792   -1.150517
     23          1           0        2.101183   -3.270219   -0.555244
     24          1           0        3.649584    0.743908   -0.518799
     25          1           0        1.856453    1.363592   -2.106373
     26          1           0        0.755119    0.178173   -1.370660
     27          1           0        1.951317    2.645101   -0.000779
     28          1           0        1.359470   -0.041456    1.357172
     29          1           0        2.686058    1.068112    1.755847
     30          1           0       -0.770996    2.778312   -1.475035
     31          1           0       -1.492300    3.591014   -0.069311
     32          1           0        0.146509    4.015080   -0.598598
     33          1           0       -0.473164    0.980058    2.069004
     34          1           0       -1.804631    1.922087    1.429952
     35          1           0       -0.594962   -0.577183    0.144023
     36          1           0       -3.045199    1.068341   -0.644372
     37          1           0       -1.611985    0.796416   -1.646204
     38          1           0       -2.133271   -1.465551   -1.791790
     39          1           0       -4.490517   -0.987419   -0.128232
     40          1           0       -3.964748   -2.537283   -0.807675
     41          1           0       -3.372407   -2.254680    1.674468
     42          1           0       -1.943863   -2.513782    0.638369
 ---------------------------------------------------------------------

 SCF Done:  E(UB3LYP) =  -695.964787682     A.U. after   29 cycles

 The electronic state is 2-A.
 Alpha  occ. eigenvalues --  -19.03404 -14.21201 -14.20969 -10.12417 -10.12259
 Alpha  occ. eigenvalues --  -10.10490 -10.10277 -10.10174 -10.10113 -10.09988
 Alpha  occ. eigenvalues --  -10.07563 -10.07528 -10.06958 -10.06353 -10.06111
 Alpha  occ. eigenvalues --  -10.05834  -0.95031  -0.83539  -0.81459  -0.74950
 Alpha  occ. eigenvalues --   -0.69450  -0.68476  -0.62681  -0.59270  -0.58814
 Alpha  occ. eigenvalues --   -0.57843  -0.56406  -0.55246  -0.51969  -0.49425
 Alpha  occ. eigenvalues --   -0.46478  -0.44402  -0.40997  -0.40245  -0.39971
 Alpha  occ. eigenvalues --   -0.38699  -0.37657  -0.36760  -0.36397  -0.35992
 Alpha  occ. eigenvalues --   -0.34768  -0.33564  -0.33359  -0.31255  -0.30055
 Alpha  occ. eigenvalues --   -0.29735  -0.29369  -0.28593  -0.28527  -0.27970
 Alpha  occ. eigenvalues --   -0.27191  -0.25990  -0.25788  -0.25636  -0.24625
 Alpha  occ. eigenvalues --   -0.23951  -0.23393  -0.21876  -0.20736  -0.20587
 Alpha  occ. eigenvalues --   -0.18922  -0.13103  -0.11147   0.04219
 Alpha virt. eigenvalues --    0.05927   0.06394   0.07226   0.07776   0.08091
 Alpha virt. eigenvalues --    0.08725   0.08973   0.09354   0.09942   0.10223
 Alpha virt. eigenvalues --    0.10838   0.11157   0.11547   0.11937   0.12404

  Beta  occ. eigenvalues --  -19.03397 -14.21201 -14.20953 -10.12413 -10.12240
  Beta  occ. eigenvalues --  -10.10481 -10.10273 -10.10157 -10.10107 -10.09974
  Beta  occ. eigenvalues --  -10.07552 -10.07519 -10.06949 -10.06336 -10.06087
  Beta  occ. eigenvalues --  -10.05803  -0.95019  -0.83532  -0.81426  -0.74929
  Beta  occ. eigenvalues --   -0.69430  -0.68448  -0.62658  -0.59242  -0.58760
  Beta  occ. eigenvalues --   -0.57813  -0.56371  -0.55214  -0.51927  -0.49385
  Beta  occ. eigenvalues --   -0.46450  -0.44359  -0.40962  -0.40213  -0.39942
  Beta  occ. eigenvalues --   -0.38657  -0.37633  -0.36730  -0.36377  -0.35952
  Beta  occ. eigenvalues --   -0.34739  -0.33543  -0.33337  -0.31226  -0.30030
  Beta  occ. eigenvalues --   -0.29708  -0.29349  -0.28568  -0.28502  -0.27952
  Beta  occ. eigenvalues --   -0.27164  -0.25963  -0.25754  -0.25610  -0.24599
  Beta  occ. eigenvalues --   -0.23926  -0.23375  -0.21843  -0.20704  -0.20561
  Beta  occ. eigenvalues --   -0.18887  -0.13078  -0.11135
  Beta virt. eigenvalues --    0.06215   0.06800   0.06856   0.07725   0.08229
  Beta virt. eigenvalues --    0.08384   0.09139   0.09312   0.09564   0.10253
  Beta virt. eigenvalues --    0.10548   0.11274   0.11327   0.11740   0.12012

 Mulliken charges and spin densities:
               1          2
     1  C    0.641537  -1.291995
     2  C   -1.214639   1.424465
     3  C    0.609620  -1.271268
     4  C    1.371572  -1.136556
     5  C   -0.250645  -0.143827
     6  C   -0.571808  -0.217655
     7  C   -0.481523   0.066871
     8  N    0.374212  -0.011475
     9  C    0.173603  -0.416737
    10  C   -1.031591   0.279876
    11  C   -0.732412   0.453030
    12  C   -0.658097  -0.121671
    13  N    0.001347  -0.018683
    14  C    0.346598  -0.634004
    15  C    0.100079  -0.215558
    16  O    0.019103  -0.016363
    17  H    0.091865   0.048822
    18  H   -0.203451   0.329599
    19  H   -0.175862   0.322591
    20  H   -0.207472   0.385117
    21  H   -0.212153   0.352757
    22  H   -0.270662   0.384462
    23  H   -0.386952   0.555027
    24  H    0.018231   0.194762
    25  H   -0.360938   0.549203
    26  H    0.132915   0.058547
    27  H   -0.228721   0.387968
    28  H   -0.009672   0.169418
    29  H    0.108582   0.083155
    30  H   -0.000825   0.116264
    31  H    0.053971   0.072030
    32  H   -0.032429   0.169763
    33  H    0.027585   0.147683
    34  H    0.127950   0.026483
    35  H    2.208654  -1.656124
    36  H    0.075451   0.110918
    37  H    0.182641  -0.009705
    38  H   -0.067699   0.322920
    39  H    0.163139  -0.033840
    40  H   -0.424292   0.607814
    41  H   -0.322632   0.486301
    42  H    0.015821   0.089616
 Sum of Mulliken charges =  -1.00000   1.00000

 Dipole moment (field-independent basis, Debye):
    X=             -2.8576    Y=              4.2937    Z=              2.7185  Tot=              5.8303
 Quadrupole moment (field-independent basis, Debye-Ang):
   XX=           -178.4960   YY=           -163.4449   ZZ=           -144.2633
   XY=             -6.2158   XZ=              1.5159   YZ=             -2.2813

 Summary of Natural Population Analysis:

                                       Natural Population
                Natural  -----------------------------------------------
    Atom  No    Charge         Core      Valence    Rydberg      Total
 -----------------------------------------------------------------------
      C    1   -0.28133      0.99965     2.27680    0.00488     3.28133
      C    2   -0.11229      0.99959     2.10262    0.01009     3.11229
      C    3   -0.28642      0.99965     2.27963    0.00714     3.28642
      C    4   -0.10423      0.99959     2.09178    0.01287     3.10423
      C    5   -0.19686      0.99960     2.18889    0.00837     3.19686
      C    6    0.00017      0.99958     1.98534    0.01491     2.99983
      C    7   -0.19215      0.99960     2.18419    0.00836     3.19215
      N    8   -0.27954      0.99969     2.76737    0.01247     3.77954
      C    9   -0.17290      0.99964     2.16545    0.00781     3.17290
      C   10   -0.08509      0.99958     2.07325    0.01227     3.08509
      C   11    0.04052      0.99954     1.94684    0.01310     2.95948
      C   12   -0.10289      0.99959     2.09183    0.01146     3.10289
      N   13   -0.33488      0.99976     2.82187    0.01324     3.83488
      C   14   -0.10306      0.99963     2.09202    0.01141     3.10306
      C   15   -0.01803      0.99958     2.00568    0.01277     3.01803
      O   16   -0.30494      0.99988     3.29574    0.00932     4.30494
      H   17    0.09556      0.00000     0.40342    0.00101     0.40444
      H   18    0.09878      0.00000     0.40007    0.00116     0.40122
      H   19    0.09882      0.00000     0.40020    0.00098     0.40118
      H   20    0.09512      0.00000     0.40289    0.00198     0.40488
      H   21    0.09433      0.00000     0.40426    0.00141     0.40567
      H   22    0.09899      0.00000     0.39917    0.00184     0.40101
      H   23    0.10258      0.00000     0.39632    0.00110     0.39742
      H   24    0.09859      0.00000     0.39984    0.00157     0.40141
      H   25    0.09829      0.00000     0.40045    0.00126     0.40171
      H   26    0.09537      0.00000     0.40241    0.00222     0.40463
      H   27    0.09287      0.00000     0.40559    0.00154     0.40713
      H   28    0.09834      0.00000     0.40001    0.00165     0.40166
      H   29    0.09857      0.00000     0.40050    0.00093     0.40143
      H   30    0.08079      0.00000     0.41772    0.00149     0.41921
      H   31    0.09258      0.00000     0.40663    0.00080     0.40742
      H   32    0.09390      0.00000     0.40512    0.00098     0.40610
      H   33    0.10068      0.00000     0.39797    0.00134     0.39932
      H   34    0.09624      0.00000     0.40253    0.00123     0.40376
      H   35    0.08232      0.00000     0.41426    0.00343     0.41768
      H   36    0.09058      0.00000     0.40813    0.00129     0.40942
      H   37    0.10077      0.00000     0.39803    0.00120     0.39923
      H   38    0.17195      0.00000     0.32482    0.00324     0.32805
      H   39    0.08917      0.00000     0.40965    0.00118     0.41083
      H   40    0.09909      0.00000     0.39955    0.00136     0.40091
      H   41    0.09026      0.00000     0.40856    0.00118     0.40974
      H   42    0.07939      0.00000     0.41858    0.00203     0.42061
 =======================================================================
   * Total *   -0.00000     15.99415    46.79597    0.20988    63.00000

 Normal termination of Gaussian 16 at Thu Dec 10 22:47:36 2020.
