 Gaussian 16, Revision A.03,

 -----------------------------------------------------------
 # opt freq B3LYP/6-31G(d) empiricaldispersion=gd3bj scf=xqc
 -----------------------------------------------------------

 ------------------------------
 CID_149005712_JID_855_neutraal
 ------------------------------
 Symbolic Z-matrix:
 Charge =  0 Multiplicity = 1

 SCF Done:  E(RB3LYP) =  -443.791004619     A.U. after   17 cycles
 SCF Done:  E(RB3LYP) =  -443.792786652     A.U. after   14 cycles
 SCF Done:  E(RB3LYP) =  -443.792898569     A.U. after   13 cycles
 SCF Done:  E(RB3LYP) =  -443.792911128     A.U. after   10 cycles
 SCF Done:  E(RB3LYP) =  -443.792914607     A.U. after   11 cycles
 SCF Done:  E(RB3LYP) =  -443.792914823     A.U. after   10 cycles
 SCF Done:  E(RB3LYP) =  -443.792914306     A.U. after   10 cycles
 SCF Done:  E(RB3LYP) =  -443.792913227     A.U. after   10 cycles
 SCF Done:  E(RB3LYP) =  -443.792912295     A.U. after   10 cycles
 Optimization completed.
    -- Stationary point found.
 Normal termination of Gaussian 16 at Tue Dec  8 12:43:22 2020.

 --------------------------------------------------------------------
 #N Geom=AllCheck Guess=TCheck SCRF=Check GenChk RB3LYP/6-31G(d) Freq
 --------------------------------------------------------------------

 Structure from the checkpoint file:  "JID_855.chk"
 ------------------------------
 CID_149005712_JID_855_neutraal
 ------------------------------
 Charge =  0 Multiplicity = 1

 SCF Done:  E(RB3LYP) =  -443.792912295     A.U. after    1 cycles

  Exact polarizability: 107.772   5.273  91.889  -0.030   0.869  80.661
 Approx polarizability: 143.793   7.223 126.314   0.784   6.724 125.847

                      1                      2                      3
                      A                      A                      A
 Frequencies --     42.8135                62.7529                65.1356
 Red. masses --      4.4749                 4.7824                 2.9711
 Frc consts  --      0.0048                 0.0111                 0.0074
 IR Inten    --      1.1653                 0.1952                 0.4281

                      4                      5                      6
                      A                      A                      A
 Frequencies --     76.1682                95.7515               130.0021
 Red. masses --      3.1579                 3.1495                 2.3137
 Frc consts  --      0.0108                 0.0170                 0.0230
 IR Inten    --      0.3641                 1.2239                 0.4674

                      7                      8                      9
                      A                      A                      A
 Frequencies --    203.9165               227.9737               267.9726
 Red. masses --      2.1989                 1.4659                 2.9349
 Frc consts  --      0.0539                 0.0449                 0.1242
 IR Inten    --      0.4786                 0.7469                 2.0545

                     10                     11                     12
                      A                      A                      A
 Frequencies --    290.0733               348.8294               371.0927
 Red. masses --      1.8637                 2.2304                 3.5628
 Frc consts  --      0.0924                 0.1599                 0.2891
 IR Inten    --      0.0969                 0.3909                 0.9471

                     13                     14                     15
                      A                      A                      A
 Frequencies --    426.5884               476.9306               525.4582
 Red. masses --      1.9715                 2.0759                 1.9875
 Frc consts  --      0.2114                 0.2782                 0.3233
 IR Inten    --      1.5274                 1.0645                 0.7591

                     16                     17                     18
                      A                      A                      A
 Frequencies --    586.1217               693.5599               748.3800
 Red. masses --      2.8789                 1.8541                 1.5609
 Frc consts  --      0.5827                 0.5255                 0.5151
 IR Inten    --     10.5502                 6.1120                 3.8488

                     19                     20                     21
                      A                      A                      A
 Frequencies --    828.9320               867.5145               877.0777
 Red. masses --      1.6588                 2.1831                 2.4524
 Frc consts  --      0.6715                 0.9680                 1.1115
 IR Inten    --      1.0586                 4.6415                17.8804

                     22                     23                     24
                      A                      A                      A
 Frequencies --    909.5820               920.5426               939.2502
 Red. masses --      1.6252                 1.9327                 1.7893
 Frc consts  --      0.7922                 0.9650                 0.9301
 IR Inten    --      0.2442                10.1444                 0.5781

                     25                     26                     27
                      A                      A                      A
 Frequencies --    944.8658              1009.8561              1030.1897
 Red. masses --      1.4112                 1.7044                 1.5324
 Frc consts  --      0.7423                 1.0241                 0.9582
 IR Inten    --     42.3503                 3.0217                 3.7086

                     28                     29                     30
                      A                      A                      A
 Frequencies --   1045.0023              1054.9922              1094.8480
 Red. masses --      1.3734                 1.4600                 2.4008
 Frc consts  --      0.8837                 0.9574                 1.6955
 IR Inten    --      7.3786                 1.1553                 0.4819

                     31                     32                     33
                      A                      A                      A
 Frequencies --   1106.8163              1160.9032              1187.6443
 Red. masses --      1.4947                 2.0553                 2.0465
 Frc consts  --      1.0788                 1.6320                 1.7007
 IR Inten    --      0.4011                13.1919                 6.2121

                     34                     35                     36
                      A                      A                      A
 Frequencies --   1216.0022              1259.1123              1265.3052
 Red. masses --      1.3685                 1.2921                 1.3741
 Frc consts  --      1.1922                 1.2069                 1.2961
 IR Inten    --      7.5588                 0.9216                 0.3629

                     37                     38                     39
                      A                      A                      A
 Frequencies --   1304.9881              1314.3178              1335.5721
 Red. masses --      1.2236                 1.2424                 1.2620
 Frc consts  --      1.2277                 1.2645                 1.3263
 IR Inten    --      3.1997                 1.4490                 0.4187

                     40                     41                     42
                      A                      A                      A
 Frequencies --   1355.6639              1372.6707              1390.5329
 Red. masses --      1.4082                 1.2381                 1.3585
 Frc consts  --      1.5248                 1.3745                 1.5477
 IR Inten    --      0.5321                 2.4502                 8.7738

                     43                     44                     45
                      A                      A                      A
 Frequencies --   1407.7474              1424.5183              1445.8751
 Red. masses --      1.3484                 1.4642                 1.2656
 Frc consts  --      1.5744                 1.7506                 1.5589
 IR Inten    --      4.6242                 0.1516                 5.6120

                     46                     47                     48
                      A                      A                      A
 Frequencies --   1476.9801              1490.5310              1510.5783
 Red. masses --      1.1791                 1.1027                 1.1038
 Frc consts  --      1.5155                 1.4434                 1.4839
 IR Inten    --      1.9867                 3.5617                 8.5026

                     49                     50                     51
                      A                      A                      A
 Frequencies --   1520.1046              1528.6351              1534.1654
 Red. masses --      1.0799                 1.0555                 1.0519
 Frc consts  --      1.4702                 1.4532                 1.4587
 IR Inten    --      1.4468                 4.7708                 5.7208

                     52                     53                     54
                      A                      A                      A
 Frequencies --   1540.9987              1668.2549              1733.2193
 Red. masses --      1.0797                12.8778                 4.4640
 Frc consts  --      1.5106                21.1163                 7.9009
 IR Inten    --      5.2424                91.5618                 4.5131

                     55                     56                     57
                      A                      A                      A
 Frequencies --   3035.4696              3036.5027              3040.9096
 Red. masses --      1.0627                 1.0621                 1.0596
 Frc consts  --      5.7694                 5.7699                 5.7732
 IR Inten    --     21.5979                11.2459                16.0453

                     58                     59                     60
                      A                      A                      A
 Frequencies --   3044.4677              3046.8140              3052.5020
 Red. masses --      1.0629                 1.0407                 1.0741
 Frc consts  --      5.8043                 5.6921                 5.8967
 IR Inten    --      9.9109                10.4534                33.8707

                     61                     62                     63
                      A                      A                      A
 Frequencies --   3067.5935              3076.9129              3081.3213
 Red. masses --      1.0990                 1.1023                 1.1016
 Frc consts  --      6.0930                 6.1484                 6.1627
 IR Inten    --     29.4666                27.8784                40.1557

                     64                     65                     66
                      A                      A                      A
 Frequencies --   3112.8199              3116.7865              3117.7958
 Red. masses --      1.1024                 1.1024                 1.1044
 Frc consts  --      6.2934                 6.3096                 6.3253
 IR Inten    --     53.1634                33.2905                29.9026

                     67                     68                     69
                      A                      A                      A
 Frequencies --   3150.7842              3158.8959              3236.8136
 Red. masses --      1.0693                 1.0803                 1.1155
 Frc consts  --      6.2541                 6.3516                 6.8855
 IR Inten    --     22.5530                 3.9291                18.6326

 - Thermochemistry -
 -------------------
 Temperature   298.150 Kelvin.  Pressure   1.00000 Atm.
 Atom     1 has atomic number  6 and mass  12.00000

 Molecular mass:   141.11536 amu.
 Principal axes and moments of inertia in atomic units:
                           1         2         3
     Eigenvalues --  1612.441051707.353122909.15888
           X           -0.00613   0.99998  -0.00158
           Y            0.99998   0.00613  -0.00339
           Z            0.00338   0.00160   0.99999
 This molecule is an asymmetric top.
 Rotational symmetry number  1.
 Warning -- assumption of classical behavior for rotation
           may cause significant error
 Rotational temperatures (Kelvin)      0.05372     0.05073     0.02977
 Rotational constants (GHZ):           1.11926     1.05704     0.62037
 Zero-point vibrational energy     580725.4 (Joules/Mol)
                                  138.79669 (Kcal/Mol)
 Warning -- explicit consideration of  16 degrees of freedom as
           vibrations may cause significant error
 Vibrational temperatures:     61.60    90.29    93.72   109.59   137.77
          (Kelvin)            187.04   293.39   328.00   385.55   417.35
                              501.89   533.92   613.77   686.20   756.02
                              843.30   997.88  1076.75  1192.65  1248.16
                             1261.92  1308.69  1324.46  1351.37  1359.45
                             1452.96  1482.21  1503.53  1517.90  1575.24
                             1592.46  1670.28  1708.76  1749.56  1811.58
                             1820.49  1877.59  1891.01  1921.59  1950.50
                             1974.97  2000.67  2025.43  2049.56  2080.29
                             2125.04  2144.54  2173.39  2187.09  2199.36
                             2207.32  2217.15  2400.25  2493.72  4367.36
                             4368.85  4375.19  4380.31  4383.69  4391.87
                             4413.58  4426.99  4433.33  4478.65  4484.36
                             4485.81  4533.28  4544.95  4657.05

 Zero-point correction=                           0.221187 (Hartree/Particle)
 Thermal correction to Energy=                    0.233217
 Thermal correction to Enthalpy=                  0.234161
 Thermal correction to Gibbs Free Energy=         0.181931
 Sum of electronic and zero-point Energies=           -443.571726
 Sum of electronic and thermal Energies=              -443.559695
 Sum of electronic and thermal Enthalpies=            -443.558751
 Sum of electronic and thermal Free Energies=         -443.610981

                     E (Thermal)             CV                S
                      KCal/Mol        Cal/Mol-Kelvin    Cal/Mol-Kelvin
 Total                  146.346             42.503            109.929
 Electronic               0.000              0.000              0.000
 Translational            0.889              2.981             40.745
 Rotational               0.889              2.981             30.461
 Vibrational            144.569             36.541             38.723
 Vibration     1          0.595              1.980              5.124
 Vibration     2          0.597              1.972              4.369
 Vibration     3          0.597              1.971              4.295
 Vibration     4          0.599              1.965              3.987
 Vibration     5          0.603              1.952              3.539
 Vibration     6          0.612              1.923              2.946
 Vibration     7          0.640              1.834              2.097
 Vibration     8          0.651              1.798              1.895
 Vibration     9          0.673              1.732              1.609
 Vibration    10          0.686              1.692              1.474
 Vibration    11          0.726              1.578              1.171
 Vibration    12          0.743              1.532              1.075
 Vibration    13          0.788              1.412              0.870
 Vibration    14          0.833              1.301              0.718
 Vibration    15          0.880              1.194              0.597
 Vibration    16          0.943              1.061              0.474

 Optimization completed.
    -- Stationary point found.
 Normal termination of Gaussian 16 at Tue Dec  8 13:04:45 2020.

 ----------------------------------------------------------------------
 # B3LYP/6-311++G(d,p) empiricaldispersion=gd3bj scf=xqc pop=npa geom=c
 heck
 ----------------------------------------------------------------------

 --------------------------------------
 CID_149005712_JID_855_Energie_neutraal
 --------------------------------------
 Structure from the checkpoint file:  "JID_855.chk"
 Charge =  0 Multiplicity = 1

 SCF Done:  E(RB3LYP) =  -443.923422524     A.U. after   15 cycles
 Normal termination of Gaussian 16 at Tue Dec  8 13:08:41 2020.

 ----------------------------------------------------------------------
 # B3LYP/6-311++G(d,p) empiricaldispersion=gd3bj scf=xqc pop=npa geom=c
 heck
 ----------------------------------------------------------------------

 ------------------------------------
 CID_149005712_JID_855_Energie_kation
 ------------------------------------
 Structure from the checkpoint file:  "JID_855.chk"
 Charge =  1 Multiplicity = 2

 SCF Done:  E(UB3LYP) =  -443.601629673     A.U. after   28 cycles
 Normal termination of Gaussian 16 at Tue Dec  8 13:17:18 2020.
 Gaussian 16:  ES64L-G16RevA.03 25-Dec-2016

 ----------------------------------------------------------------------
 # B3LYP/6-311++G(d,p) empiricaldispersion=gd3bj scf=xqc pop=npa geom=c
 heck
 ----------------------------------------------------------------------

 -----------------------------------
 CID_149005712_JID_855_Energie_anion
 -----------------------------------
 Structure from the checkpoint file:  "JID_855.chk"
 Charge = -1 Multiplicity = 2

                         Standard orientation:
 ---------------------------------------------------------------------
 Center     Atomic      Atomic             Coordinates (Angstroms)
 Number     Number       Type             X           Y           Z
 ---------------------------------------------------------------------
      1          6           0        3.039707   -0.863103   -0.491522
      2          6           0        2.091441   -0.972074    0.706444
      3          6           0        0.983082    0.090382    0.723335
      4          6           0        0.058172    0.098970   -0.507994
      5          6           0       -0.617441   -1.264520   -0.790981
      6          6           0       -1.473360   -1.774492    0.334908
      7          6           0       -2.798053   -1.914754    0.277966
      8          6           0       -1.012159    1.197264   -0.363545
      9          7           0       -0.353082    2.526992   -0.451666
     10          8           0       -0.475318    3.196076    0.553018
     11          1           0        2.524698   -1.058695   -1.438886
     12          1           0        3.861211   -1.583094   -0.410168
     13          1           0        3.477874    0.140280   -0.555201
     14          1           0        1.650385   -1.977167    0.735112
     15          1           0        2.670112   -0.873521    1.633626
     16          1           0        0.372885   -0.037418    1.627229
     17          1           0        1.446935    1.081012    0.813226
     18          1           0        0.656910    0.352733   -1.392278
     19          1           0       -1.225753   -1.174047   -1.699584
     20          1           0        0.168826   -1.997988   -1.013645
     21          1           0       -0.954520   -2.035557    1.257322
     22          1           0       -3.373519   -2.284409    1.122132
     23          1           0       -3.357978   -1.670347   -0.622723
     24          1           0       -1.696231    1.157691   -1.221976
     25          1           0       -1.576055    1.116941    0.571659
 ---------------------------------------------------------------------

 SCF Done:  E(UB3LYP) =  -443.934908080     A.U. after   33 cycles
 SCF Done:  E(UB3LYP) =  -443.934908080     a.u. after    1 cycles

 The electronic state is 2-A.
 Alpha  occ. eigenvalues --  -18.92347 -14.15895 -10.06925 -10.05752 -10.05511
 Alpha  occ. eigenvalues --  -10.05479 -10.05190 -10.04227 -10.03645 -10.01988
 Alpha  occ. eigenvalues --   -0.91863  -0.70714  -0.67065  -0.63780  -0.57774
 Alpha  occ. eigenvalues --   -0.56525  -0.49860  -0.46214  -0.43018  -0.40927
 Alpha  occ. eigenvalues --   -0.36559  -0.34639  -0.33674  -0.31811  -0.30990
 Alpha  occ. eigenvalues --   -0.29407  -0.28245  -0.27220  -0.25806  -0.24701
 Alpha  occ. eigenvalues --   -0.24405  -0.23238  -0.22560  -0.20774  -0.19659
 Alpha  occ. eigenvalues --   -0.18229  -0.17456  -0.14976  -0.00725   0.05329
 Alpha virt. eigenvalues --    0.06962   0.08048   0.08810   0.10074   0.10276
 Alpha virt. eigenvalues --    0.10327   0.11166   0.12470   0.12902   0.13559
 Alpha virt. eigenvalues --    0.13774   0.14061   0.15442   0.16027   0.16853

  Beta  occ. eigenvalues --  -18.91445 -14.14880 -10.06921 -10.05731 -10.05504
  Beta  occ. eigenvalues --  -10.05465 -10.05173 -10.04169 -10.03645 -10.02039
  Beta  occ. eigenvalues --   -0.90073  -0.70649  -0.67040  -0.63591  -0.57270
  Beta  occ. eigenvalues --   -0.56444  -0.49522  -0.46136  -0.42352  -0.40164
  Beta  occ. eigenvalues --   -0.36506  -0.34549  -0.33502  -0.31783  -0.30491
  Beta  occ. eigenvalues --   -0.29176  -0.28044  -0.26608  -0.25401  -0.24404
  Beta  occ. eigenvalues --   -0.24296  -0.23116  -0.20718  -0.20480  -0.19293
  Beta  occ. eigenvalues --   -0.17005  -0.15642  -0.14732   0.00334
  Beta virt. eigenvalues --    0.07259   0.08130   0.08798   0.10063   0.10264
  Beta virt. eigenvalues --    0.10372   0.11251   0.12420   0.12873   0.13387
  Beta virt. eigenvalues --    0.13753   0.14007   0.15424   0.15757   0.16355

 Mulliken charges and spin densities:
               1          2
     1  C    0.043031  -0.633867
     2  C   -0.469670   0.199056
     3  C   -0.346566  -0.006260
     4  C    0.696924  -0.060457
     5  C   -0.388273  -0.148339
     6  C   -0.293130   0.558262
     7  C   -0.157818  -0.471765
     8  C   -0.136385  -0.366597
     9  N   -0.234266   0.480367
    10  O   -0.283844   0.287469
    11  H    0.019830   0.130615
    12  H   -0.299632   0.424070
    13  H    0.119908   0.016426
    14  H    0.122405  -0.002225
    15  H   -0.030776   0.170290
    16  H    0.141191  -0.032210
    17  H    0.162392   0.014067
    18  H    0.108260  -0.030336
    19  H    0.062558   0.109989
    20  H    0.037841   0.024173
    21  H   -0.004169   0.159755
    22  H    0.064877   0.031586
    23  H    0.001606   0.103565
    24  H    0.016965   0.042520
    25  H    0.046739  -0.000155
 Sum of Mulliken charges =  -1.00000   1.00000

 Dipole moment (field-independent basis, Debye):
    X=             -0.1880    Y=             -7.1324    Z=              0.2339  Tot=              7.1387
 Quadrupole moment (field-independent basis, Debye-Ang):
   XX=            -91.7199   YY=           -113.6986   ZZ=            -76.5938
   XY=              6.1074   XZ=              1.2098   YZ=             -1.7475

 Summary of Natural Population Analysis:

                                       Natural Population
                Natural  -----------------------------------------------
    Atom  No    Charge         Core      Valence    Rydberg      Total
 -----------------------------------------------------------------------
      C    1   -0.28837      0.99967     2.28344    0.00526     3.28837
      C    2   -0.19172      0.99964     2.18322    0.00886     3.19172
      C    3   -0.19620      0.99961     2.18616    0.01043     3.19620
      C    4   -0.11351      0.99958     2.09800    0.01592     3.11351
      C    5   -0.20887      0.99959     2.19801    0.01127     3.20887
      C    6   -0.07602      0.99957     2.06664    0.00981     3.07602
      C    7   -0.19702      0.99957     2.19053    0.00692     3.19702
      C    8   -0.13920      0.99961     2.12230    0.01729     3.13920
      N    9    0.12869      0.99981     2.34052    0.03097     3.37131
      O   10   -0.11633      0.99990     3.10394    0.01249     4.11633
      H   11    0.09554      0.00000     0.40304    0.00143     0.40446
      H   12    0.09430      0.00000     0.40472    0.00098     0.40570
      H   13    0.09786      0.00000     0.40098    0.00116     0.40214
      H   14    0.08808      0.00000     0.41063    0.00128     0.41192
      H   15    0.09241      0.00000     0.40669    0.00091     0.40759
      H   16    0.09526      0.00000     0.40340    0.00134     0.40474
      H   17    0.11046      0.00000     0.38822    0.00132     0.38954
      H   18    0.09530      0.00000     0.39893    0.00577     0.40470
      H   19    0.09836      0.00000     0.39994    0.00170     0.40164
      H   20    0.09726      0.00000     0.40124    0.00149     0.40274
      H   21    0.08963      0.00000     0.40889    0.00148     0.41037
      H   22    0.08828      0.00000     0.41050    0.00122     0.41172
      H   23    0.08838      0.00000     0.41005    0.00157     0.41162
      H   24    0.08692      0.00000     0.40831    0.00477     0.41308
      H   25    0.08051      0.00000     0.41401    0.00548     0.41949
 =======================================================================
   * Total *    0.00000      9.99655    28.84232    0.16113    39.00000

 Normal termination of Gaussian 16 at Tue Dec  8 13:26:53 2020.
