 Gaussian 16, Revision A.03,

 -----------------------------------------------------------
 # opt freq B3LYP/6-31G(d) empiricaldispersion=gd3bj scf=xqc
 -----------------------------------------------------------

 -------------------------------
 CID_116492974_JID_3518_neutraal
 -------------------------------
 Symbolic Z-matrix:
 Charge =  0 Multiplicity = 1

 SCF Done:  E(RB3LYP) =  -598.933200832     A.U. after   13 cycles
 SCF Done:  E(RB3LYP) =  -598.935665959     A.U. after   10 cycles
 SCF Done:  E(RB3LYP) =  -598.936071927     A.U. after   10 cycles
 SCF Done:  E(RB3LYP) =  -598.936152331     A.U. after   10 cycles
 SCF Done:  E(RB3LYP) =  -598.936177954     A.U. after    9 cycles
 SCF Done:  E(RB3LYP) =  -598.936198545     A.U. after    9 cycles
 SCF Done:  E(RB3LYP) =  -598.936202304     A.U. after    9 cycles
 SCF Done:  E(RB3LYP) =  -598.936204813     A.U. after    8 cycles
 SCF Done:  E(RB3LYP) =  -598.936205460     A.U. after    7 cycles
 SCF Done:  E(RB3LYP) =  -598.936205763     A.U. after    7 cycles
 SCF Done:  E(RB3LYP) =  -598.936205884     A.U. after    7 cycles
 SCF Done:  E(RB3LYP) =  -598.936205955     A.U. after    6 cycles
 SCF Done:  E(RB3LYP) =  -598.936205995     A.U. after    6 cycles
 Optimization completed.
    -- Stationary point found.
 Normal termination of Gaussian 16 at Wed Dec  9 23:35:16 2020.

 --------------------------------------------------------------------
 #N Geom=AllCheck Guess=TCheck SCRF=Check GenChk RB3LYP/6-31G(d) Freq
 --------------------------------------------------------------------

 Structure from the checkpoint file:  "JID_3518.chk"
 -------------------------------
 CID_116492974_JID_3518_neutraal
 -------------------------------
 Charge =  0 Multiplicity = 1

 SCF Done:  E(RB3LYP) =  -598.936205995     A.U. after    1 cycles

  Exact polarizability: 136.541   0.147 109.733  -0.872   1.126 104.334
 Approx polarizability: 165.370  -2.154 154.546  -0.476  -0.477 157.219

                      1                      2                      3
                      A                      A                      A
 Frequencies --     20.9727                44.1814                55.6852
 Red. masses --      3.2839                 3.5255                 3.9439
 Frc consts  --      0.0009                 0.0041                 0.0072
 IR Inten    --      0.4744                 0.0415                 0.0235

                      4                      5                      6
                      A                      A                      A
 Frequencies --    108.3619               132.2903               160.1356
 Red. masses --      2.7891                 2.4746                 2.9087
 Frc consts  --      0.0193                 0.0255                 0.0439
 IR Inten    --      2.8920                10.3255                 0.7244

                      7                      8                      9
                      A                      A                      A
 Frequencies --    198.4268               211.1173               223.5553
 Red. masses --      1.3204                 2.3002                 1.3329
 Frc consts  --      0.0306                 0.0604                 0.0392
 IR Inten    --      1.2934                 0.4301                 2.0611

                     10                     11                     12
                      A                      A                      A
 Frequencies --    238.8247               260.8467               289.7212
 Red. masses --      1.6155                 2.3863                 1.3009
 Frc consts  --      0.0543                 0.0957                 0.0643
 IR Inten    --      0.2835                 1.1209               128.0264

                     13                     14                     15
                      A                      A                      A
 Frequencies --    301.6252               336.2223               381.1616
 Red. masses --      2.2972                 3.6620                 2.5369
 Frc consts  --      0.1231                 0.2439                 0.2172
 IR Inten    --     19.9832                 6.3472                 5.2291

                     16                     17                     18
                      A                      A                      A
 Frequencies --    388.3160               420.8463               428.9598
 Red. masses --      2.2178                 2.1033                 2.4999
 Frc consts  --      0.1970                 0.2195                 0.2710
 IR Inten    --      4.5567                 1.2681                 5.9901

                     19                     20                     21
                      A                      A                      A
 Frequencies --    459.6783               477.8494               507.6692
 Red. masses --      2.4009                 3.1617                 3.3138
 Frc consts  --      0.2989                 0.4254                 0.5032
 IR Inten    --      5.6386                 0.0923                 6.5602

                     22                     23                     24
                      A                      A                      A
 Frequencies --    592.1668               679.9014               781.3471
 Red. masses --      3.3004                 2.9332                 2.1425
 Frc consts  --      0.6819                 0.7989                 0.7706
 IR Inten    --      4.2082                 3.7499                54.3502

                     25                     26                     27
                      A                      A                      A
 Frequencies --    803.6062               824.2328               853.7208
 Red. masses --      1.6044                 2.0223                 2.1855
 Frc consts  --      0.6104                 0.8095                 0.9385
 IR Inten    --     62.2924                11.7871                 1.9673

                     28                     29                     30
                      A                      A                      A
 Frequencies --    874.1470               915.4549               937.9045
 Red. masses --      1.9313                 1.4480                 1.9175
 Frc consts  --      0.8695                 0.7150                 0.9938
 IR Inten    --     11.2588                 7.1474                 2.9993

                     31                     32                     33
                      A                      A                      A
 Frequencies --    942.5337               960.3897               972.2588
 Red. masses --      1.4418                 1.5933                 1.7444
 Frc consts  --      0.7546                 0.8659                 0.9715
 IR Inten    --      5.8465                 6.6732                 7.7334

                     34                     35                     36
                      A                      A                      A
 Frequencies --    992.5484              1005.7411              1034.5150
 Red. masses --      2.4436                 1.6960                 1.7327
 Frc consts  --      1.4184                 1.0108                 1.0926
 IR Inten    --      3.7478                 2.7317                13.8585

                     37                     38                     39
                      A                      A                      A
 Frequencies --   1053.9979              1077.3854              1084.7017
 Red. masses --      2.0297                 4.9586                 1.9587
 Frc consts  --      1.3285                 3.3912                 1.3578
 IR Inten    --     13.6304               120.0441                16.9282

                     40                     41                     42
                      A                      A                      A
 Frequencies --   1116.8420              1130.3069              1144.1586
 Red. masses --      1.7881                 2.1894                 4.0657
 Frc consts  --      1.3141                 1.6481                 3.1359
 IR Inten    --     19.3358                 6.6825               183.1935

                     43                     44                     45
                      A                      A                      A
 Frequencies --   1166.2858              1167.8661              1188.7068
 Red. masses --      2.0583                 2.1389                 1.7842
 Frc consts  --      1.6496                 1.7188                 1.4854
 IR Inten    --      3.5121                40.1686                 6.9165

                     46                     47                     48
                      A                      A                      A
 Frequencies --   1194.6088              1209.2764              1237.1540
 Red. masses --      2.0035                 1.8697                 1.4414
 Frc consts  --      1.6845                 1.6109                 1.2998
 IR Inten    --     21.4305                11.9354                23.6439

                     49                     50                     51
                      A                      A                      A
 Frequencies --   1263.9566              1301.8634              1309.1665
 Red. masses --      1.3978                 1.1937                 1.2926
 Frc consts  --      1.3157                 1.1920                 1.3053
 IR Inten    --      5.0061                 1.5449                 0.3354

                     52                     53                     54
                      A                      A                      A
 Frequencies --   1337.1225              1342.5416              1365.3878
 Red. masses --      1.2965                 1.2863                 1.4489
 Frc consts  --      1.3658                 1.3660                 1.5915
 IR Inten    --      1.4452                 3.4630                 4.4813

                     55                     56                     57
                      A                      A                      A
 Frequencies --   1368.3200              1383.6135              1395.0406
 Red. masses --      1.2715                 1.2973                 1.3397
 Frc consts  --      1.4027                 1.4632                 1.5362
 IR Inten    --      1.2264                 8.2385                 4.8798

                     58                     59                     60
                      A                      A                      A
 Frequencies --   1401.5218              1408.1317              1409.4620
 Red. masses --      1.3982                 1.2156                 1.3107
 Frc consts  --      1.6182                 1.4201                 1.5341
 IR Inten    --      2.4904                 3.5930                 3.5823

                     61                     62                     63
                      A                      A                      A
 Frequencies --   1427.3028              1430.4993              1436.7442
 Red. masses --      1.3635                 1.3133                 1.2717
 Frc consts  --      1.6366                 1.5834                 1.5466
 IR Inten    --     19.8401                 7.2032                 7.6057

                     64                     65                     66
                      A                      A                      A
 Frequencies --   1440.1571              1451.8210              1509.3971
 Red. masses --      1.3164                 1.3342                 1.1144
 Frc consts  --      1.6086                 1.6569                 1.4960
 IR Inten    --     30.9424                12.1321                 4.6049

                     67                     68                     69
                      A                      A                      A
 Frequencies --   1513.8484              1516.3888              1522.1346
 Red. masses --      1.0778                 1.1696                 1.0613
 Frc consts  --      1.4552                 1.5846                 1.4487
 IR Inten    --      0.8603                 2.1057                 4.4830

                     70                     71                     72
                      A                      A                      A
 Frequencies --   1526.6579              1530.8539              1536.6857
 Red. masses --      1.0902                 1.0747                 1.0830
 Frc consts  --      1.4971                 1.4840                 1.5067
 IR Inten    --      3.1800                 5.5505                 8.6644

                     73                     74                     75
                      A                      A                      A
 Frequencies --   1538.4058              1541.1552              1549.8247
 Red. masses --      1.0637                 1.0616                 1.0826
 Frc consts  --      1.4832                 1.4856                 1.5321
 IR Inten    --      4.5645                 0.2571                 6.7646

                     76                     77                     78
                      A                      A                      A
 Frequencies --   2979.7462              2986.4976              3016.2675
 Red. masses --      1.0696                 1.0556                 1.1034
 Frc consts  --      5.5955                 5.5473                 5.9146
 IR Inten    --     35.5545                50.4011                41.1282

                     79                     80                     81
                      A                      A                      A
 Frequencies --   3023.7362              3032.3749              3041.0142
 Red. masses --      1.0658                 1.0836                 1.0444
 Frc consts  --      5.7414                 5.8707                 5.6908
 IR Inten    --     17.5667                24.6043                16.1864

                     82                     83                     84
                      A                      A                      A
 Frequencies --   3050.3105              3051.7605              3056.1413
 Red. masses --      1.0795                 1.0681                 1.0471
 Frc consts  --      5.9178                 5.8609                 5.7619
 IR Inten    --     76.7432                 4.9776                12.2363

                     85                     86                     87
                      A                      A                      A
 Frequencies --   3059.5900              3062.3813              3071.7468
 Red. masses --      1.0816                 1.0584                 1.0877
 Frc consts  --      5.9655                 5.8483                 6.0469
 IR Inten    --     43.1947                31.0788                52.4535

                     88                     89                     90
                      A                      A                      A
 Frequencies --   3093.5058              3098.7596              3101.7897
 Red. masses --      1.1040                 1.0940                 1.1053
 Frc consts  --      6.2247                 6.1891                 6.2653
 IR Inten    --     36.3535                10.0047                46.5732

                     91                     92                     93
                      A                      A                      A
 Frequencies --   3106.8673              3123.0342              3138.1163
 Red. masses --      1.0969                 1.1008                 1.1028
 Frc consts  --      6.2383                 6.3257                 6.3983
 IR Inten    --     81.3467                47.6967                25.1103

                     94                     95                     96
                      A                      A                      A
 Frequencies --   3147.4375              3474.6917              3762.9461
 Red. masses --      1.0991                 1.0738                 1.0662
 Frc consts  --      6.4149                 7.6387                 8.8954
 IR Inten    --     17.9334                 2.2961                 8.9898

 - Thermochemistry -
 -------------------
 Temperature   298.150 Kelvin.  Pressure   1.00000 Atm.
 Atom     1 has atomic number  6 and mass  12.00000

 Molecular mass:   187.15723 amu.
 Principal axes and moments of inertia in atomic units:
                           1         2         3
     Eigenvalues --  1247.212905183.764405565.12643
           X            0.99995   0.00996  -0.00139
           Y           -0.00996   0.99995   0.00065
           Z            0.00139  -0.00063   1.00000
 This molecule is an asymmetric top.
 Rotational symmetry number  1.
 Warning -- assumption of classical behavior for rotation
           may cause significant error
 Rotational temperatures (Kelvin)      0.06945     0.01671     0.01556
 Rotational constants (GHZ):           1.44702     0.34815     0.32429
 Zero-point vibrational energy     818394.8 (Joules/Mol)
                                  195.60105 (Kcal/Mol)
 Warning -- explicit consideration of  22 degrees of freedom as
           vibrations may cause significant error
 Vibrational temperatures:     30.18    63.57    80.12   155.91   190.34
          (Kelvin)            230.40   285.49   303.75   321.65   343.62
                              375.30   416.84   433.97   483.75   548.41
                              558.70   605.50   617.18   661.37   687.52
                              730.42   852.00   978.23  1124.18  1156.21
                             1185.89  1228.31  1257.70  1317.14  1349.44
                             1356.10  1381.79  1398.86  1428.06  1447.04
                             1488.44  1516.47  1550.12  1560.64  1606.89
                             1626.26  1646.19  1678.03  1680.30  1710.28
                             1718.78  1739.88  1779.99  1818.55  1873.09
                             1883.60  1923.82  1931.62  1964.49  1968.71
                             1990.71  2007.15  2016.48  2025.99  2027.90
                             2053.57  2058.17  2067.15  2072.06  2088.85
                             2171.69  2178.09  2181.75  2190.01  2196.52
                             2202.56  2210.95  2213.42  2217.38  2229.85
                             4287.19  4296.90  4339.74  4350.48  4362.91
                             4375.34  4388.72  4390.80  4397.11  4402.07
                             4406.08  4419.56  4450.86  4458.42  4462.78
                             4470.09  4493.35  4515.05  4528.46  4999.31
                             5414.04

 Zero-point correction=                           0.311710 (Hartree/Particle)
 Thermal correction to Energy=                    0.326312
 Thermal correction to Enthalpy=                  0.327256
 Thermal correction to Gibbs Free Energy=         0.269398
 Sum of electronic and zero-point Energies=           -598.624496
 Sum of electronic and thermal Energies=              -598.609894
 Sum of electronic and thermal Enthalpies=            -598.608950
 Sum of electronic and thermal Free Energies=         -598.666808

                     E (Thermal)             CV                S
                      KCal/Mol        Cal/Mol-Kelvin    Cal/Mol-Kelvin
 Total                  204.764             55.157            121.773
 Electronic               0.000              0.000              0.000
 Translational            0.889              2.981             41.586
 Rotational               0.889              2.981             31.954
 Vibrational            202.986             49.195             48.233
 Vibration     1          0.593              1.986              6.540
 Vibration     2          0.595              1.980              5.062
 Vibration     3          0.596              1.975              4.605
 Vibration     4          0.606              1.943              3.298
 Vibration     5          0.612              1.921              2.912
 Vibration     6          0.622              1.891              2.548
 Vibration     7          0.637              1.842              2.148
 Vibration     8          0.643              1.824              2.034
 Vibration     9          0.649              1.805              1.930
 Vibration    10          0.657              1.781              1.812
 Vibration    11          0.669              1.744              1.656
 Vibration    12          0.686              1.693              1.476
 Vibration    13          0.694              1.671              1.408
 Vibration    14          0.717              1.603              1.230
 Vibration    15          0.751              1.510              1.035
 Vibration    16          0.756              1.495              1.007
 Vibration    17          0.783              1.425              0.889
 Vibration    18          0.790              1.407              0.862
 Vibration    19          0.818              1.339              0.767
 Vibration    20          0.834              1.299              0.716
 Vibration    21          0.863              1.233              0.639
 Vibration    22          0.950              1.048              0.463

 Optimization completed.
    -- Stationary point found.
 Normal termination of Gaussian 16 at Wed Dec  9 23:45:09 2020.

 ----------------------------------------------------------------------
 # B3LYP/6-311++G(d,p) empiricaldispersion=gd3bj scf=xqc pop=npa geom=c
 heck
 ----------------------------------------------------------------------

 ---------------------------------------
 CID_116492974_JID_3518_Energie_neutraal
 ---------------------------------------
 Structure from the checkpoint file:  "JID_3518.chk"
 Charge =  0 Multiplicity = 1

 SCF Done:  E(RB3LYP) =  -599.121159586     A.U. after   14 cycles
 Normal termination of Gaussian 16 at Wed Dec  9 23:50:04 2020.

 ----------------------------------------------------------------------
 # B3LYP/6-311++G(d,p) empiricaldispersion=gd3bj scf=xqc pop=npa geom=c
 heck
 ----------------------------------------------------------------------

 -------------------------------------
 CID_116492974_JID_3518_Energie_kation
 -------------------------------------
 Structure from the checkpoint file:  "JID_3518.chk"
 Charge =  1 Multiplicity = 2

 SCF Done:  E(UB3LYP) =  -598.824655745     A.U. after   22 cycles
 Normal termination of Gaussian 16 at Thu Dec 10 00:00:59 2020.
 Gaussian 16:  ES64L-G16RevA.03 25-Dec-2016

 ----------------------------------------------------------------------
 # B3LYP/6-311++G(d,p) empiricaldispersion=gd3bj scf=xqc pop=npa geom=c
 heck
 ----------------------------------------------------------------------

 ------------------------------------
 CID_116492974_JID_3518_Energie_anion
 ------------------------------------
 Structure from the checkpoint file:  "JID_3518.chk"
 Charge = -1 Multiplicity = 2

                         Standard orientation:
 ---------------------------------------------------------------------
 Center     Atomic      Atomic             Coordinates (Angstroms)
 Number     Number       Type             X           Y           Z
 ---------------------------------------------------------------------
      1          6           0       -3.180134   -1.161736    1.464422
      2          6           0       -3.399910   -0.266407    0.240094
      3          6           0       -2.875937    1.170735    0.454171
      4          6           0       -1.340804    1.230142    0.423554
      5          6           0       -0.815498    0.590718   -0.867120
      6          6           0       -1.366290   -0.836424   -1.025763
      7          7           0       -2.830685   -0.900070   -0.966286
      8          8           0        0.602912    0.678982   -0.998533
      9          6           0        1.385029   -0.145723   -0.150021
     10          6           0        2.819032    0.381213   -0.155579
     11          6           0        2.883688    1.800796    0.415675
     12          6           0        3.752685   -0.556926    0.620256
     13          8           0        3.884136   -1.853019    0.045393
     14          1           0       -2.122720   -1.242874    1.736969
     15          1           0       -3.552355   -2.169768    1.260116
     16          1           0       -3.712258   -0.757858    2.332636
     17          1           0       -4.481935   -0.214445    0.066324
     18          1           0       -3.272235    1.808626   -0.348776
     19          1           0       -3.257617    1.581615    1.397686
     20          1           0       -0.931854    0.704654    1.295300
     21          1           0       -0.988126    2.266009    0.484867
     22          1           0       -1.186979    1.184688   -1.713453
     23          1           0       -0.965681   -1.482173   -0.235777
     24          1           0       -1.034672   -1.259974   -1.980260
     25          1           0       -3.205805   -0.423236   -1.785519
     26          1           0        0.999185   -0.141913    0.882170
     27          1           0        1.364477   -1.185811   -0.510470
     28          1           0        3.157204    0.395108   -1.199801
     29          1           0        2.595179    1.810123    1.475397
     30          1           0        3.896223    2.212983    0.340345
     31          1           0        2.199328    2.458727   -0.125110
     32          1           0        4.762729   -0.135006    0.623545
     33          1           0        3.426212   -0.620370    1.672729
     34          1           0        3.058936   -2.334630    0.202075
 ---------------------------------------------------------------------

 SCF Done:  E(UB3LYP) =  -599.109473823     A.U. after   27 cycles

 The electronic state is 2-A.
 Alpha  occ. eigenvalues --  -19.02886 -19.02456 -14.19668 -10.12238 -10.11852
 Alpha  occ. eigenvalues --  -10.11759 -10.09630 -10.08919 -10.08056 -10.06838
 Alpha  occ. eigenvalues --  -10.06545 -10.06497 -10.05350  -0.93754  -0.92911
 Alpha  occ. eigenvalues --   -0.81211  -0.71233  -0.68258  -0.66258  -0.60217
 Alpha  occ. eigenvalues --   -0.58665  -0.57988  -0.53261  -0.50484  -0.47972
 Alpha  occ. eigenvalues --   -0.45200  -0.42527  -0.40343  -0.38891  -0.38357
 Alpha  occ. eigenvalues --   -0.37456  -0.36088  -0.34474  -0.33100  -0.32890
 Alpha  occ. eigenvalues --   -0.31354  -0.30417  -0.28962  -0.28644  -0.28150
 Alpha  occ. eigenvalues --   -0.27816  -0.27492  -0.25573  -0.25415  -0.23982
 Alpha  occ. eigenvalues --   -0.23690  -0.23270  -0.22144  -0.20843  -0.18400
 Alpha  occ. eigenvalues --   -0.16823  -0.11992   0.04250
 Alpha virt. eigenvalues --    0.06015   0.06984   0.07395   0.08431   0.08875
 Alpha virt. eigenvalues --    0.09074   0.09938   0.10200   0.10862   0.11294
 Alpha virt. eigenvalues --    0.11548   0.12007   0.12642   0.13026   0.13441

  Beta  occ. eigenvalues --  -19.02854 -19.02445 -14.19654 -10.12217 -10.11846
  Beta  occ. eigenvalues --  -10.11734 -10.09618 -10.08905 -10.08054 -10.06827
  Beta  occ. eigenvalues --  -10.06532 -10.06472 -10.05317  -0.93722  -0.92844
  Beta  occ. eigenvalues --   -0.81179  -0.71210  -0.68223  -0.66226  -0.60170
  Beta  occ. eigenvalues --   -0.58621  -0.57926  -0.53208  -0.50443  -0.47920
  Beta  occ. eigenvalues --   -0.45139  -0.42462  -0.40288  -0.38851  -0.38321
  Beta  occ. eigenvalues --   -0.37427  -0.36051  -0.34436  -0.33078  -0.32860
  Beta  occ. eigenvalues --   -0.31315  -0.30388  -0.28939  -0.28612  -0.28117
  Beta  occ. eigenvalues --   -0.27779  -0.27454  -0.25546  -0.25383  -0.23951
  Beta  occ. eigenvalues --   -0.23657  -0.23236  -0.22095  -0.20806  -0.18366
  Beta  occ. eigenvalues --   -0.16804  -0.11971
  Beta virt. eigenvalues --    0.06482   0.07001   0.07451   0.07980   0.08843
  Beta virt. eigenvalues --    0.09233   0.09473   0.10300   0.10574   0.11069
  Beta virt. eigenvalues --    0.11559   0.11838   0.12331   0.12918   0.13294

 Mulliken charges and spin densities:
               1          2
     1  C    1.415339  -2.040500
     2  C   -1.317937   1.371977
     3  C    0.544100  -1.267989
     4  C    0.547857  -0.299750
     5  C   -1.008409   0.440291
     6  C    0.911269  -1.363871
     7  N   -0.084617   0.041600
     8  O   -0.043068   0.015650
     9  C   -0.431518  -0.006632
    10  C    0.105448   0.301159
    11  C   -0.240957  -0.367925
    12  C    0.354385  -0.844171
    13  O   -0.258006   0.005090
    14  H   -0.436590   0.581297
    15  H    0.038080   0.118578
    16  H   -0.162812   0.296003
    17  H   -0.611839   0.823819
    18  H   -0.235359   0.387371
    19  H   -0.275771   0.449052
    20  H   -0.132768   0.294140
    21  H    0.087104   0.084822
    22  H   -0.036169   0.213540
    23  H   -0.307509   0.508546
    24  H    0.101183   0.082150
    25  H   -0.036722   0.279013
    26  H    0.399217  -0.257895
    27  H    0.188205  -0.124850
    28  H    0.168114   0.029158
    29  H    0.006268   0.128740
    30  H    0.037156   0.093858
    31  H    0.085931   0.069971
    32  H    0.085089   0.090470
    33  H   -0.356672   0.516017
    34  H   -0.098020   0.351269
 Sum of Mulliken charges =  -1.00000   1.00000

 Dipole moment (field-independent basis, Debye):
    X=              3.3305    Y=              2.7210    Z=             -2.1871  Tot=              4.8249
 Quadrupole moment (field-independent basis, Debye-Ang):
   XX=           -166.7998   YY=           -124.6329   ZZ=           -119.7643
   XY=              9.6741   XZ=              0.7014   YZ=              1.5072

 Summary of Natural Population Analysis:

                                       Natural Population
                Natural  -----------------------------------------------
    Atom  No    Charge         Core      Valence    Rydberg      Total
 -----------------------------------------------------------------------
      C    1   -0.29097      0.99964     2.28505    0.00628     3.29097
      C    2   -0.01119      0.99960     1.99841    0.01318     3.01119
      C    3   -0.19647      0.99961     2.18707    0.00979     3.19647
      C    4   -0.20648      0.99960     2.19748    0.00940     3.20648
      C    5    0.06589      0.99951     1.92154    0.01306     2.93411
      C    6   -0.10400      0.99959     2.09339    0.01101     3.10400
      N    7   -0.33966      0.99975     2.82618    0.01373     3.83966
      O    8   -0.30536      0.99988     3.29610    0.00939     4.30536
      C    9   -0.01233      0.99953     1.99851    0.01429     3.01233
      C   10   -0.13313      0.99960     2.12324    0.01029     3.13313
      C   11   -0.28713      0.99965     2.28256    0.00493     3.28713
      C   12   -0.00661      0.99956     1.99345    0.01359     3.00661
      O   13   -0.36997      0.99990     3.36320    0.00687     4.36997
      H   14    0.09688      0.00000     0.40167    0.00144     0.40312
      H   15    0.10343      0.00000     0.39524    0.00133     0.39657
      H   16    0.10047      0.00000     0.39834    0.00119     0.39953
      H   17    0.09573      0.00000     0.40261    0.00166     0.40427
      H   18    0.09584      0.00000     0.40240    0.00176     0.40416
      H   19    0.10219      0.00000     0.39651    0.00130     0.39781
      H   20    0.09676      0.00000     0.40130    0.00195     0.40324
      H   21    0.10211      0.00000     0.39667    0.00122     0.39789
      H   22    0.08599      0.00000     0.41229    0.00172     0.41401
      H   23    0.09377      0.00000     0.40441    0.00182     0.40623
      H   24    0.09752      0.00000     0.40140    0.00108     0.40248
      H   25    0.17205      0.00000     0.32551    0.00244     0.32795
      H   26    0.08107      0.00000     0.41678    0.00216     0.41893
      H   27    0.08068      0.00000     0.41733    0.00199     0.41932
      H   28    0.09799      0.00000     0.40012    0.00188     0.40201
      H   29    0.09736      0.00000     0.40166    0.00098     0.40264
      H   30    0.09528      0.00000     0.40391    0.00081     0.40472
      H   31    0.10887      0.00000     0.38997    0.00116     0.39113
      H   32    0.08460      0.00000     0.41429    0.00111     0.41540
      H   33    0.07828      0.00000     0.42011    0.00161     0.42172
      H   34    0.23056      0.00000     0.26503    0.00441     0.26944
 =======================================================================
   * Total *    0.00000     12.99542    38.83372    0.17086    52.00000

 Normal termination of Gaussian 16 at Thu Dec 10 00:14:19 2020.
