 Gaussian 16, Revision A.03,

 -----------------------------------------------------------
 # opt freq B3LYP/6-31G(d) empiricaldispersion=gd3bj scf=xqc
 -----------------------------------------------------------

 -------------------------------
 CID_153902920_JID_5097_neutraal
 -------------------------------
 Symbolic Z-matrix:
 Charge =  0 Multiplicity = 1

 SCF Done:  E(RB3LYP) =  -1104.58408084     A.U. after   15 cycles
 SCF Done:  E(RB3LYP) =  -1104.59482372     A.U. after   13 cycles
 SCF Done:  E(RB3LYP) =  -1104.59844814     A.U. after   12 cycles
 SCF Done:  E(RB3LYP) =  -1104.60032526     A.U. after   13 cycles
 SCF Done:  E(RB3LYP) =  -1104.60164656     A.U. after   13 cycles
 SCF Done:  E(RB3LYP) =  -1104.60225280     A.U. after   13 cycles
 SCF Done:  E(RB3LYP) =  -1104.60254062     A.U. after   12 cycles
 SCF Done:  E(RB3LYP) =  -1104.60265286     A.U. after   12 cycles
 SCF Done:  E(RB3LYP) =  -1104.60269431     A.U. after   11 cycles
 SCF Done:  E(RB3LYP) =  -1104.60272768     A.U. after   11 cycles
 SCF Done:  E(RB3LYP) =  -1104.60279090     A.U. after   11 cycles
 SCF Done:  E(RB3LYP) =  -1104.60279114     A.U. after    9 cycles
 SCF Done:  E(RB3LYP) =  -1104.60279108     A.U. after    9 cycles
 SCF Done:  E(RB3LYP) =  -1104.60279119     A.U. after   10 cycles
 SCF Done:  E(RB3LYP) =  -1104.60279120     A.U. after    8 cycles
 Optimization completed.
    -- Stationary point found.
 Normal termination of Gaussian 16 at Thu Dec 10 14:59:34 2020.

 --------------------------------------------------------------------
 #N Geom=AllCheck Guess=TCheck SCRF=Check GenChk RB3LYP/6-31G(d) Freq
 --------------------------------------------------------------------

 Structure from the checkpoint file:  "JID_5097.chk"
 -------------------------------
 CID_153902920_JID_5097_neutraal
 -------------------------------
 Charge =  0 Multiplicity = 1

 SCF Done:  E(RB3LYP) =  -1104.60279120     A.U. after    1 cycles

  Exact polarizability: 171.965  16.414 119.745  -8.578  14.663 105.536
 Approx polarizability: 231.076  26.493 187.459 -13.790  30.665 183.186

                      1                      2                      3
                      A                      A                      A
 Frequencies --     13.4519                32.1529                45.5015
 Red. masses --      5.0990                 4.5363                 7.9132
 Frc consts  --      0.0005                 0.0028                 0.0097
 IR Inten    --      0.1765                 1.3321                 0.4545

                      4                      5                      6
                      A                      A                      A
 Frequencies --     64.7966                89.0472               114.6898
 Red. masses --      4.6848                 7.4110                 1.8972
 Frc consts  --      0.0116                 0.0346                 0.0147
 IR Inten    --      0.3201                 0.8470                 1.5630

                      7                      8                      9
                      A                      A                      A
 Frequencies --    123.6437               159.7159               186.2267
 Red. masses --      4.2982                 5.1370                 6.2692
 Frc consts  --      0.0387                 0.0772                 0.1281
 IR Inten    --      0.6191                 0.8873                 1.5960

                     10                     11                     12
                      A                      A                      A
 Frequencies --    256.8700               260.4606               289.0819
 Red. masses --      1.7954                 1.2174                 3.1358
 Frc consts  --      0.0698                 0.0487                 0.1544
 IR Inten    --     11.3106                 3.2925                 2.1597

                     13                     14                     15
                      A                      A                      A
 Frequencies --    319.8098               343.2130               377.6565
 Red. masses --      4.0880                 3.9071                 3.2619
 Frc consts  --      0.2463                 0.2712                 0.2741
 IR Inten    --      1.7199                20.5726                11.4924

                     16                     17                     18
                      A                      A                      A
 Frequencies --    387.4279               418.7132               430.2574
 Red. masses --      5.7490                 3.3025                 4.0750
 Frc consts  --      0.5084                 0.3411                 0.4445
 IR Inten    --     13.2428                 1.6144                10.5375

                     19                     20                     21
                      A                      A                      A
 Frequencies --    465.7223               476.1026               527.0619
 Red. masses --      2.4893                 3.0912                 2.4943
 Frc consts  --      0.3181                 0.4128                 0.4083
 IR Inten    --     68.0183                14.8617                 4.9374

                     22                     23                     24
                      A                      A                      A
 Frequencies --    539.5859               599.6974               653.5035
 Red. masses --      4.2531                 2.7726                 5.2505
 Frc consts  --      0.7296                 0.5875                 1.3211
 IR Inten    --     34.1200                33.9972               144.0728

                     25                     26                     27
                      A                      A                      A
 Frequencies --    659.5453               671.8710               715.8745
 Red. masses --      5.9946                 2.8686                10.4998
 Frc consts  --      1.5364                 0.7629                 3.1703
 IR Inten    --    172.6850                43.5544               132.6151

                     28                     29                     30
                      A                      A                      A
 Frequencies --    717.6579               772.4612               805.8868
 Red. masses --      4.8689                 3.0314                 1.2838
 Frc consts  --      1.4775                 1.0657                 0.4913
 IR Inten    --     12.1206                17.8791                 6.8616

                     31                     32                     33
                      A                      A                      A
 Frequencies --    834.1645               849.7582               852.3572
 Red. masses --      1.5877                 1.1656                 4.0460
 Frc consts  --      0.6509                 0.4959                 1.7319
 IR Inten    --     51.6594                 3.3031                 9.1843

                     34                     35                     36
                      A                      A                      A
 Frequencies --    892.5323               919.4851               937.4131
 Red. masses --      9.9403                 1.3077                 1.2887
 Frc consts  --      4.6655                 0.6514                 0.6672
 IR Inten    --    337.6134                 6.9296                 0.1808

                     37                     38                     39
                      A                      A                      A
 Frequencies --    949.1766              1030.7173              1084.1148
 Red. masses --      2.4627                 2.6935                 3.4572
 Frc consts  --      1.3072                 1.6860                 2.3940
 IR Inten    --     15.0922                 0.2171                52.4666

                     40                     41                     42
                      A                      A                      A
 Frequencies --   1092.3767              1130.6818              1141.7515
 Red. masses --      1.8545                 1.4245                 1.7688
 Frc consts  --      1.3038                 1.0730                 1.3585
 IR Inten    --     17.6277                47.0245                11.3095

                     43                     44                     45
                      A                      A                      A
 Frequencies --   1157.4386              1182.1678              1197.7080
 Red. masses --      2.1418                 1.9917                 1.5060
 Frc consts  --      1.6905                 1.6399                 1.2728
 IR Inten    --     40.5640                87.6740                 4.1198

                     46                     47                     48
                      A                      A                      A
 Frequencies --   1220.3885              1239.5925              1283.2858
 Red. masses --      1.1761                 5.6808                 2.5424
 Frc consts  --      1.0320                 5.1430                 2.4668
 IR Inten    --      9.3785               187.7977               340.6524

                     49                     50                     51
                      A                      A                      A
 Frequencies --   1299.5940              1305.0110              1316.4581
 Red. masses --      2.4606                 1.6848                 1.1100
 Frc consts  --      2.4486                 1.6905                 1.1334
 IR Inten    --     92.5660                33.7910                 0.3738

                     52                     53                     54
                      A                      A                      A
 Frequencies --   1353.0380              1373.1836              1416.8080
 Red. masses --      1.4940                 3.3769                 1.1875
 Frc consts  --      1.6115                 3.7517                 1.4045
 IR Inten    --     12.4721                26.8323                10.0868

                     55                     56                     57
                      A                      A                      A
 Frequencies --   1422.4318              1452.7611              1467.0293
 Red. masses --      1.2498                 1.3825                 2.5632
 Frc consts  --      1.4899                 1.7192                 3.2503
 IR Inten    --     12.3348                42.5771                 3.6003

                     58                     59                     60
                      A                      A                      A
 Frequencies --   1514.9037              1531.1875              1531.3638
 Red. masses --      1.0401                 1.0870                 1.0770
 Frc consts  --      1.4064                 1.5016                 1.4881
 IR Inten    --      5.1464                 6.3484                 5.6747

                     61                     62                     63
                      A                      A                      A
 Frequencies --   1551.5112              1556.5023              1574.0759
 Red. masses --      1.2613                 1.4835                 2.0733
 Frc consts  --      1.7888                 2.1176                 3.0266
 IR Inten    --     68.1492                55.2605               225.3937

                     64                     65                     66
                      A                      A                      A
 Frequencies --   1650.6173              1687.2526              3010.5870
 Red. masses --      4.7550                 5.9098                 1.0553
 Frc consts  --      7.6329                 9.9125                 5.6354
 IR Inten    --      0.3595                 4.0527                31.7673

                     67                     68                     69
                      A                      A                      A
 Frequencies --   3046.4055              3063.7256              3118.5080
 Red. masses --      1.1086                 1.0351                 1.0575
 Frc consts  --      6.0619                 5.7246                 6.0592
 IR Inten    --     39.9807                20.9537                31.7516

                     70                     71                     72
                      A                      A                      A
 Frequencies --   3135.6996              3141.6178              3172.0645
 Red. masses --      1.1025                 1.1040                 1.1118
 Frc consts  --      6.3869                 6.4201                 6.5914
 IR Inten    --     24.0940                27.7701                10.9511

                     73                     74                     75
                      A                      A                      A
 Frequencies --   3175.4348              3213.0089              3217.4108
 Red. masses --      1.0890                 1.0879                 1.0926
 Frc consts  --      6.4700                 6.6168                 6.6641
 IR Inten    --     19.3068                15.3569                 4.9137

                     76                     77                     78
                      A                      A                      A
 Frequencies --   3233.6755              3566.4142              3632.9798
 Red. masses --      1.0922                 1.0749                 1.0654
 Frc consts  --      6.7290                 8.0556                 8.2846
 IR Inten    --      7.7949                 8.4073                63.5461

 - Thermochemistry -
 -------------------
 Temperature   298.150 Kelvin.  Pressure   1.00000 Atm.
 Atom     1 has atomic number  6 and mass  12.00000

 Molecular mass:   231.05653 amu.
 Principal axes and moments of inertia in atomic units:
                           1         2         3
     Eigenvalues --  1875.953037011.267117948.62713
           X            0.99968   0.02470  -0.00499
           Y           -0.02450   0.99908   0.03525
           Z            0.00586  -0.03512   0.99937
 This molecule is an asymmetric top.
 Rotational symmetry number  1.
 Warning -- assumption of classical behavior for rotation
           may cause significant error
 Rotational temperatures (Kelvin)      0.04617     0.01235     0.01090
 Rotational constants (GHZ):           0.96204     0.25741     0.22705
 Zero-point vibrational energy     581648.6 (Joules/Mol)
                                  139.01736 (Kcal/Mol)
 Warning -- explicit consideration of  23 degrees of freedom as
           vibrations may cause significant error
 Vibrational temperatures:     19.35    46.26    65.47    93.23   128.12
          (Kelvin)            165.01   177.90   229.80   267.94   369.58
                              374.74   415.92   460.13   493.81   543.36
                              557.42   602.43   619.04   670.07   685.01
                              758.32   776.34   862.83   940.25   948.94
                              966.67  1029.98  1032.55  1111.40  1159.49
                             1200.18  1222.61  1226.35  1284.15  1322.93
                             1348.73  1365.65  1482.97  1559.80  1571.69
                             1626.80  1642.73  1665.30  1700.88  1723.23
                             1755.87  1783.50  1846.36  1869.83  1877.62
                             1894.09  1946.72  1975.70  2038.47  2046.56
                             2090.20  2110.73  2179.61  2203.04  2203.29
                             2232.28  2239.46  2264.74  2374.87  2427.58
                             4331.56  4383.10  4408.02  4486.84  4511.57
                             4520.09  4563.89  4568.74  4622.80  4629.14
                             4652.54  5131.27  5227.05

 Zero-point correction=                           0.221538 (Hartree/Particle)
 Thermal correction to Energy=                    0.237085
 Thermal correction to Enthalpy=                  0.238030
 Thermal correction to Gibbs Free Energy=         0.176017
 Sum of electronic and zero-point Energies=          -1104.381253
 Sum of electronic and thermal Energies=             -1104.365706
 Sum of electronic and thermal Enthalpies=           -1104.364762
 Sum of electronic and thermal Free Energies=        -1104.426774

                     E (Thermal)             CV                S
                      KCal/Mol        Cal/Mol-Kelvin    Cal/Mol-Kelvin
 Total                  148.773             57.115            130.516
 Electronic               0.000              0.000              0.000
 Translational            0.889              2.981             42.214
 Rotational               0.889              2.981             33.013
 Vibrational            146.996             51.154             55.288
 Vibration     1          0.593              1.987              7.422
 Vibration     2          0.594              1.983              5.692
 Vibration     3          0.595              1.979              5.004
 Vibration     4          0.597              1.971              4.306
 Vibration     5          0.602              1.957              3.681
 Vibration     6          0.608              1.937              3.188
 Vibration     7          0.610              1.929              3.043
 Vibration     8          0.622              1.892              2.553
 Vibration     9          0.632              1.859              2.265
 Vibration    10          0.666              1.751              1.683
 Vibration    11          0.669              1.745              1.659
 Vibration    12          0.686              1.694              1.479
 Vibration    13          0.706              1.636              1.311
 Vibration    14          0.722              1.589              1.197
 Vibration    15          0.748              1.518              1.049
 Vibration    16          0.756              1.497              1.010
 Vibration    17          0.782              1.430              0.896
 Vibration    18          0.791              1.404              0.858
 Vibration    19          0.823              1.326              0.750
 Vibration    20          0.833              1.303              0.721
 Vibration    21          0.882              1.190              0.594
 Vibration    22          0.895              1.163              0.566
 Vibration    23          0.958              1.032              0.450

 Optimization completed.
    -- Stationary point found.
 Normal termination of Gaussian 16 at Thu Dec 10 15:07:03 2020.

 ----------------------------------------------------------------------
 # B3LYP/6-311++G(d,p) empiricaldispersion=gd3bj scf=xqc pop=npa geom=c
 heck
 ----------------------------------------------------------------------

 ---------------------------------------
 CID_153902920_JID_5097_Energie_neutraal
 ---------------------------------------
 Structure from the checkpoint file:  "JID_5097.chk"
 Charge =  0 Multiplicity = 1

 SCF Done:  E(RB3LYP) =  -1104.84325139     A.U. after   16 cycles
 Normal termination of Gaussian 16 at Thu Dec 10 15:10:33 2020.

 ----------------------------------------------------------------------
 # B3LYP/6-311++G(d,p) empiricaldispersion=gd3bj scf=xqc pop=npa geom=c
 heck
 ----------------------------------------------------------------------

 -------------------------------------
 CID_153902920_JID_5097_Energie_kation
 -------------------------------------
 Structure from the checkpoint file:  "JID_5097.chk"
 Charge =  1 Multiplicity = 2

 SCF Done:  E(UB3LYP) =  -1104.56926335     A.U. after   20 cycles
 Normal termination of Gaussian 16 at Thu Dec 10 15:16:04 2020.
 Gaussian 16:  ES64L-G16RevA.03 25-Dec-2016

 ----------------------------------------------------------------------
 # B3LYP/6-311++G(d,p) empiricaldispersion=gd3bj scf=xqc pop=npa geom=c
 heck
 ----------------------------------------------------------------------

 ------------------------------------
 CID_153902920_JID_5097_Energie_anion
 ------------------------------------
 Structure from the checkpoint file:  "JID_5097.chk"
 Charge = -1 Multiplicity = 2

                         Standard orientation:
 ---------------------------------------------------------------------
 Center     Atomic      Atomic             Coordinates (Angstroms)
 Number     Number       Type             X           Y           Z
 ---------------------------------------------------------------------
      1          6           0        5.500027    1.273202   -0.102884
      2          6           0        4.094277    0.994315    0.395908
      3          8           0        3.553572   -0.048719   -0.408913
      4          6           0        2.280080   -0.469610   -0.147545
      5          6           0        1.458721    0.040559    0.860763
      6          6           0        0.168500   -0.464114    1.042573
      7          6           0       -0.332134   -1.474089    0.215289
      8          6           0        0.501729   -1.977077   -0.796116
      9          6           0        1.787808   -1.488917   -0.972793
     10          7           0       -1.620868   -2.030998    0.392141
     11          6           0       -2.719966   -1.233566    0.810716
     12          8           0       -3.256047   -0.318548   -0.196916
     13         16           0       -2.407497    1.097759   -0.502705
     14          8           0       -3.345519    1.846648   -1.349717
     15          8           0       -2.489934    1.752869    1.041406
     16          1           0        6.121363    0.376180   -0.020029
     17          1           0        5.959317    2.072175    0.488682
     18          1           0        5.479994    1.583188   -1.152169
     19          1           0        4.105888    0.684299    1.451025
     20          1           0        3.463676    1.891798    0.317100
     21          1           0        1.804518    0.830118    1.516761
     22          1           0       -0.439312   -0.047398    1.838075
     23          1           0        0.132689   -2.761393   -1.453335
     24          1           0        2.429109   -1.878168   -1.756799
     25          1           0       -1.870880   -2.664231   -0.358927
     26          1           0       -3.570266   -1.880553    1.029437
     27          1           0       -2.465164   -0.661334    1.703401
     28          1           0       -3.415737    2.045926    1.172725
 ---------------------------------------------------------------------

 SCF Done:  E(UB3LYP) =  -1104.83329913     A.U. after   33 cycles
 SCF Done:  E(UB3LYP) =  -1104.83329913     a.u. after    1 cycles

 The electronic state is 2-A.
 Alpha  occ. eigenvalues --  -88.92498 -19.06596 -19.06202 -19.06135 -19.02607
 Alpha  occ. eigenvalues --  -14.24163 -10.16845 -10.14132 -10.13833 -10.12449
 Alpha  occ. eigenvalues --  -10.08972 -10.08665 -10.08617 -10.08452 -10.07970
 Alpha  occ. eigenvalues --   -7.99429  -5.95763  -5.95681  -5.94935  -1.02212
 Alpha  occ. eigenvalues --   -0.97835  -0.93779  -0.92289  -0.84791  -0.76126
 Alpha  occ. eigenvalues --   -0.69115  -0.66667  -0.64951  -0.61040  -0.56691
 Alpha  occ. eigenvalues --   -0.56017  -0.51750  -0.50374  -0.46338  -0.45849
 Alpha  occ. eigenvalues --   -0.43953  -0.40955  -0.39875  -0.39819  -0.38624
 Alpha  occ. eigenvalues --   -0.37054  -0.36571  -0.35463  -0.34088  -0.32836
 Alpha  occ. eigenvalues --   -0.31608  -0.31169  -0.30681  -0.29956  -0.28794
 Alpha  occ. eigenvalues --   -0.28137  -0.27465  -0.25701  -0.24845  -0.24252
 Alpha  occ. eigenvalues --   -0.23443  -0.22096  -0.19457  -0.18745  -0.17033
 Alpha  occ. eigenvalues --   -0.11291   0.03976
 Alpha virt. eigenvalues --    0.05287   0.06016   0.06590   0.07547   0.07677
 Alpha virt. eigenvalues --    0.08418   0.08890   0.09153   0.09295   0.10092
 Alpha virt. eigenvalues --    0.10312   0.10832   0.11768   0.12163   0.12561

  Beta  occ. eigenvalues --  -88.92470 -19.06527 -19.06188 -19.06128 -19.02548
  Beta  occ. eigenvalues --  -14.24150 -10.16812 -10.14134 -10.13812 -10.12451
  Beta  occ. eigenvalues --  -10.08965 -10.08656 -10.08607 -10.08435 -10.07938
  Beta  occ. eigenvalues --   -7.99402  -5.95680  -5.95662  -5.94914  -1.02106
  Beta  occ. eigenvalues --   -0.97820  -0.93697  -0.92158  -0.84767  -0.76109
  Beta  occ. eigenvalues --   -0.69086  -0.66642  -0.64902  -0.60949  -0.56603
  Beta  occ. eigenvalues --   -0.55958  -0.51695  -0.50336  -0.46264  -0.45812
  Beta  occ. eigenvalues --   -0.43902  -0.40894  -0.39801  -0.39755  -0.38552
  Beta  occ. eigenvalues --   -0.36981  -0.36497  -0.35426  -0.34065  -0.32800
  Beta  occ. eigenvalues --   -0.31586  -0.31118  -0.30610  -0.29911  -0.28749
  Beta  occ. eigenvalues --   -0.28086  -0.27428  -0.25628  -0.24809  -0.24215
  Beta  occ. eigenvalues --   -0.23347  -0.21960  -0.19435  -0.18614  -0.16985
  Beta  occ. eigenvalues --   -0.11269
  Beta virt. eigenvalues --    0.06043   0.06433   0.06596   0.07022   0.08052
  Beta virt. eigenvalues --    0.08181   0.08669   0.09136   0.09643   0.09729
  Beta virt. eigenvalues --    0.10549   0.10596   0.10962   0.12066   0.12459

 Mulliken charges and spin densities:
               1          2
     1  C    0.965790  -1.679420
     2  C   -0.303323   0.273319
     3  O   -0.137553   0.030096
     4  C   -0.055366  -0.754248
     5  C    1.279046  -0.666415
     6  C    0.628318  -0.169364
     7  C   -1.125148   0.283163
     8  C   -0.302805   0.353622
     9  C   -0.586133   0.413721
    10  N    0.028350  -0.028644
    11  C    0.355259  -0.864317
    12  O   -0.201750   0.041229
    13  S    0.929711  -0.393224
    14  O   -0.475356   0.016585
    15  O   -0.251182  -0.084588
    16  H   -0.088474   0.234210
    17  H   -0.363293   0.514203
    18  H   -0.036104   0.180761
    19  H   -0.158206   0.313228
    20  H    0.062151   0.092622
    21  H   -0.323232   0.553903
    22  H    0.109603   0.087649
    23  H   -0.114914   0.258297
    24  H    0.137014   0.043651
    25  H    0.131045   0.119018
    26  H   -0.868744   1.072348
    27  H   -0.077618   0.283111
    28  H   -0.157087   0.475487
 Sum of Mulliken charges =  -1.00000   1.00000

 Dipole moment (field-independent basis, Debye):
    X=              1.4212    Y=             -2.7037    Z=             -2.6909  Tot=              4.0707
 Quadrupole moment (field-independent basis, Debye-Ang):
   XX=           -199.7983   YY=           -137.0201   ZZ=           -128.2166
   XY=             -7.9077   XZ=             -2.8802   YZ=              1.3259

 Summary of Natural Population Analysis:

                                       Natural Population
                Natural  -----------------------------------------------
    Atom  No    Charge         Core      Valence    Rydberg      Total
 -----------------------------------------------------------------------
      C    1   -0.29169      0.99966     2.28614    0.00589     3.29169
      C    2   -0.01230      0.99959     2.00059    0.01212     3.01230
      O    3   -0.28010      0.99985     3.27044    0.00980     4.28010
      C    4    0.14867      0.99938     1.83904    0.01291     2.85133
      C    5   -0.13213      0.99953     2.12314    0.00947     3.13213
      C    6   -0.11651      0.99953     2.10705    0.00993     3.11651
      C    7    0.06566      0.99947     1.92268    0.01219     2.93434
      C    8   -0.11293      0.99953     2.10431    0.00910     3.11293
      C    9   -0.11019      0.99953     2.10181    0.00885     3.11019
      N   10   -0.31847      0.99968     2.80708    0.01170     3.81847
      C   11    0.06266      0.99960     1.91971    0.01803     2.93734
      O   12   -0.37655      0.99992     3.36806    0.00858     4.37655
      S   13    0.84314      4.99961     2.08837    0.06888     7.15686
      O   14   -0.44109      0.99992     3.43492    0.00626     4.44109
      O   15   -0.43956      0.99992     3.43111    0.00852     4.43956
      H   16    0.10022      0.00000     0.39854    0.00123     0.39978
      H   17    0.10361      0.00000     0.39500    0.00139     0.39639
      H   18    0.09993      0.00000     0.39891    0.00116     0.40007
      H   19    0.08417      0.00000     0.41401    0.00182     0.41583
      H   20    0.08382      0.00000     0.41453    0.00165     0.41618
      H   21    0.10752      0.00000     0.39095    0.00153     0.39248
      H   22    0.10827      0.00000     0.38980    0.00194     0.39173
      H   23    0.09917      0.00000     0.39990    0.00094     0.40083
      H   24    0.10521      0.00000     0.39381    0.00098     0.39479
      H   25    0.18382      0.00000     0.31353    0.00266     0.31618
      H   26    0.10071      0.00000     0.39651    0.00278     0.39929
      H   27    0.09386      0.00000     0.40381    0.00232     0.40614
      H   28    0.24109      0.00000     0.24872    0.01019     0.25891
 =======================================================================
   * Total *   -0.00000     18.99472    41.76247    0.24282    61.00000

 Normal termination of Gaussian 16 at Thu Dec 10 15:25:03 2020.
