 Gaussian 16, Revision A.03,

 -----------------------------------------------------------
 # opt freq B3LYP/6-31G(d) empiricaldispersion=gd3bj scf=xqc
 -----------------------------------------------------------

 -------------------------------
 CID_108048796_JID_6241_neutraal
 -------------------------------
 Symbolic Z-matrix:
 Charge =  0 Multiplicity = 1

 SCF Done:  E(RB3LYP) =  -1125.25944703     A.U. after   15 cycles
 SCF Done:  E(RB3LYP) =  -1125.26580017     A.U. after   14 cycles
 SCF Done:  E(RB3LYP) =  -1125.26665245     A.U. after   13 cycles
 SCF Done:  E(RB3LYP) =  -1125.26728851     A.U. after   12 cycles
 SCF Done:  E(RB3LYP) =  -1125.26784082     A.U. after   13 cycles
 SCF Done:  E(RB3LYP) =  -1125.26801629     A.U. after   11 cycles
 SCF Done:  E(RB3LYP) =  -1125.26808141     A.U. after   11 cycles
 SCF Done:  E(RB3LYP) =  -1125.26811150     A.U. after   11 cycles
 SCF Done:  E(RB3LYP) =  -1125.26812638     A.U. after   10 cycles
 SCF Done:  E(RB3LYP) =  -1125.26813458     A.U. after   10 cycles
 SCF Done:  E(RB3LYP) =  -1125.26813862     A.U. after    7 cycles
 SCF Done:  E(RB3LYP) =  -1125.26813871     A.U. after    7 cycles
 SCF Done:  E(RB3LYP) =  -1125.26813875     A.U. after    7 cycles
 SCF Done:  E(RB3LYP) =  -1125.26813877     A.U. after    6 cycles
 SCF Done:  E(RB3LYP) =  -1125.26813878     A.U. after    6 cycles
 Optimization completed.
    -- Stationary point found.
 Normal termination of Gaussian 16 at Thu Dec 10 21:48:29 2020.

 --------------------------------------------------------------------
 #N Geom=AllCheck Guess=TCheck SCRF=Check GenChk RB3LYP/6-31G(d) Freq
 --------------------------------------------------------------------

 Structure from the checkpoint file:  "JID_6241.chk"
 -------------------------------
 CID_108048796_JID_6241_neutraal
 -------------------------------
 Charge =  0 Multiplicity = 1

 SCF Done:  E(RB3LYP) =  -1125.26813878     A.U. after    1 cycles

  Exact polarizability: 156.176   1.127 152.267  -3.916   6.522 116.052
 Approx polarizability: 193.485   8.276 238.773  -5.540  16.000 189.851

                      1                      2                      3
                      A                      A                      A
 Frequencies --     22.3552                26.7628                38.7987
 Red. masses --      4.7981                 4.0364                 5.9145
 Frc consts  --      0.0014                 0.0017                 0.0052
 IR Inten    --      0.7700                 0.9699                 3.8585

                      4                      5                      6
                      A                      A                      A
 Frequencies --     46.9031                55.3641                60.8862
 Red. masses --      5.7137                 3.3923                 7.4123
 Frc consts  --      0.0074                 0.0061                 0.0162
 IR Inten    --      1.8526                 2.0726                 0.7886

                      7                      8                      9
                      A                      A                      A
 Frequencies --     96.2008               101.1409               133.4694
 Red. masses --      2.1699                 2.4740                 2.7574
 Frc consts  --      0.0118                 0.0149                 0.0289
 IR Inten    --      0.8059                 1.1948                 3.9777

                     10                     11                     12
                      A                      A                      A
 Frequencies --    134.3530               168.2491               187.5102
 Red. masses --      2.8590                 4.2643                 1.9802
 Frc consts  --      0.0304                 0.0711                 0.0410
 IR Inten    --      0.3585                 0.2422                 5.5699

                     13                     14                     15
                      A                      A                      A
 Frequencies --    205.3109               276.7211               283.7624
 Red. masses --      2.7088                 3.8247                 5.9445
 Frc consts  --      0.0673                 0.1726                 0.2820
 IR Inten    --      1.6768                 1.7944                 4.2642

                     16                     17                     18
                      A                      A                      A
 Frequencies --    292.4754               330.4808               359.5362
 Red. masses --      4.3438                 3.8816                 2.9659
 Frc consts  --      0.2189                 0.2498                 0.2259
 IR Inten    --      1.8550                27.5323                 4.5615

                     19                     20                     21
                      A                      A                      A
 Frequencies --    379.7662               401.0767               423.4062
 Red. masses --      3.5590                 2.2315                 1.1936
 Frc consts  --      0.3024                 0.2115                 0.1261
 IR Inten    --      1.7050                 4.7438               171.1129

                     22                     23                     24
                      A                      A                      A
 Frequencies --    455.7052               484.7093               516.1926
 Red. masses --      4.0372                 3.9927                 3.1869
 Frc consts  --      0.4940                 0.5527                 0.5003
 IR Inten    --      0.8532                 8.4870                 6.1668

                     25                     26                     27
                      A                      A                      A
 Frequencies --    530.3526               582.7574               614.5243
 Red. masses --      4.0739                 3.0763                 1.9509
 Frc consts  --      0.6751                 0.6155                 0.4341
 IR Inten    --      2.9731                13.4607                37.8352

                     28                     29                     30
                      A                      A                      A
 Frequencies --    652.2833               664.3122               727.0965
 Red. masses --      1.3433                 2.8092                 2.3135
 Frc consts  --      0.3367                 0.7304                 0.7206
 IR Inten    --     45.2192                19.2022                54.4214

                     31                     32                     33
                      A                      A                      A
 Frequencies --    799.5264               803.7074               818.5536
 Red. masses --      1.2105                 1.1603                 2.5951
 Frc consts  --      0.4559                 0.4416                 1.0245
 IR Inten    --      0.4708                 2.6800                 6.0341

                     34                     35                     36
                      A                      A                      A
 Frequencies --    834.1449               858.3431               883.5349
 Red. masses --      1.6144                 2.4588                 3.3114
 Frc consts  --      0.6618                 1.0673                 1.5230
 IR Inten    --      9.9167                11.5811                21.8515

                     37                     38                     39
                      A                      A                      A
 Frequencies --    949.5150               954.0356               970.2074
 Red. masses --      3.1254                 4.3065                 3.4941
 Frc consts  --      1.6602                 2.3094                 1.9378
 IR Inten    --     11.4470                21.1287                19.4012

                     40                     41                     42
                      A                      A                      A
 Frequencies --    993.6825              1030.2559              1051.7613
 Red. masses --      2.4978                 2.3142                 2.0316
 Frc consts  --      1.4532                 1.4472                 1.3241
 IR Inten    --     10.6669                16.1538                21.2439

                     43                     44                     45
                      A                      A                      A
 Frequencies --   1057.1709              1061.1572              1081.1864
 Red. masses --      3.6303                 1.4638                 1.8586
 Frc consts  --      2.3905                 0.9712                 1.2801
 IR Inten    --      6.1362                 5.3070                11.6088

                     46                     47                     48
                      A                      A                      A
 Frequencies --   1096.8253              1122.3651              1141.7554
 Red. masses --      1.3807                 2.5879                 3.4907
 Frc consts  --      0.9786                 1.9207                 2.6811
 IR Inten    --      1.6969               161.6152                59.9704

                     49                     50                     51
                      A                      A                      A
 Frequencies --   1156.9356              1185.3502              1188.6695
 Red. masses --      1.0990                 1.4506                 2.3760
 Frc consts  --      0.8667                 1.2009                 1.9780
 IR Inten    --      0.5893                19.7817                14.6978

                     52                     53                     54
                      A                      A                      A
 Frequencies --   1206.7909              1214.5004              1239.2721
 Red. masses --      2.2814                 1.3916                 1.6170
 Frc consts  --      1.9576                 1.2094                 1.4631
 IR Inten    --     84.4108                 0.1091                14.6282

                     55                     56                     57
                      A                      A                      A
 Frequencies --   1244.8445              1269.6510              1291.3931
 Red. masses --      1.9377                 1.4520                 1.3423
 Frc consts  --      1.7691                 1.3790                 1.3189
 IR Inten    --      9.2818               105.5810                23.4734

                     58                     59                     60
                      A                      A                      A
 Frequencies --   1316.5527              1337.5861              1348.4134
 Red. masses --      1.3266                 2.1153                 1.1403
 Frc consts  --      1.3548                 2.2298                 1.2215
 IR Inten    --      4.1369                59.3460                 4.2531

                     61                     62                     63
                      A                      A                      A
 Frequencies --   1363.5982              1371.6115              1382.1737
 Red. masses --      1.2722                 1.4279                 1.8401
 Frc consts  --      1.3937                 1.5827                 2.0711
 IR Inten    --     44.3047                14.7197                61.0789

                     64                     65                     66
                      A                      A                      A
 Frequencies --   1405.5192              1420.0932              1437.5597
 Red. masses --      1.5553                 1.6607                 2.5922
 Frc consts  --      1.8102                 1.9733                 3.1563
 IR Inten    --     62.7922                18.6048               138.8843

                     67                     68                     69
                      A                      A                      A
 Frequencies --   1450.7561              1486.6732              1502.7381
 Red. masses --      1.3206                 1.1414                 1.1288
 Frc consts  --      1.6376                 1.4863                 1.5019
 IR Inten    --      5.3980                11.3368                 1.6207

                     70                     71                     72
                      A                      A                      A
 Frequencies --   1503.4172              1510.8568              1519.0962
 Red. masses --      1.4242                 1.0793                 1.0589
 Frc consts  --      1.8967                 1.4516                 1.4398
 IR Inten    --     34.0257                 2.4200                 4.5531

                     73                     74                     75
                      A                      A                      A
 Frequencies --   1530.5674              1533.9300              1536.7696
 Red. masses --      1.0853                 1.3774                 1.0855
 Frc consts  --      1.4980                 1.9096                 1.5104
 IR Inten    --      0.9110                 1.6961                 8.5562

                     76                     77                     78
                      A                      A                      A
 Frequencies --   1539.8214              1656.2401              1794.5695
 Red. masses --      1.0740                 1.3080                 8.5083
 Frc consts  --      1.5004                 2.1141                16.1442
 IR Inten    --      6.4748               169.7116               313.6948

                     79                     80                     81
                      A                      A                      A
 Frequencies --   3000.4556              3014.6096              3034.4986
 Red. masses --      1.0403                 1.0650                 1.0701
 Frc consts  --      5.5179                 5.7022                 5.8055
 IR Inten    --     35.6034                39.9188                16.5808

                     82                     83                     84
                      A                      A                      A
 Frequencies --   3052.6311              3068.7143              3102.2991
 Red. masses --      1.0997                 1.0590                 1.0926
 Frc consts  --      6.0377                 5.8755                 6.1955
 IR Inten    --     77.1950                21.3462                14.2526

                     85                     86                     87
                      A                      A                      A
 Frequencies --   3121.9463              3125.7733              3140.1696
 Red. masses --      1.1017                 1.1071                 1.0979
 Frc consts  --      6.3266                 6.3729                 6.3783
 IR Inten    --     35.9797                16.9635                35.7958

                     88                     89                     90
                      A                      A                      A
 Frequencies --   3145.3653              3159.7710              3164.9831
 Red. masses --      1.0535                 1.0790                 1.0646
 Frc consts  --      6.1408                 6.3473                 6.2830
 IR Inten    --     12.1112                 9.1844                 8.8746

                     91                     92                     93
                      A                      A                      A
 Frequencies --   3180.8161              3222.5596              3250.0821
 Red. masses --      1.0856                 1.1180                 1.1170
 Frc consts  --      6.4713                 6.8404                 6.9520
 IR Inten    --      9.4212                 7.9765                 9.4497

                     94                     95                     96
                      A                      A                      A
 Frequencies --   3557.9567              3564.9736              3685.5925
 Red. masses --      1.0445                 1.0747                 1.1051
 Frc consts  --      7.7907                 8.0470                 8.8442
 IR Inten    --     55.2848                11.5781                69.6444

 - Thermochemistry -
 -------------------
 Temperature   298.150 Kelvin.  Pressure   1.00000 Atm.
 Atom     1 has atomic number  6 and mass  12.00000

 Molecular mass:   246.10381 amu.
 Principal axes and moments of inertia in atomic units:
                           1         2         3
     Eigenvalues --  2521.990057124.558888170.87738
           X            0.99978   0.02093  -0.00112
           Y           -0.02092   0.99975   0.00804
           Z            0.00129  -0.00801   0.99997
 This molecule is an asymmetric top.
 Rotational symmetry number  1.
 Warning -- assumption of classical behavior for rotation
           may cause significant error
 Rotational temperatures (Kelvin)      0.03434     0.01216     0.01060
 Rotational constants (GHZ):           0.71560     0.25331     0.22087
 Zero-point vibrational energy     755437.8 (Joules/Mol)
                                  180.55397 (Kcal/Mol)
 Warning -- explicit consideration of  27 degrees of freedom as
           vibrations may cause significant error
 Vibrational temperatures:     32.16    38.51    55.82    67.48    79.66
          (Kelvin)             87.60   138.41   145.52   192.03   193.30
                              242.07   269.79   295.40   398.14   408.27
                              420.81   475.49   517.29   546.40   577.06
                              609.19   655.66   697.39   742.69   763.06
                              838.46   884.16   938.49   955.80  1046.13
                             1150.34  1156.36  1177.72  1200.15  1234.96
                             1271.21  1366.14  1372.64  1395.91  1429.69
                             1482.31  1513.25  1521.03  1526.77  1555.59
                             1578.09  1614.83  1642.73  1664.57  1705.45
                             1710.23  1736.30  1747.40  1783.04  1791.05
                             1826.74  1858.03  1894.23  1924.49  1940.07
                             1961.91  1973.44  1988.64  2022.23  2043.20
                             2068.33  2087.31  2138.99  2162.10  2163.08
                             2173.79  2185.64  2202.15  2206.98  2211.07
                             2215.46  2382.96  2581.99  4316.99  4337.35
                             4365.97  4392.06  4415.20  4463.52  4491.78
                             4497.29  4518.00  4525.48  4546.21  4553.70
                             4576.48  4636.54  4676.14  5119.11  5129.20
                             5302.75

 Zero-point correction=                           0.287731 (Hartree/Particle)
 Thermal correction to Energy=                    0.305886
 Thermal correction to Enthalpy=                  0.306830
 Thermal correction to Gibbs Free Energy=         0.238339
 Sum of electronic and zero-point Energies=          -1124.980408
 Sum of electronic and thermal Energies=             -1124.962253
 Sum of electronic and thermal Enthalpies=           -1124.961309
 Sum of electronic and thermal Free Energies=        -1125.029800

                     E (Thermal)             CV                S
                      KCal/Mol        Cal/Mol-Kelvin    Cal/Mol-Kelvin
 Total                  191.946             64.740            144.152
 Electronic               0.000              0.000              0.000
 Translational            0.889              2.981             42.402
 Rotational               0.889              2.981             33.351
 Vibrational            190.169             58.778             68.399
 Vibration     1          0.593              1.985              6.413
 Vibration     2          0.593              1.984              6.056
 Vibration     3          0.594              1.981              5.319
 Vibration     4          0.595              1.979              4.944
 Vibration     5          0.596              1.975              4.616
 Vibration     6          0.597              1.973              4.428
 Vibration     7          0.603              1.952              3.530
 Vibration     8          0.604              1.948              3.432
 Vibration     9          0.613              1.920              2.895
 Vibration    10          0.613              1.919              2.883
 Vibration    11          0.625              1.882              2.455
 Vibration    12          0.632              1.857              2.252
 Vibration    13          0.640              1.832              2.085
 Vibration    14          0.678              1.716              1.554
 Vibration    15          0.682              1.704              1.511
 Vibration    16          0.688              1.688              1.460
 Vibration    17          0.713              1.615              1.258
 Vibration    18          0.734              1.556              1.124
 Vibration    19          0.750              1.513              1.040
 Vibration    20          0.767              1.468              0.959
 Vibration    21          0.786              1.419              0.880
 Vibration    22          0.814              1.348              0.779
 Vibration    23          0.841              1.284              0.697
 Vibration    24          0.871              1.214              0.619
 Vibration    25          0.885              1.183              0.586
 Vibration    26          0.940              1.069              0.480
 Vibration    27          0.974              1.001              0.425

                           ! Non-Optimized Parameters !
 Normal termination of Gaussian 16 at Thu Dec 10 22:00:11 2020.

 ----------------------------------------------------------------------
 # B3LYP/6-311++G(d,p) empiricaldispersion=gd3bj scf=xqc pop=npa geom=c
 heck
 ----------------------------------------------------------------------

 ---------------------------------------
 CID_108048796_JID_6241_Energie_neutraal
 ---------------------------------------
 Structure from the checkpoint file:  "JID_6241.chk"
 Charge =  0 Multiplicity = 1

 SCF Done:  E(RB3LYP) =  -1125.51687520     A.U. after   16 cycles
 Normal termination of Gaussian 16 at Thu Dec 10 22:06:04 2020.

 ----------------------------------------------------------------------
 # B3LYP/6-311++G(d,p) empiricaldispersion=gd3bj scf=xqc pop=npa geom=c
 heck
 ----------------------------------------------------------------------

 -------------------------------------
 CID_108048796_JID_6241_Energie_kation
 -------------------------------------
 Structure from the checkpoint file:  "JID_6241.chk"
 Charge =  1 Multiplicity = 2

 SCF Done:  E(UB3LYP) =  -1125.22066609     A.U. after   32 cycles
 Normal termination of Gaussian 16 at Thu Dec 10 22:21:26 2020.
 Gaussian 16:  ES64L-G16RevA.03 25-Dec-2016

 ----------------------------------------------------------------------
 # B3LYP/6-311++G(d,p) empiricaldispersion=gd3bj scf=xqc pop=npa geom=c
 heck
 ----------------------------------------------------------------------

 ------------------------------------
 CID_108048796_JID_6241_Energie_anion
 ------------------------------------
 Structure from the checkpoint file:  "JID_6241.chk"
 Charge = -1 Multiplicity = 2

                         Standard orientation:
 ---------------------------------------------------------------------
 Center     Atomic      Atomic             Coordinates (Angstroms)
 Number     Number       Type             X           Y           Z
 ---------------------------------------------------------------------
      1          6           0       -4.972306    0.237801    0.844731
      2          8           0       -4.671516    0.370288   -0.532158
      3          6           0       -3.606073   -0.459489   -0.961153
      4          6           0       -2.249051    0.206922   -0.714312
      5          8           0       -1.172188   -0.640626   -1.107098
      6          6           0       -0.772874   -1.563056   -0.105668
      7          6           0       -0.136532   -0.912433    1.127702
      8          8           0       -0.450883   -1.255861    2.257490
      9          7           0        0.778765    0.098398    0.923472
     10          6           0        1.540874    0.341647   -0.298359
     11          6           0        1.695014    1.829495   -0.588354
     12          6           0        0.555878    2.777432   -0.353953
     13          6           0        1.790775    2.877201    0.507249
     14          6           0        2.883561   -0.399790   -0.195907
     15         16           0        3.043704   -1.987771   -0.653196
     16          7           0        3.877571    0.317981    0.354501
     17          1           0       -5.799367    0.920414    1.055254
     18          1           0       -4.123501    0.502315    1.492401
     19          1           0       -5.284293   -0.789502    1.089066
     20          1           0       -3.649964   -1.441580   -0.465504
     21          1           0       -3.737841   -0.622388   -2.035241
     22          1           0       -2.171594    1.112371   -1.322677
     23          1           0       -2.148487    0.501977    0.339351
     24          1           0       -1.609645   -2.163667    0.267844
     25          1           0       -0.040554   -2.228123   -0.574077
     26          1           0        1.225664    0.368971    1.793497
     27          1           0        0.984218   -0.103114   -1.119577
     28          1           0        2.297647    2.017594   -1.474679
     29          1           0        0.374355    3.552304   -1.092211
     30          1           0       -0.334786    2.371707    0.114316
     31          1           0        1.693405    2.568439    1.544807
     32          1           0        2.462485    3.717790    0.356418
     33          1           0        3.762571    1.305942    0.541562
     34          1           0        4.787163   -0.106563    0.477038
 ---------------------------------------------------------------------

 SCF Done:  E(UB3LYP) =  -1125.51758535     A.U. after   33 cycles
 SCF Done:  E(UB3LYP) =  -1125.51758535     a.u. after    1 cycles

 The electronic state is 2-A.
 Alpha  occ. eigenvalues --  -88.65576 -19.05799 -19.04473 -18.98782 -14.22946
 Alpha  occ. eigenvalues --  -14.21388 -10.16704 -10.14574 -10.14163 -10.13438
 Alpha  occ. eigenvalues --  -10.12678 -10.10580 -10.09935 -10.08192 -10.07658
 Alpha  occ. eigenvalues --  -10.07267  -7.74338  -5.70676  -5.70233  -5.69911
 Alpha  occ. eigenvalues --   -0.97071  -0.95749  -0.93537  -0.83422  -0.80370
 Alpha  occ. eigenvalues --   -0.75791  -0.68587  -0.64010  -0.63346  -0.59396
 Alpha  occ. eigenvalues --   -0.58189  -0.53463  -0.50898  -0.48929  -0.47248
 Alpha  occ. eigenvalues --   -0.46671  -0.43218  -0.42799  -0.42150  -0.41085
 Alpha  occ. eigenvalues --   -0.39707  -0.38875  -0.38563  -0.38038  -0.35768
 Alpha  occ. eigenvalues --   -0.34938  -0.33456  -0.32375  -0.31718  -0.30550
 Alpha  occ. eigenvalues --   -0.29467  -0.27637  -0.27124  -0.27064  -0.25341
 Alpha  occ. eigenvalues --   -0.24813  -0.23921  -0.23431  -0.21544  -0.19875
 Alpha  occ. eigenvalues --   -0.19169  -0.17798  -0.16099  -0.14862  -0.10492
 Alpha  occ. eigenvalues --   -0.08069   0.04289
 Alpha virt. eigenvalues --    0.05841   0.06525   0.07876   0.07982   0.08822
 Alpha virt. eigenvalues --    0.08958   0.09516   0.09882   0.10827   0.10860
 Alpha virt. eigenvalues --    0.11538   0.11786   0.12241   0.12821   0.13122

  Beta  occ. eigenvalues --  -88.65553 -19.05797 -19.04461 -18.98702 -14.22889
  Beta  occ. eigenvalues --  -14.21253 -10.16647 -10.14571 -10.14163 -10.13432
  Beta  occ. eigenvalues --  -10.12680 -10.10610 -10.09354 -10.08179 -10.07627
  Beta  occ. eigenvalues --  -10.07254  -7.74318  -5.70684  -5.70139  -5.69898
  Beta  occ. eigenvalues --   -0.97065  -0.95714  -0.93417  -0.83124  -0.80047
  Beta  occ. eigenvalues --   -0.75745  -0.68574  -0.63797  -0.63108  -0.59320
  Beta  occ. eigenvalues --   -0.57960  -0.53431  -0.50823  -0.48821  -0.47200
  Beta  occ. eigenvalues --   -0.46218  -0.43189  -0.42782  -0.41980  -0.41040
  Beta  occ. eigenvalues --   -0.39630  -0.38755  -0.38525  -0.38012  -0.35642
  Beta  occ. eigenvalues --   -0.34805  -0.33404  -0.32287  -0.31607  -0.30420
  Beta  occ. eigenvalues --   -0.29375  -0.27501  -0.27077  -0.26905  -0.25285
  Beta  occ. eigenvalues --   -0.23922  -0.23329  -0.23040  -0.21520  -0.19720
  Beta  occ. eigenvalues --   -0.19054  -0.17754  -0.15863  -0.14796  -0.09573
  Beta  occ. eigenvalues --   -0.07983
  Beta virt. eigenvalues --    0.05777   0.07323   0.07844   0.08066   0.08886
  Beta virt. eigenvalues --    0.09030   0.09298   0.09878   0.10625   0.10822
  Beta virt. eigenvalues --    0.11167   0.11776   0.12098   0.12482   0.12828

 Mulliken charges and spin densities:
               1          2
     1  C   -0.214547  -0.046405
     2  O   -0.130498   0.002977
     3  C   -0.453587   0.054487
     4  C   -0.279089  -0.018303
     5  O   -0.012029  -0.005544
     6  C   -0.333103   0.039089
     7  C   -0.060975   0.038505
     8  O   -0.291702   0.016737
     9  N   -0.032120  -0.012994
    10  C    0.768370  -0.615975
    11  C   -1.794301   1.504006
    12  C    0.825400  -1.189660
    13  C    0.824036  -1.356361
    14  C    0.109623   0.263961
    15  S   -0.857204   0.112058
    16  N   -0.229954   0.046989
    17  H    0.134363   0.020800
    18  H    0.104967   0.031402
    19  H    0.097914   0.015710
    20  H    0.122219   0.002604
    21  H    0.161744   0.019357
    22  H    0.159438   0.026284
    23  H    0.205504  -0.044212
    24  H    0.163045  -0.001441
    25  H    0.132220   0.026689
    26  H    0.305769  -0.018224
    27  H    0.276616  -0.006129
    28  H   -0.379855   0.640753
    29  H   -0.108277   0.275162
    30  H    0.101233  -0.015816
    31  H    0.101273   0.046619
    32  H   -0.706470   0.884001
    33  H    0.097821   0.194988
    34  H    0.192157   0.067888
 Sum of Mulliken charges =  -1.00000   1.00000

 Dipole moment (field-independent basis, Debye):
    X=             -9.0972    Y=             -0.7526    Z=              1.5569  Tot=              9.2601
 Quadrupole moment (field-independent basis, Debye-Ang):
   XX=           -161.7434   YY=           -159.7804   ZZ=           -131.9183
   XY=              0.8636   XZ=              7.1435   YZ=              5.5678

 Summary of Natural Population Analysis:

                                       Natural Population
                Natural  -----------------------------------------------
    Atom  No    Charge         Core      Valence    Rydberg      Total
 -----------------------------------------------------------------------
      C    1   -0.09982      0.99962     2.09136    0.00883     3.09982
      O    2   -0.29862      0.99989     3.28887    0.00986     4.29862
      C    3   -0.01973      0.99959     2.00855    0.01159     3.01973
      C    4   -0.02385      0.99958     2.01221    0.01206     3.02385
      O    5   -0.29639      0.99989     3.28712    0.00938     4.29639
      C    6   -0.05988      0.99954     2.04897    0.01137     3.05988
      C    7    0.33947      0.99969     1.63789    0.02295     2.66053
      O    8   -0.31651      0.99988     3.31052    0.00612     4.31651
      N    9   -0.31569      0.99966     2.80570    0.01033     3.81569
      C   10   -0.04643      0.99949     2.03092    0.01602     3.04643
      C   11   -0.12105      0.99958     2.10810    0.01337     3.12105
      C   12   -0.19566      0.99961     2.18622    0.00982     3.19566
      C   13   -0.20843      0.99962     2.19875    0.01007     3.20843
      C   14    0.14897      0.99963     1.83209    0.01931     2.85103
      S   15   -0.13974      4.99953     3.12595    0.01426     8.13974
      N   16   -0.37179      0.99966     2.86052    0.01161     3.87179
      H   17    0.08857      0.00000     0.41041    0.00102     0.41143
      H   18    0.08216      0.00000     0.41632    0.00152     0.41784
      H   19    0.07667      0.00000     0.42166    0.00167     0.42333
      H   20    0.07778      0.00000     0.42055    0.00167     0.42222
      H   21    0.09021      0.00000     0.40832    0.00147     0.40979
      H   22    0.09258      0.00000     0.40581    0.00161     0.40742
      H   23    0.08307      0.00000     0.41493    0.00200     0.41693
      H   24    0.08740      0.00000     0.41094    0.00165     0.41260
      H   25    0.11778      0.00000     0.38100    0.00122     0.38222
      H   26    0.19155      0.00000     0.30598    0.00247     0.30845
      H   27    0.12404      0.00000     0.37379    0.00216     0.37596
      H   28    0.11213      0.00000     0.38628    0.00159     0.38787
      H   29    0.10282      0.00000     0.39618    0.00099     0.39718
      H   30    0.10351      0.00000     0.39506    0.00142     0.39649
      H   31    0.09769      0.00000     0.40098    0.00132     0.40231
      H   32    0.10836      0.00000     0.38872    0.00293     0.39164
      H   33    0.19480      0.00000     0.30277    0.00243     0.30520
      H   34    0.19402      0.00000     0.30433    0.00165     0.30598
 =======================================================================
   * Total *    0.00000     19.99446    45.77779    0.22776    66.00000

 Normal termination of Gaussian 16 at Thu Dec 10 22:37:07 2020.
