 Gaussian 16, Revision A.03,

 -----------------------------------------------------------
 # opt freq B3LYP/6-31G(d) empiricaldispersion=gd3bj scf=xqc
 -----------------------------------------------------------

 -------------------------------
 CID_131960959_JID_9121_neutraal
 -------------------------------
 Symbolic Z-matrix:
 Charge =  0 Multiplicity = 1

 SCF Done:  E(RB3LYP) =  -880.773477767     A.U. after   14 cycles
 SCF Done:  E(RB3LYP) =  -880.782802640     A.U. after   12 cycles
 SCF Done:  E(RB3LYP) =  -880.783182391     A.U. after   12 cycles
 SCF Done:  E(RB3LYP) =  -880.784642012     A.U. after   12 cycles
 SCF Done:  E(RB3LYP) =  -880.785171226     A.U. after   12 cycles
 SCF Done:  E(RB3LYP) =  -880.785446598     A.U. after   12 cycles
 SCF Done:  E(RB3LYP) =  -880.785732978     A.U. after   11 cycles
 SCF Done:  E(RB3LYP) =  -880.785816672     A.U. after   11 cycles
 SCF Done:  E(RB3LYP) =  -880.785836204     A.U. after    9 cycles
 SCF Done:  E(RB3LYP) =  -880.785844041     A.U. after    9 cycles
 SCF Done:  E(RB3LYP) =  -880.785850099     A.U. after    8 cycles
 SCF Done:  E(RB3LYP) =  -880.785850802     A.U. after    8 cycles
 SCF Done:  E(RB3LYP) =  -880.785851170     A.U. after    7 cycles
 SCF Done:  E(RB3LYP) =  -880.785851336     A.U. after    7 cycles
 SCF Done:  E(RB3LYP) =  -880.785851373     A.U. after    6 cycles
 Optimization completed.
    -- Stationary point found.
 Normal termination of Gaussian 16 at Sun Dec 13 16:17:26 2020.

 --------------------------------------------------------------------
 #N Geom=AllCheck Guess=TCheck SCRF=Check GenChk RB3LYP/6-31G(d) Freq
 --------------------------------------------------------------------

 Structure from the checkpoint file:  "JID_9121.chk"
 -------------------------------
 CID_131960959_JID_9121_neutraal
 -------------------------------
 Charge =  0 Multiplicity = 1

 SCF Done:  E(RB3LYP) =  -880.785851373     A.U. after    1 cycles

  Exact polarizability: 238.750   3.233 157.432   1.831  -4.593 117.507
 Approx polarizability: 294.688   1.958 258.021   5.126  -9.342 178.793

                      1                      2                      3
                      A                      A                      A
 Frequencies --     25.3785                42.1209                46.6560
 Red. masses --      4.1008                 3.6818                 3.9110
 Frc consts  --      0.0016                 0.0038                 0.0050
 IR Inten    --      0.8285                 1.0975                 0.5011

                      4                      5                      6
                      A                      A                      A
 Frequencies --     54.5761                66.9006                98.2878
 Red. masses --      3.6127                 3.7786                 3.2733
 Frc consts  --      0.0063                 0.0100                 0.0186
 IR Inten    --      0.4955                 0.6698                 2.5431

                      7                      8                      9
                      A                      A                      A
 Frequencies --    115.7211               127.2357               155.8469
 Red. masses --      4.1604                 2.7389                 3.1825
 Frc consts  --      0.0328                 0.0261                 0.0455
 IR Inten    --      2.7855                 3.1383                 4.3841

                     10                     11                     12
                      A                      A                      A
 Frequencies --    165.2019               168.4849               179.4432
 Red. masses --      3.3152                 1.8524                 1.9267
 Frc consts  --      0.0533                 0.0310                 0.0366
 IR Inten    --      1.7278                 2.0813                 1.9307

                     13                     14                     15
                      A                      A                      A
 Frequencies --    221.0223               233.3476               247.4361
 Red. masses --      1.2973                 1.8216                 1.8955
 Frc consts  --      0.0373                 0.0584                 0.0684
 IR Inten    --      0.0925                 0.0547                 0.0713

                     16                     17                     18
                      A                      A                      A
 Frequencies --    272.4860               292.1224               300.5754
 Red. masses --      2.7884                 3.2927                 2.2143
 Frc consts  --      0.1220                 0.1656                 0.1179
 IR Inten    --      2.6675                 1.3404                 0.7459

                     19                     20                     21
                      A                      A                      A
 Frequencies --    331.8010               367.6118               373.6742
 Red. masses --      2.6783                 3.3505                 3.8133
 Frc consts  --      0.1737                 0.2668                 0.3137
 IR Inten    --      5.1243                 5.8087                 5.6482

                     22                     23                     24
                      A                      A                      A
 Frequencies --    394.5239               433.8304               472.9897
 Red. masses --      3.4273                 3.3315                 4.3293
 Frc consts  --      0.3143                 0.3694                 0.5707
 IR Inten    --      1.0441                 1.4853                 9.5227

                     25                     26                     27
                      A                      A                      A
 Frequencies --    488.3890               520.5879               556.6597
 Red. masses --      3.4357                 3.8079                 2.8105
 Frc consts  --      0.4828                 0.6080                 0.5131
 IR Inten    --      2.2757                 2.3787                16.4026

                     28                     29                     30
                      A                      A                      A
 Frequencies --    572.0485               622.3870               656.0414
 Red. masses --      3.7109                 3.8209                 3.9585
 Frc consts  --      0.7155                 0.8721                 1.0038
 IR Inten    --     30.8613                 1.0413                 0.7148

                     31                     32                     33
                      A                      A                      A
 Frequencies --    682.9063               696.7742               729.0456
 Red. masses --      5.2765                 1.5282                 4.6247
 Frc consts  --      1.4498                 0.4371                 1.4482
 IR Inten    --      7.6938               102.9087                15.1078

                     34                     35                     36
                      A                      A                      A
 Frequencies --    757.7314               770.3547               796.5334
 Red. masses --      3.4279                 3.8241                 3.2750
 Frc consts  --      1.1596                 1.3371                 1.2242
 IR Inten    --      2.4955                19.1162                 5.6306

                     37                     38                     39
                      A                      A                      A
 Frequencies --    806.7647               824.1687               835.1643
 Red. masses --      1.3753                 2.4002                 3.5090
 Frc consts  --      0.5274                 0.9606                 1.4421
 IR Inten    --     64.1574                41.9844                20.9948

                     40                     41                     42
                      A                      A                      A
 Frequencies --    873.3944               877.9198               890.9613
 Red. masses --      2.1707                 1.6497                 1.4358
 Frc consts  --      0.9756                 0.7491                 0.6715
 IR Inten    --     21.1164                 9.8793                11.0651

                     43                     44                     45
                      A                      A                      A
 Frequencies --    893.6194               927.6761               944.3154
 Red. masses --      1.9928                 2.1425                 1.4478
 Frc consts  --      0.9376                 1.0863                 0.7606
 IR Inten    --     23.6502                28.0415                 0.6986

                     46                     47                     48
                      A                      A                      A
 Frequencies --    965.3838              1004.1474              1035.0931
 Red. masses --      2.1082                 2.0471                 5.0587
 Frc consts  --      1.1576                 1.2161                 3.1933
 IR Inten    --     27.8537                22.0974                78.0472

                     49                     50                     51
                      A                      A                      A
 Frequencies --   1071.6943              1095.8779              1112.8080
 Red. masses --      2.0261                 2.7438                 3.7850
 Frc consts  --      1.3710                 1.9414                 2.7615
 IR Inten    --     50.7988                 8.7502                42.1304

                     52                     53                     54
                      A                      A                      A
 Frequencies --   1122.3223              1129.2507              1144.2029
 Red. masses --      2.1666                 2.3573                 1.9063
 Frc consts  --      1.6079                 1.7711                 1.4704
 IR Inten    --      8.5671                36.2948                36.8057

                     55                     56                     57
                      A                      A                      A
 Frequencies --   1159.0793              1185.2806              1186.6955
 Red. masses --      2.1566                 1.3118                 2.1594
 Frc consts  --      1.7071                 1.0858                 1.7917
 IR Inten    --      9.2583                18.5000                29.5878

                     58                     59                     60
                      A                      A                      A
 Frequencies --   1191.8742              1216.6077              1224.2580
 Red. masses --      1.5679                 2.1378                 1.4194
 Frc consts  --      1.3123                 1.8643                 1.2535
 IR Inten    --     65.8334                29.1352                 0.8136

                     61                     62                     63
                      A                      A                      A
 Frequencies --   1236.2706              1253.9468              1267.9904
 Red. masses --      1.6920                 1.6206                 1.5479
 Frc consts  --      1.5237                 1.5014                 1.4663
 IR Inten    --    146.0201                30.5658                 3.3700

                     64                     65                     66
                      A                      A                      A
 Frequencies --   1297.0967              1320.2849              1331.0287
 Red. masses --      1.3994                 2.4861                 1.4139
 Frc consts  --      1.3872                 2.5533                 1.4759
 IR Inten    --     18.9918                84.0697                16.6069

                     67                     68                     69
                      A                      A                      A
 Frequencies --   1359.0605              1379.8384              1395.0413
 Red. masses --      2.0709                 1.3982                 1.3988
 Frc consts  --      2.2537                 1.5685                 1.6040
 IR Inten    --      3.5815                67.0325                98.6538

                     70                     71                     72
                      A                      A                      A
 Frequencies --   1398.4879              1406.4060              1441.0754
 Red. masses --      1.8926                 1.7364                 1.4507
 Frc consts  --      2.1809                 2.0236                 1.7750
 IR Inten    --      9.4563                43.3964               141.8662

                     73                     74                     75
                      A                      A                      A
 Frequencies --   1443.0402              1448.8728              1471.7043
 Red. masses --      1.3534                 2.1881                 2.2162
 Frc consts  --      1.6605                 2.7063                 2.8281
 IR Inten    --     28.0390               221.7307                23.5239

                     76                     77                     78
                      A                      A                      A
 Frequencies --   1482.2192              1488.6807              1502.0909
 Red. masses --      1.3868                 1.5336                 1.4801
 Frc consts  --      1.7951                 2.0025                 1.9676
 IR Inten    --     55.5886                30.1609                 3.6629

                     79                     80                     81
                      A                      A                      A
 Frequencies --   1514.9273              1515.6792              1516.0579
 Red. masses --      1.0962                 1.0606                 1.0762
 Frc consts  --      1.4822                 1.4355                 1.4574
 IR Inten    --      1.3190                 1.4517                 6.2582

                     82                     83                     84
                      A                      A                      A
 Frequencies --   1521.4339              1526.3038              1528.2213
 Red. masses --      1.0575                 1.0933                 1.0675
 Frc consts  --      1.4422                 1.5007                 1.4689
 IR Inten    --      0.8849                 2.8932                 4.7140

                     85                     86                     87
                      A                      A                      A
 Frequencies --   1531.6445              1534.8915              1543.3477
 Red. masses --      1.1170                 1.0544                 2.6299
 Frc consts  --      1.5438                 1.4636                 3.6907
 IR Inten    --      2.1126                 5.8464               182.4766

                     88                     89                     90
                      A                      A                      A
 Frequencies --   1571.8035              1647.5099              1678.8503
 Red. masses --      1.0828                 8.7322                 7.3351
 Frc consts  --      1.5761                13.9646                12.1809
 IR Inten    --      0.5890                 5.1940                 9.3815

                     91                     92                     93
                      A                      A                      A
 Frequencies --   1802.0615              3014.2219              3022.6415
 Red. masses --      6.1722                 1.0752                 1.0750
 Frc consts  --     11.8095                 5.7558                 5.7868
 IR Inten    --    486.5603                52.7931                42.8034

                     94                     95                     96
                      A                      A                      A
 Frequencies --   3031.3373              3036.2769              3038.2011
 Red. masses --      1.0758                 1.0337                 1.0785
 Frc consts  --      5.8244                 5.6146                 5.8657
 IR Inten    --     25.6288                54.4894                44.7172

                     97                     98                     99
                      A                      A                      A
 Frequencies --   3050.0250              3057.7903              3099.4167
 Red. masses --      1.0355                 1.0356                 1.0956
 Frc consts  --      5.6757                 5.7049                 6.2009
 IR Inten    --     24.0897                21.8682                21.1219

                    100                    101                    102
                      A                      A                      A
 Frequencies --   3108.5318              3113.9535              3126.7160
 Red. masses --      1.1031                 1.1015                 1.1027
 Frc consts  --      6.2804                 6.2928                 6.3517
 IR Inten    --     32.1578                33.1518                36.4406

                    103                    104                    105
                      A                      A                      A
 Frequencies --   3128.2049              3138.3223              3149.3329
 Red. masses --      1.1024                 1.1032                 1.1042
 Frc consts  --      6.3559                 6.4018                 6.4526
 IR Inten    --     27.3053                22.9917                32.5006

                    106                    107                    108
                      A                      A                      A
 Frequencies --   3163.0343              3170.9667              3200.0522
 Red. masses --      1.0886                 1.0893                 1.0911
 Frc consts  --      6.4167                 6.4535                 6.5829
 IR Inten    --      6.2095                 2.0771                10.1772

                    109                    110                    111
                      A                      A                      A
 Frequencies --   3208.5427              3563.0038              3583.9201
 Red. masses --      1.0912                 1.0749                 1.0750
 Frc consts  --      6.6184                 8.0396                 8.1356
 IR Inten    --      4.3757                14.4105                18.5064

 - Thermochemistry -
 -------------------
 Temperature   298.150 Kelvin.  Pressure   1.00000 Atm.
 Atom     1 has atomic number  6 and mass  12.00000

 Molecular mass:   264.14739 amu.
 Principal axes and moments of inertia in atomic units:
                           1         2         3
     Eigenvalues --  2164.86365********************
           X            0.99992   0.01031   0.00776
           Y           -0.01002   0.99931  -0.03573
           Z           -0.00813   0.03565   0.99933
 This molecule is an asymmetric top.
 Rotational symmetry number  1.
 Warning -- assumption of classical behavior for rotation
           may cause significant error
 Rotational temperatures (Kelvin)      0.04001     0.00815     0.00752
 Rotational constants (GHZ):           0.83365     0.16981     0.15676
 Zero-point vibrational energy     873965.7 (Joules/Mol)
                                  208.88281 (Kcal/Mol)
 Warning -- explicit consideration of  28 degrees of freedom as
           vibrations may cause significant error
 Vibrational temperatures:     36.51    60.60    67.13    78.52    96.26
          (Kelvin)            141.41   166.50   183.06   224.23   237.69
                              242.41   258.18   318.00   335.74   356.01
                              392.05   420.30   432.46   477.39   528.91
                              537.63   567.63   624.19   680.53   702.68
                              749.01   800.91   823.05   895.48   943.90
                              982.55  1002.50  1048.93  1090.21  1108.37
                             1146.03  1160.75  1185.79  1201.62  1256.62
                             1263.13  1281.89  1285.72  1334.72  1358.66
                             1388.97  1444.74  1489.27  1541.93  1576.72
                             1601.08  1614.77  1624.74  1646.25  1667.66
                             1705.35  1707.39  1714.84  1750.43  1761.43
                             1778.72  1804.15  1824.36  1866.23  1899.60
                             1915.05  1955.38  1985.28  2007.15  2012.11
                             2023.50  2073.39  2076.21  2084.60  2117.45
                             2132.58  2141.88  2161.17  2179.64  2180.72
                             2181.27  2189.00  2196.01  2198.77  2203.69
                             2208.37  2220.53  2261.47  2370.40  2415.49
                             2592.76  4336.79  4348.91  4361.42  4368.53
                             4371.29  4388.31  4399.48  4459.37  4472.48
                             4480.28  4498.65  4500.79  4515.35  4531.19
                             4550.90  4562.31  4604.16  4616.38  5126.37
                             5156.46

 Zero-point correction=                           0.332876 (Hartree/Particle)
 Thermal correction to Energy=                    0.352004
 Thermal correction to Enthalpy=                  0.352948
 Thermal correction to Gibbs Free Energy=         0.284201
 Sum of electronic and zero-point Energies=           -880.452975
 Sum of electronic and thermal Energies=              -880.433847
 Sum of electronic and thermal Enthalpies=            -880.432903
 Sum of electronic and thermal Free Energies=         -880.501650

                     E (Thermal)             CV                S
                      KCal/Mol        Cal/Mol-Kelvin    Cal/Mol-Kelvin
 Total                  220.886             71.372            144.690
 Electronic               0.000              0.000              0.000
 Translational            0.889              2.981             42.613
 Rotational               0.889              2.981             33.937
 Vibrational            219.108             65.411             68.140
 Vibration     1          0.593              1.985              6.161
 Vibration     2          0.595              1.980              5.157
 Vibration     3          0.595              1.979              4.954
 Vibration     4          0.596              1.976              4.644
 Vibration     5          0.598              1.970              4.243
 Vibration     6          0.604              1.950              3.488
 Vibration     7          0.608              1.936              3.171
 Vibration     8          0.611              1.926              2.987
 Vibration     9          0.620              1.896              2.600
 Vibration    10          0.624              1.885              2.489
 Vibration    11          0.625              1.881              2.452
 Vibration    12          0.629              1.868              2.334
 Vibration    13          0.648              1.809              1.951
 Vibration    14          0.654              1.790              1.853
 Vibration    15          0.661              1.767              1.749
 Vibration    16          0.675              1.724              1.580
 Vibration    17          0.687              1.688              1.462
 Vibration    18          0.693              1.673              1.414
 Vibration    19          0.714              1.612              1.251
 Vibration    20          0.740              1.539              1.090
 Vibration    21          0.745              1.526              1.065
 Vibration    22          0.761              1.482              0.983
 Vibration    23          0.795              1.397              0.846
 Vibration    24          0.830              1.310              0.729
 Vibration    25          0.844              1.276              0.688
 Vibration    26          0.876              1.204              0.609
 Vibration    27          0.912              1.125              0.531
 Vibration    28          0.928              1.092              0.500

 Optimization completed.
    -- Stationary point found.
 Normal termination of Gaussian 16 at Sun Dec 13 16:37:21 2020.

 ----------------------------------------------------------------------
 # B3LYP/6-311++G(d,p) empiricaldispersion=gd3bj scf=xqc pop=npa geom=c
 heck
 ----------------------------------------------------------------------

 ---------------------------------------
 CID_131960959_JID_9121_Energie_neutraal
 ---------------------------------------
 Structure from the checkpoint file:  "JID_9121.chk"
 Charge =  0 Multiplicity = 1

 SCF Done:  E(RB3LYP) =  -881.036400778     A.U. after   15 cycles
 Normal termination of Gaussian 16 at Sun Dec 13 16:46:25 2020.

 ----------------------------------------------------------------------
 # B3LYP/6-311++G(d,p) empiricaldispersion=gd3bj scf=xqc pop=npa geom=c
 heck
 ----------------------------------------------------------------------

 -------------------------------------
 CID_131960959_JID_9121_Energie_kation
 -------------------------------------
 Structure from the checkpoint file:  "JID_9121.chk"
 Charge =  1 Multiplicity = 2

 SCF Done:  E(UB3LYP) =  -880.757811239     A.U. after   24 cycles
 Normal termination of Gaussian 16 at Sun Dec 13 17:07:00 2020.
 Gaussian 16:  ES64L-G16RevA.03 25-Dec-2016

 ----------------------------------------------------------------------
 # B3LYP/6-311++G(d,p) empiricaldispersion=gd3bj scf=xqc pop=npa geom=c
 heck
 ----------------------------------------------------------------------

 ------------------------------------
 CID_131960959_JID_9121_Energie_anion
 ------------------------------------
 Structure from the checkpoint file:  "JID_9121.chk"
 Charge = -1 Multiplicity = 2

                         Standard orientation:
 ---------------------------------------------------------------------
 Center     Atomic      Atomic             Coordinates (Angstroms)
 Number     Number       Type             X           Y           Z
 ---------------------------------------------------------------------
      1          6           0        4.416839    1.033727    1.982072
      2          6           0        4.095762    0.751366    0.516117
      3          7           0        4.208039   -0.676697    0.202932
      4          6           0        3.385325   -1.364909   -0.671346
      5          8           0        3.815052   -2.234292   -1.421592
      6          7           0        2.031388   -1.018596   -0.651971
      7          6           0        1.285526   -0.866757    0.608689
      8          6           0       -0.095141   -0.317280    0.347681
      9          6           0       -0.262698    1.019100   -0.050592
     10          6           0       -1.535858    1.544939   -0.301320
     11          6           0       -2.643296    0.719746   -0.169091
     12          6           0       -4.123981    0.977712   -0.302540
     13          6           0       -4.704565   -0.459037   -0.234010
     14          8           0       -3.649548   -1.296778    0.328666
     15          6           0       -2.474834   -0.609182    0.223455
     16          6           0       -1.220196   -1.141994    0.488979
     17          6           0       -5.950860   -0.615733    0.613965
     18          8           0        0.847895    1.838836   -0.146602
     19          6           0        1.231098    2.148655   -1.488387
     20          1           0        3.720683    0.503008    2.640193
     21          1           0        4.344453    2.106751    2.191599
     22          1           0        5.432028    0.706758    2.235685
     23          1           0        3.084800    1.082324    0.279890
     24          1           0        4.774874    1.324988   -0.132376
     25          1           0        5.159333   -1.008544    0.094791
     26          1           0        1.545563   -1.621906   -1.307651
     27          1           0        1.201604   -1.829255    1.133596
     28          1           0        1.835446   -0.191652    1.262777
     29          1           0       -1.634675    2.590156   -0.579849
     30          1           0       -4.496350    1.593572    0.528088
     31          1           0       -4.402514    1.481195   -1.233728
     32          1           0       -4.885035   -0.833364   -1.250527
     33          1           0       -1.113288   -2.177060    0.798071
     34          1           0       -6.775243   -0.034526    0.185935
     35          1           0       -6.256803   -1.665031    0.664445
     36          1           0       -5.764120   -0.258851    1.632346
     37          1           0        1.521061    1.237744   -2.023049
     38          1           0        0.418571    2.653531   -2.026262
     39          1           0        2.087702    2.822972   -1.416520
 ---------------------------------------------------------------------

 SCF Done:  E(UB3LYP) =  -881.025243666     A.U. after   33 cycles
 SCF Done:  E(UB3LYP) =  -881.025243666     a.u. after    1 cycles

 The electronic state is 2-A.
 Alpha  occ. eigenvalues --  -19.05698 -19.05513 -18.99812 -14.24155 -14.24105
 Alpha  occ. eigenvalues --  -10.20616 -10.14289 -10.13534 -10.13533 -10.13526
 Alpha  occ. eigenvalues --  -10.12618 -10.11889 -10.09330 -10.09089 -10.08631
 Alpha  occ. eigenvalues --  -10.08574 -10.08422 -10.07787 -10.07743  -0.97871
 Alpha  occ. eigenvalues --   -0.96943  -0.96148  -0.84420  -0.81850  -0.76699
 Alpha  occ. eigenvalues --   -0.71448  -0.68692  -0.66906  -0.65841  -0.62775
 Alpha  occ. eigenvalues --   -0.60968  -0.57202  -0.54761  -0.52462  -0.51768
 Alpha  occ. eigenvalues --   -0.51398  -0.48639  -0.43799  -0.42490  -0.42230
 Alpha  occ. eigenvalues --   -0.41992  -0.40433  -0.38882  -0.38099  -0.37617
 Alpha  occ. eigenvalues --   -0.36727  -0.35948  -0.35584  -0.34673  -0.34221
 Alpha  occ. eigenvalues --   -0.33183  -0.33016  -0.31489  -0.31414  -0.31008
 Alpha  occ. eigenvalues --   -0.29771  -0.29535  -0.29051  -0.28396  -0.28044
 Alpha  occ. eigenvalues --   -0.26716  -0.26452  -0.26404  -0.24763  -0.22019
 Alpha  occ. eigenvalues --   -0.19794  -0.19451  -0.17268  -0.16740  -0.16218
 Alpha  occ. eigenvalues --   -0.12273   0.03946
 Alpha virt. eigenvalues --    0.04845   0.06089   0.06842   0.07471   0.07667
 Alpha virt. eigenvalues --    0.07862   0.08242   0.08655   0.09082   0.09417
 Alpha virt. eigenvalues --    0.09976   0.10424   0.10606   0.11055   0.11262

  Beta  occ. eigenvalues --  -19.05697 -19.05513 -18.99807 -14.24143 -14.24094
  Beta  occ. eigenvalues --  -10.20609 -10.14273 -10.13553 -10.13552 -10.13523
  Beta  occ. eigenvalues --  -10.12618 -10.11874 -10.09272 -10.09075 -10.08573
  Beta  occ. eigenvalues --  -10.08504 -10.08372 -10.07756 -10.07708  -0.97861
  Beta  occ. eigenvalues --   -0.96944  -0.96136  -0.84400  -0.81824  -0.76608
  Beta  occ. eigenvalues --   -0.71359  -0.68618  -0.66865  -0.65780  -0.62714
  Beta  occ. eigenvalues --   -0.60931  -0.57152  -0.54696  -0.52372  -0.51734
  Beta  occ. eigenvalues --   -0.51331  -0.48591  -0.43759  -0.42459  -0.42200
  Beta  occ. eigenvalues --   -0.41937  -0.40394  -0.38815  -0.38071  -0.37601
  Beta  occ. eigenvalues --   -0.36694  -0.35911  -0.35545  -0.34633  -0.34191
  Beta  occ. eigenvalues --   -0.33151  -0.32946  -0.31450  -0.31353  -0.30945
  Beta  occ. eigenvalues --   -0.29733  -0.29491  -0.28999  -0.28346  -0.27948
  Beta  occ. eigenvalues --   -0.26687  -0.26404  -0.26366  -0.24731  -0.21924
  Beta  occ. eigenvalues --   -0.19767  -0.19421  -0.17202  -0.16550  -0.16025
  Beta  occ. eigenvalues --   -0.12094
  Beta virt. eigenvalues --    0.05874   0.06314   0.06663   0.07041   0.07745
  Beta virt. eigenvalues --    0.07857   0.08230   0.08654   0.08861   0.09414
  Beta virt. eigenvalues --    0.09827   0.09964   0.10589   0.10708   0.11249

 Mulliken charges and spin densities:
               1          2
     1  C    0.677064  -1.199295
     2  C   -0.701189   0.442992
     3  N   -0.175081  -0.038920
     4  C    0.112423   0.052802
     5  O   -0.352168  -0.001555
     6  N   -0.289782   0.011703
     7  C   -0.029309  -0.213653
     8  C    0.917209  -0.002934
     9  C   -0.578124   0.267935
    10  C   -0.630818   0.335063
    11  C    0.530771   1.515330
    12  C    1.010367  -2.225735
    13  C   -0.879550   1.472377
    14  O   -0.085577   0.021791
    15  C   -0.606559  -0.939972
    16  C   -0.660180  -0.225993
    17  C    0.979893  -1.560984
    18  O   -0.054140  -0.000119
    19  C   -0.354181   0.004493
    20  H    0.001690   0.141019
    21  H   -0.137444   0.273090
    22  H   -0.464639   0.612678
    23  H    0.879266  -0.691385
    24  H   -0.391161   0.577663
    25  H    0.150360   0.155856
    26  H    0.276439  -0.003068
    27  H    0.189029   0.030359
    28  H    0.043962   0.049741
    29  H    0.153514   0.008857
    30  H    0.167925  -0.006881
    31  H   -0.465820   0.657228
    32  H   -0.292368   0.503222
    33  H    0.161232   0.002122
    34  H   -0.388139   0.542380
    35  H   -0.104866   0.252210
    36  H    0.034099   0.118356
    37  H    0.166515  -0.002614
    38  H    0.100443   0.012747
    39  H    0.088894   0.051093
 Sum of Mulliken charges =  -1.00000   1.00000

 Dipole moment (field-independent basis, Debye):
    X=              1.0749    Y=              0.9456    Z=              1.2268  Tot=              1.8854
 Quadrupole moment (field-independent basis, Debye-Ang):
   XX=           -277.1045   YY=           -147.8886   ZZ=           -147.2432
   XY=              1.9877   XZ=            -18.5022   YZ=             -6.9396

 Summary of Natural Population Analysis:

                                       Natural Population
                Natural  -----------------------------------------------
    Atom  No    Charge         Core      Valence    Rydberg      Total
 -----------------------------------------------------------------------
      C    1   -0.28687      0.99967     2.28162    0.00558     3.28687
      C    2   -0.09984      0.99961     2.08924    0.01098     3.09984
      N    3   -0.33406      0.99967     2.82448    0.00990     3.83406
      C    4    0.40879      0.99970     1.56769    0.02382     2.59121
      O    5   -0.33589      0.99987     3.33076    0.00525     4.33589
      N    6   -0.33763      0.99968     2.82928    0.00868     3.83763
      C    7   -0.09331      0.99958     2.08267    0.01106     3.09331
      C    8   -0.03070      0.99947     2.02184    0.00939     3.03070
      C    9    0.14426      0.99932     1.84349    0.01293     2.85574
      C   10   -0.10457      0.99947     2.09593    0.00916     3.10457
      C   11   -0.02473      0.99947     2.01694    0.00832     3.02473
      C   12   -0.20499      0.99960     2.19672    0.00867     3.20499
      C   13    0.06867      0.99957     1.91754    0.01421     2.93133
      O   14   -0.28061      0.99987     3.27257    0.00817     4.28061
      C   15    0.15670      0.99933     1.83027    0.01370     2.84330
      C   16   -0.11266      0.99948     2.10437    0.00881     3.11266
      C   17   -0.29175      0.99964     2.28583    0.00629     3.29175
      O   18   -0.29488      0.99986     3.28616    0.00886     4.29488
      C   19   -0.09922      0.99960     2.09152    0.00811     3.09922
      H   20    0.09747      0.00000     0.40148    0.00105     0.40253
      H   21    0.10073      0.00000     0.39831    0.00096     0.39927
      H   22    0.09947      0.00000     0.39853    0.00200     0.40053
      H   23    0.10816      0.00000     0.38908    0.00276     0.39184
      H   24    0.08894      0.00000     0.40948    0.00158     0.41106
      H   25    0.19314      0.00000     0.30464    0.00222     0.30686
      H   26    0.19092      0.00000     0.30766    0.00141     0.30908
      H   27    0.09010      0.00000     0.40881    0.00109     0.40990
      H   28    0.10744      0.00000     0.39122    0.00134     0.39256
      H   29    0.10336      0.00000     0.39573    0.00091     0.39664
      H   30    0.10136      0.00000     0.39756    0.00108     0.39864
      H   31    0.11459      0.00000     0.38221    0.00320     0.38541
      H   32    0.08694      0.00000     0.41084    0.00223     0.41306
      H   33    0.10327      0.00000     0.39560    0.00113     0.39673
      H   34    0.10619      0.00000     0.39199    0.00182     0.39381
      H   35    0.10378      0.00000     0.39518    0.00104     0.39622
      H   36    0.09824      0.00000     0.40075    0.00101     0.40176
      H   37    0.08997      0.00000     0.40912    0.00091     0.41003
      H   38    0.08121      0.00000     0.41784    0.00095     0.41879
      H   39    0.08799      0.00000     0.41108    0.00093     0.41201
 =======================================================================
   * Total *    0.00000     18.99246    51.78604    0.22150    71.00000

 Normal termination of Gaussian 16 at Sun Dec 13 17:36:26 2020.
