 Gaussian 16, Revision A.03,

 -----------------------------------------------------------
 # opt freq B3LYP/6-31G(d) empiricaldispersion=gd3bj scf=xqc
 -----------------------------------------------------------

 ------------------------------
 CID_88581351_JID_1188_neutraal
 ------------------------------
 Symbolic Z-matrix:
 Charge =  0 Multiplicity = 1

 SCF Done:  E(RB3LYP) =  -1197.36769723     A.U. after   15 cycles
 SCF Done:  E(RB3LYP) =  -1197.37151133     A.U. after   13 cycles
 SCF Done:  E(RB3LYP) =  -1197.37184250     A.U. after   12 cycles
 SCF Done:  E(RB3LYP) =  -1197.37183108     A.U. after   11 cycles
 SCF Done:  E(RB3LYP) =  -1197.37186945     A.U. after   10 cycles
 SCF Done:  E(RB3LYP) =  -1197.37187917     A.U. after    9 cycles
 SCF Done:  E(RB3LYP) =  -1197.37187951     A.U. after    8 cycles
 Optimization completed.
    -- Stationary point found.
 Normal termination of Gaussian 16 at Tue Dec  8 19:12:48 2020.

 --------------------------------------------------------------------
 #N Geom=AllCheck Guess=TCheck SCRF=Check GenChk RB3LYP/6-31G(d) Freq
 --------------------------------------------------------------------

 Structure from the checkpoint file:  "JID_1188.chk"
 ------------------------------
 CID_88581351_JID_1188_neutraal
 ------------------------------
 Charge =  0 Multiplicity = 1

 SCF Done:  E(RB3LYP) =  -1197.37187951     A.U. after    1 cycles

  Exact polarizability: 200.971 -12.195 115.016  -2.482   1.188  60.445
 Approx polarizability: 347.982 -33.258 192.089  -6.522   2.060  98.126

                      1                      2                      3
                      A                      A                      A
 Frequencies --     62.6245               115.2029               161.8707
 Red. masses --      4.8542                11.1339                 5.7554
 Frc consts  --      0.0112                 0.0871                 0.0889
 IR Inten    --      1.4066                 4.3239                 0.6745

                      4                      5                      6
                      A                      A                      A
 Frequencies --    187.9835               217.8248               275.2185
 Red. masses --      2.3195                 9.8237                 5.0226
 Frc consts  --      0.0483                 0.2746                 0.2241
 IR Inten    --      1.2629                 0.8184                15.0408

                      7                      8                      9
                      A                      A                      A
 Frequencies --    336.1031               374.7453               401.8608
 Red. masses --      4.6065                 7.5711                10.8137
 Frc consts  --      0.3066                 0.6264                 1.0289
 IR Inten    --      1.1609                 7.2658                13.0088

                     10                     11                     12
                      A                      A                      A
 Frequencies --    514.8368               533.3066               546.4873
 Red. masses --      4.3820                 4.7855                 7.7421
 Frc consts  --      0.6843                 0.8019                 1.3623
 IR Inten    --      0.8151                 2.4973                 5.3312

                     13                     14                     15
                      A                      A                      A
 Frequencies --    598.7799               635.0696               670.6763
 Red. masses --      5.2490                 5.3371                 2.7975
 Frc consts  --      1.1088                 1.2682                 0.7414
 IR Inten    --      6.8799                 1.0505                 5.1694

                     16                     17                     18
                      A                      A                      A
 Frequencies --    677.6509               741.9356               816.6099
 Red. masses --      4.4458                 1.3280                 5.3152
 Frc consts  --      1.2029                 0.4307                 2.0883
 IR Inten    --      3.2398                91.5233                55.9075

                     19                     20                     21
                      A                      A                      A
 Frequencies --    852.0926               877.2729               890.9016
 Red. masses --      2.3005                 1.5685                 1.9403
 Frc consts  --      0.9841                 0.7112                 0.9074
 IR Inten    --      7.4122                19.1651                19.8309

                     22                     23                     24
                      A                      A                      A
 Frequencies --    978.1892               996.6767              1017.9682
 Red. masses --      2.6792                 3.0108                 1.9132
 Frc consts  --      1.5104                 1.7622                 1.1681
 IR Inten    --      2.4251                 1.5652                14.3890

                     25                     26                     27
                      A                      A                      A
 Frequencies --   1061.2456              1094.1029              1157.2020
 Red. masses --      1.8960                 1.8011                 2.4166
 Frc consts  --      1.2581                 1.2703                 1.9067
 IR Inten    --     38.4464                37.2445                23.3349

                     28                     29                     30
                      A                      A                      A
 Frequencies --   1179.3664              1206.2340              1266.4286
 Red. masses --      2.2533                 1.2951                 1.9534
 Frc consts  --      1.8466                 1.1103                 1.8459
 IR Inten    --     76.8798                 3.0344               102.4578

                     31                     32                     33
                      A                      A                      A
 Frequencies --   1296.6474              1305.6154              1313.4141
 Red. masses --      1.3650                 1.3895                 1.9537
 Frc consts  --      1.3521                 1.3955                 1.9856
 IR Inten    --     12.0522                74.3997                37.6316

                     34                     35                     36
                      A                      A                      A
 Frequencies --   1348.9150              1367.3593              1396.6531
 Red. masses --      1.9574                 1.7296                 3.2287
 Frc consts  --      2.0984                 1.9053                 3.7107
 IR Inten    --     27.3413                40.9483               105.4332

                     37                     38                     39
                      A                      A                      A
 Frequencies --   1482.5420              1513.0676              1525.3392
 Red. masses --      1.8949                 1.0818                 1.1023
 Frc consts  --      2.4539                 1.4592                 1.5111
 IR Inten    --    127.6203                 7.2075                 0.2228

                     40                     41                     42
                      A                      A                      A
 Frequencies --   1646.7520              1814.6030              2987.0778
 Red. masses --      7.7433                10.2716                 1.0803
 Frc consts  --     12.3718                19.9275                 5.6792
 IR Inten    --    435.8678               389.2908                 2.6177

                     43                     44                     45
                      A                      A                      A
 Frequencies --   3087.0922              3091.3306              3143.8924
 Red. masses --      1.0655                 1.0599                 1.1019
 Frc consts  --      5.9828                 5.9678                 6.4167
 IR Inten    --     12.7688                15.4698                 7.8756

                     46                     47                     48
                      A                      A                      A
 Frequencies --   3156.7790              3243.0855              3574.5418
 Red. masses --      1.1069                 1.0923                 1.0771
 Frc consts  --      6.4992                 6.7688                 8.1088
 IR Inten    --      7.8585                 1.2771                52.6975

 - Thermochemistry -
 -------------------
 Temperature   298.150 Kelvin.  Pressure   1.00000 Atm.
 Atom     1 has atomic number  6 and mass  12.00000

 Molecular mass:   184.99691 amu.
 Principal axes and moments of inertia in atomic units:
                           1         2         3
     Eigenvalues --  1262.593142956.304614152.92658
           X            0.99993  -0.01159  -0.00062
           Y            0.01159   0.99993   0.00060
           Z            0.00061  -0.00061   1.00000
 This molecule is an asymmetric top.
 Rotational symmetry number  1.
 Warning -- assumption of classical behavior for rotation
           may cause significant error
 Rotational temperatures (Kelvin)      0.06860     0.02930     0.02086
 Rotational constants (GHZ):           1.42939     0.61047     0.43457
 Zero-point vibrational energy     351350.3 (Joules/Mol)
                                   83.97473 (Kcal/Mol)
 Warning -- explicit consideration of  13 degrees of freedom as
           vibrations may cause significant error
 Vibrational temperatures:     90.10   165.75   232.90   270.47   313.40
          (Kelvin)            395.98   483.58   539.17   578.19   740.74
                              767.31   786.27   861.51   913.72   964.95
                              974.99  1067.48  1174.92  1225.97  1262.20
                             1281.81  1407.40  1434.00  1464.63  1526.90
                             1574.17  1664.96  1696.85  1735.50  1822.11
                             1865.59  1878.49  1889.71  1940.79  1967.33
                             2009.47  2133.05  2176.97  2194.62  2369.31
                             2610.81  4297.74  4441.64  4447.74  4523.36
                             4541.90  4666.08  5142.97

 Zero-point correction=                           0.133822 (Hartree/Particle)
 Thermal correction to Energy=                    0.143192
 Thermal correction to Enthalpy=                  0.144136
 Thermal correction to Gibbs Free Energy=         0.098167
 Sum of electronic and zero-point Energies=          -1197.238057
 Sum of electronic and thermal Energies=             -1197.228688
 Sum of electronic and thermal Enthalpies=           -1197.227743
 Sum of electronic and thermal Free Energies=        -1197.273713

                     E (Thermal)             CV                S
                      KCal/Mol        Cal/Mol-Kelvin    Cal/Mol-Kelvin
 Total                   89.854             35.660             96.751
 Electronic               0.000              0.000              0.000
 Translational            0.889              2.981             41.552
 Rotational               0.889              2.981             31.117
 Vibrational             88.077             29.698             24.082
 Vibration     1          0.597              1.972              4.373
 Vibration     2          0.608              1.937              3.179
 Vibration     3          0.622              1.889              2.528
 Vibration     4          0.633              1.856              2.248
 Vibration     5          0.646              1.814              1.977
 Vibration     6          0.677              1.719              1.563
 Vibration     7          0.717              1.603              1.231
 Vibration     8          0.746              1.524              1.060
 Vibration     9          0.767              1.466              0.956
 Vibration    10          0.870              1.217              0.622
 Vibration    11          0.888              1.176              0.580
 Vibration    12          0.902              1.147              0.551
 Vibration    13          0.957              1.034              0.452

                           ! Non-Optimized Parameters !
 Normal termination of Gaussian 16 at Tue Dec  8 19:16:34 2020.

 ----------------------------------------------------------------------
 # B3LYP/6-311++G(d,p) empiricaldispersion=gd3bj scf=xqc pop=npa geom=c
 heck
 ----------------------------------------------------------------------

 --------------------------------------
 CID_88581351_JID_1188_Energie_neutraal
 --------------------------------------
 Structure from the checkpoint file:  "JID_1188.chk"
 Charge =  0 Multiplicity = 1

 SCF Done:  E(RB3LYP) =  -1197.53579538     A.U. after   16 cycles
 Normal termination of Gaussian 16 at Tue Dec  8 19:18:21 2020.

 ----------------------------------------------------------------------
 # B3LYP/6-311++G(d,p) empiricaldispersion=gd3bj scf=xqc pop=npa geom=c
 heck
 ----------------------------------------------------------------------

 ------------------------------------
 CID_88581351_JID_1188_Energie_kation
 ------------------------------------
 Structure from the checkpoint file:  "JID_1188.chk"
 Charge =  1 Multiplicity = 2

 SCF Done:  E(UB3LYP) =  -1197.23357007     A.U. after   26 cycles
 Normal termination of Gaussian 16 at Tue Dec  8 19:22:27 2020.
 Gaussian 16:  ES64L-G16RevA.03 25-Dec-2016

 ----------------------------------------------------------------------
 # B3LYP/6-311++G(d,p) empiricaldispersion=gd3bj scf=xqc pop=npa geom=c
 heck
 ----------------------------------------------------------------------

 -----------------------------------
 CID_88581351_JID_1188_Energie_anion
 -----------------------------------
 Structure from the checkpoint file:  "JID_1188.chk"
 Charge = -1 Multiplicity = 2

                         Standard orientation:
 ---------------------------------------------------------------------
 Center     Atomic      Atomic             Coordinates (Angstroms)
 Number     Number       Type             X           Y           Z
 ---------------------------------------------------------------------
      1          6           0       -2.196123    1.058171   -0.262634
      2          6           0       -3.116981   -0.125467    0.052080
      3         16           0       -2.056641   -1.642214   -0.071906
      4          6           0       -0.570453   -0.729221    0.108751
      5          6           0        0.688144   -1.207648   -0.000654
      6          6           0        1.824276   -0.311321    0.023175
      7         16           0        3.401202   -0.827531   -0.049220
      8          7           0        1.541191    1.049602    0.051417
      9          6           0        0.291073    1.649919    0.053107
     10          8           0        0.148819    2.842738   -0.138325
     11          6           0       -0.856788    0.721337    0.400302
     12          1           0       -2.054014    1.153327   -1.343982
     13          1           0       -2.605492    2.000132    0.109528
     14          1           0       -3.943422   -0.225722   -0.653932
     15          1           0       -3.523547   -0.064396    1.065693
     16          1           0        0.903693   -2.257110   -0.157096
     17          1           0        2.331069    1.675124   -0.074002
     18          1           0       -0.979033    0.810822    1.493723
 ---------------------------------------------------------------------

 SCF Done:  E(UB3LYP) =  -1197.57363626     A.U. after   21 cycles

 The electronic state is 2-A.
 Alpha  occ. eigenvalues --  -88.73295 -88.63098 -18.96834 -14.21516 -10.14618
 Alpha  occ. eigenvalues --  -10.10161 -10.07819 -10.07393 -10.07310 -10.06069
 Alpha  occ. eigenvalues --  -10.02888  -7.81932  -7.71891  -5.78296  -5.77939
 Alpha  occ. eigenvalues --   -5.77377  -5.68227  -5.67865  -5.67455  -0.92194
 Alpha  occ. eigenvalues --   -0.81143  -0.74616  -0.65490  -0.63539  -0.61257
 Alpha  occ. eigenvalues --   -0.53905  -0.50809  -0.46331  -0.45144  -0.40438
 Alpha  occ. eigenvalues --   -0.38406  -0.36782  -0.33877  -0.31607  -0.30552
 Alpha  occ. eigenvalues --   -0.28984  -0.27971  -0.26221  -0.25139  -0.23286
 Alpha  occ. eigenvalues --   -0.22413  -0.21097  -0.20917  -0.17525  -0.13884
 Alpha  occ. eigenvalues --   -0.11229  -0.08119  -0.05988   0.02181
 Alpha virt. eigenvalues --    0.07467   0.09626   0.10184   0.10685   0.11839
 Alpha virt. eigenvalues --    0.12435   0.12922   0.13110   0.13729   0.14218
 Alpha virt. eigenvalues --    0.15653   0.15818   0.16619   0.17423   0.17695

  Beta  occ. eigenvalues --  -88.73275 -88.62976 -18.96699 -14.21573 -10.14495
  Beta  occ. eigenvalues --  -10.10155 -10.07446 -10.07276 -10.07254 -10.05535
  Beta  occ. eigenvalues --  -10.03003  -7.81914  -7.71782  -5.78292  -5.77939
  Beta  occ. eigenvalues --   -5.77296  -5.68178  -5.67468  -5.67386  -0.91947
  Beta  occ. eigenvalues --   -0.80872  -0.74334  -0.65091  -0.63336  -0.60666
  Beta  occ. eigenvalues --   -0.53726  -0.50612  -0.45957  -0.44649  -0.40087
  Beta  occ. eigenvalues --   -0.38176  -0.36604  -0.33553  -0.31352  -0.30356
  Beta  occ. eigenvalues --   -0.28593  -0.27591  -0.26001  -0.24739  -0.22985
  Beta  occ. eigenvalues --   -0.21193  -0.20724  -0.20315  -0.16520  -0.13717
  Beta  occ. eigenvalues --   -0.10437  -0.06397  -0.05713
  Beta virt. eigenvalues --    0.07229   0.08663   0.09920   0.10319   0.10672
  Beta virt. eigenvalues --    0.12005   0.12600   0.13055   0.13492   0.13905
  Beta virt. eigenvalues --    0.14361   0.15741   0.15975   0.16657   0.17540

 Mulliken charges and spin densities:
               1          2
     1  C   -0.561154  -0.033152
     2  C   -0.271384  -0.049224
     3  S   -0.725811   0.066644
     4  C   -0.211327   0.289163
     5  C    0.693566  -0.144318
     6  C   -0.174296   0.369834
     7  S   -1.033645   0.258181
     8  N   -0.070769  -0.035503
     9  C   -0.433550   0.079196
    10  O   -0.383239   0.051922
    11  C    0.940327  -0.009256
    12  H    0.187141  -0.001559
    13  H    0.132199   0.028196
    14  H    0.180648  -0.000485
    15  H    0.158556   0.023097
    16  H    0.164112   0.004562
    17  H    0.260277   0.000483
    18  H    0.148350   0.102220
 Sum of Mulliken charges =  -1.00000   1.00000

 Dipole moment (field-independent basis, Debye):
    X=             -8.1884    Y=              0.7560    Z=              0.2942  Tot=              8.2285
 Quadrupole moment (field-independent basis, Debye-Ang):
   XX=           -119.2884   YY=           -106.6183   ZZ=            -87.0710
   XY=              5.1664   XZ=              0.6277   YZ=              0.9837

 Summary of Natural Population Analysis:

                                       Natural Population
                Natural  -----------------------------------------------
    Atom  No    Charge         Core      Valence    Rydberg      Total
 -----------------------------------------------------------------------
      C    1   -0.18450      0.99962     2.17528    0.00961     3.18450
      C    2   -0.24166      0.99961     2.23292    0.00913     3.24166
      S    3    0.12520      4.99953     2.85570    0.01958     7.87480
      C    4    0.03747      0.99944     1.95215    0.01095     2.96253
      C    5   -0.18261      0.99941     2.17196    0.01124     3.18261
      C    6    0.12645      0.99961     1.85750    0.01643     2.87355
      S    7   -0.07714      4.99954     3.06159    0.01601     8.07714
      N    8   -0.32063      0.99962     2.80887    0.01214     3.82063
      C    9    0.37052      0.99965     1.60700    0.02284     2.62948
      O   10   -0.31144      0.99987     3.30556    0.00601     4.31144
      C   11   -0.17142      0.99950     2.15939    0.01252     3.17142
      H   12    0.10126      0.00000     0.39775    0.00099     0.39874
      H   13    0.10488      0.00000     0.39314    0.00198     0.39512
      H   14    0.09971      0.00000     0.39919    0.00110     0.40029
      H   15    0.09434      0.00000     0.40352    0.00215     0.40566
      H   16    0.10724      0.00000     0.39156    0.00120     0.39276
      H   17    0.19973      0.00000     0.29807    0.00219     0.30027
      H   18    0.12261      0.00000     0.37561    0.00178     0.37739
 =======================================================================
   * Total *   -0.00000     18.99540    28.84675    0.15785    48.00000

 Normal termination of Gaussian 16 at Tue Dec  8 19:25:42 2020.
