 Gaussian 16, Revision A.03,

 -----------------------------------------------------------
 # opt freq B3LYP/6-31G(d) empiricaldispersion=gd3bj scf=xqc
 -----------------------------------------------------------

 -------------------------------
 CID_107529896_JID_7314_neutraal
 -------------------------------
 Symbolic Z-matrix:
 Charge =  0 Multiplicity = 1

 SCF Done:  E(RB3LYP) =  -785.917998643     A.U. after   14 cycles
 SCF Done:  E(RB3LYP) =  -785.923696482     A.U. after   12 cycles
 SCF Done:  E(RB3LYP) =  -785.922948433     A.U. after   14 cycles
 SCF Done:  E(RB3LYP) =  -785.924933008     A.U. after   11 cycles
 SCF Done:  E(RB3LYP) =  -785.925913552     A.U. after   12 cycles
 SCF Done:  E(RB3LYP) =  -785.926346608     A.U. after   12 cycles
 SCF Done:  E(RB3LYP) =  -785.926492651     A.U. after   12 cycles
 SCF Done:  E(RB3LYP) =  -785.926564449     A.U. after   11 cycles
 SCF Done:  E(RB3LYP) =  -785.926608334     A.U. after   10 cycles
 SCF Done:  E(RB3LYP) =  -785.926627552     A.U. after   10 cycles
 SCF Done:  E(RB3LYP) =  -785.933024056     A.U. after    7 cycles
 SCF Done:  E(RB3LYP) =  -785.933024454     A.U. after    7 cycles
 SCF Done:  E(RB3LYP) =  -785.933024652     A.U. after    7 cycles
 SCF Done:  E(RB3LYP) =  -785.933024692     A.U. after    7 cycles
 SCF Done:  E(RB3LYP) =  -785.933024720     A.U. after    6 cycles
 Optimization completed.
    -- Stationary point found.
 Normal termination of Gaussian 16 at Fri Dec 11 12:56:19 2020.

 --------------------------------------------------------------------
 #N Geom=AllCheck Guess=TCheck SCRF=Check GenChk RB3LYP/6-31G(d) Freq
 --------------------------------------------------------------------

 Structure from the checkpoint file:  "JID_7314.chk"
 -------------------------------
 CID_107529896_JID_7314_neutraal
 -------------------------------
 Charge =  0 Multiplicity = 1

 SCF Done:  E(RB3LYP) =  -785.933024720     A.U. after    1 cycles

  Exact polarizability: 178.172  -2.336 135.247   4.717   0.133 135.742
 Approx polarizability: 212.414  -4.027 203.013   7.120   3.069 205.653

                      1                      2                      3
                      A                      A                      A
 Frequencies --     18.0000                23.3407                40.1770
 Red. masses --      5.0009                 4.6327                 4.5100
 Frc consts  --      0.0010                 0.0015                 0.0043
 IR Inten    --      0.5983                 0.0940                 0.2992

                      4                      5                      6
                      A                      A                      A
 Frequencies --     47.4049                56.4508                73.9598
 Red. masses --      3.3455                 3.2670                 3.4944
 Frc consts  --      0.0044                 0.0061                 0.0113
 IR Inten    --      2.0540                 2.1297                 0.5317

                      7                      8                      9
                      A                      A                      A
 Frequencies --     77.0752               129.5247               150.7227
 Red. masses --      6.3594                 3.1403                 3.8898
 Frc consts  --      0.0223                 0.0310                 0.0521
 IR Inten    --      0.5864                 2.4213                 1.1321

                     10                     11                     12
                      A                      A                      A
 Frequencies --    163.8101               217.1046               225.7742
 Red. masses --      2.5405                 2.0520                 1.0728
 Frc consts  --      0.0402                 0.0570                 0.0322
 IR Inten    --      1.3135                 2.3455                 0.1210

                     13                     14                     15
                      A                      A                      A
 Frequencies --    247.6265               260.3390               261.6469
 Red. masses --      2.4190                 1.6556                 3.1170
 Frc consts  --      0.0874                 0.0661                 0.1257
 IR Inten    --      3.3471                 1.2374                 0.6721

                     16                     17                     18
                      A                      A                      A
 Frequencies --    279.0345               302.2788               331.2018
 Red. masses --      2.6891                 2.6576                 1.9593
 Frc consts  --      0.1234                 0.1431                 0.1266
 IR Inten    --      2.6720                 5.2183                 1.0639

                     19                     20                     21
                      A                      A                      A
 Frequencies --    343.9982               412.9739               430.0382
 Red. masses --      2.7109                 2.8558                 1.9745
 Frc consts  --      0.1890                 0.2870                 0.2151
 IR Inten    --      5.4816                 2.2509                 1.3279

                     22                     23                     24
                      A                      A                      A
 Frequencies --    445.1374               482.4333               487.8999
 Red. masses --      3.3815                 1.5156                 2.2187
 Frc consts  --      0.3948                 0.2078                 0.3112
 IR Inten    --      3.3946                65.3218                38.5983

                     25                     26                     27
                      A                      A                      A
 Frequencies --    506.7914               563.7635               600.5072
 Red. masses --      1.5771                 2.3552                 3.2383
 Frc consts  --      0.2387                 0.4410                 0.6880
 IR Inten    --     16.8982                43.7630                18.6965

                     28                     29                     30
                      A                      A                      A
 Frequencies --    609.1805               617.9679               646.5143
 Red. masses --      3.4127                 3.2708                 1.6095
 Frc consts  --      0.7462                 0.7359                 0.3964
 IR Inten    --     23.4460                10.5990                86.5422

                     31                     32                     33
                      A                      A                      A
 Frequencies --    654.4290               685.6024               784.2890
 Red. masses --      4.2272                 2.5539                 2.7515
 Frc consts  --      1.0667                 0.7073                 0.9972
 IR Inten    --     13.6192                 8.7891                10.9518

                     34                     35                     36
                      A                      A                      A
 Frequencies --    807.6721               827.6427               837.1019
 Red. masses --      2.3685                 2.7303                 2.0303
 Frc consts  --      0.9103                 1.1019                 0.8382
 IR Inten    --     55.4706                 4.3464                 3.3618

                     37                     38                     39
                      A                      A                      A
 Frequencies --    850.6792               887.5979               902.6838
 Red. masses --      2.2578                 1.9339                 1.5300
 Frc consts  --      0.9627                 0.8977                 0.7346
 IR Inten    --     23.3934                30.1166                 3.6620

                     40                     41                     42
                      A                      A                      A
 Frequencies --    916.6855               938.7314               942.2294
 Red. masses --      1.8230                 2.2636                 1.2215
 Frc consts  --      0.9026                 1.1753                 0.6389
 IR Inten    --     23.4072                 8.3515                 2.1410

                     43                     44                     45
                      A                      A                      A
 Frequencies --    962.4104               980.6718               994.1803
 Red. masses --      1.8000                 1.4691                 2.0378
 Frc consts  --      0.9823                 0.8324                 1.1867
 IR Inten    --      2.4659                 0.5800                 1.9168

                     46                     47                     48
                      A                      A                      A
 Frequencies --   1007.0500              1036.9699              1063.4503
 Red. masses --      1.9703                 1.8057                 2.2155
 Frc consts  --      1.1773                 1.1440                 1.4762
 IR Inten    --      4.2262                 3.7344                 4.4070

                     49                     50                     51
                      A                      A                      A
 Frequencies --   1080.3594              1093.7167              1106.2351
 Red. masses --      2.3569                 2.1255                 2.0991
 Frc consts  --      1.6208                 1.4980                 1.5135
 IR Inten    --      5.7164                17.8267                12.9577

                     52                     53                     54
                      A                      A                      A
 Frequencies --   1154.7774              1159.1070              1182.6102
 Red. masses --      1.7993                 2.1486                 1.8104
 Frc consts  --      1.4137                 1.7008                 1.4918
 IR Inten    --     16.9302                 0.9972                 6.2806

                     55                     56                     57
                      A                      A                      A
 Frequencies --   1192.2326              1197.6164              1209.9991
 Red. masses --      2.4904                 2.2757                 1.8280
 Frc consts  --      2.0856                 1.9231                 1.5768
 IR Inten    --     41.2734                 2.4510                13.6657

                     58                     59                     60
                      A                      A                      A
 Frequencies --   1236.3281              1246.5973              1264.8901
 Red. masses --      1.4010                 1.3320                 1.2870
 Frc consts  --      1.2617                 1.2196                 1.2132
 IR Inten    --     12.1339                20.7087                42.8613

                     61                     62                     63
                      A                      A                      A
 Frequencies --   1282.3339              1292.0045              1314.0665
 Red. masses --      1.8601                 1.5310                 1.4389
 Frc consts  --      1.8021                 1.5057                 1.4639
 IR Inten    --    114.3176                61.2340                17.0792

                     64                     65                     66
                      A                      A                      A
 Frequencies --   1330.3269              1344.7792              1349.8908
 Red. masses --      1.3557                 1.5835                 1.3575
 Frc consts  --      1.4136                 1.6872                 1.4574
 IR Inten    --     46.9976                26.1649                 9.1496

                     67                     68                     69
                      A                      A                      A
 Frequencies --   1359.7067              1377.8482              1389.5353
 Red. masses --      1.2141                 1.4052                 1.3881
 Frc consts  --      1.3225                 1.5717                 1.5791
 IR Inten    --     15.8628                16.3186                 5.0109

                     70                     71                     72
                      A                      A                      A
 Frequencies --   1391.4479              1407.6838              1414.6242
 Red. masses --      1.3644                 1.4356                 1.3427
 Frc consts  --      1.5564                 1.6760                 1.5831
 IR Inten    --      0.7202                31.2877                 6.6007

                     73                     74                     75
                      A                      A                      A
 Frequencies --   1430.3299              1433.2636              1439.1707
 Red. masses --      1.3156                 1.4555                 1.6390
 Frc consts  --      1.5858                 1.7616                 2.0001
 IR Inten    --     27.7357                14.9794                58.9939

                     76                     77                     78
                      A                      A                      A
 Frequencies --   1452.7574              1456.3460              1477.0316
 Red. masses --      1.2784                 1.7326                 1.1124
 Frc consts  --      1.5896                 2.1651                 1.4298
 IR Inten    --      0.4003                45.4876                 6.2467

                     79                     80                     81
                      A                      A                      A
 Frequencies --   1498.2612              1500.2934              1502.6570
 Red. masses --      1.0980                 1.0941                 1.7957
 Frc consts  --      1.4522                 1.4509                 2.3889
 IR Inten    --      0.7717                 3.4483                76.3578

                     82                     83                     84
                      A                      A                      A
 Frequencies --   1515.5043              1521.4451              1527.2147
 Red. masses --      1.1146                 1.0529                 1.0819
 Frc consts  --      1.5082                 1.4360                 1.4868
 IR Inten    --      9.7929                 3.7174                11.4191

                     85                     86                     87
                      A                      A                      A
 Frequencies --   1531.9216              1533.4767              1535.7426
 Red. masses --      1.1515                 1.1515                 1.0625
 Frc consts  --      1.5922                 1.5954                 1.4764
 IR Inten    --      5.3312                34.8172                 3.4987

                     88                     89                     90
                      A                      A                      A
 Frequencies --   1543.2878              1545.4629              1760.7776
 Red. masses --      1.0542                 1.1082                 7.0422
 Frc consts  --      1.4793                 1.5595                12.8638
 IR Inten    --     10.5514                51.9464               432.6799

                     91                     92                     93
                      A                      A                      A
 Frequencies --   1833.4613              2963.6116              3020.7429
 Red. masses --     10.2540                 1.0831                 1.0646
 Frc consts  --     20.3088                 5.6048                 5.7233
 IR Inten    --    444.0281                70.1412                73.7836

                     94                     95                     96
                      A                      A                      A
 Frequencies --   3029.2086              3033.1983              3039.0762
 Red. masses --      1.0818                 1.0590                 1.0378
 Frc consts  --      5.8488                 5.7402                 5.6475
 IR Inten    --      6.8450                34.7750                25.8180

                     97                     98                     99
                      A                      A                      A
 Frequencies --   3042.5293              3048.4384              3057.3787
 Red. masses --      1.0401                 1.0641                 1.0648
 Frc consts  --      5.6729                 5.8264                 5.8642
 IR Inten    --     19.0910                14.6899                58.1310

                    100                    101                    102
                      A                      A                      A
 Frequencies --   3060.6930              3067.8853              3068.2764
 Red. masses --      1.0694                 1.1003                 1.0998
 Frc consts  --      5.9026                 6.1013                 6.1001
 IR Inten    --     20.8074                25.9729                41.8412

                    103                    104                    105
                      A                      A                      A
 Frequencies --   3085.0012              3093.2544              3102.6310
 Red. masses --      1.0599                 1.1013                 1.1008
 Frc consts  --      5.9435                 6.2087                 6.2432
 IR Inten    --     18.4171                17.4636                13.4967

                    106                    107                    108
                      A                      A                      A
 Frequencies --   3107.4205              3115.0927              3118.7409
 Red. masses --      1.0983                 1.0995                 1.1018
 Frc consts  --      6.2482                 6.2859                 6.3139
 IR Inten    --     28.3575                46.3386                27.2826

                    109                    110                    111
                      A                      A                      A
 Frequencies --   3123.0881              3128.5246              3139.0000
 Red. masses --      1.1021                 1.1016                 1.1005
 Frc consts  --      6.3333                 6.3524                 6.3891
 IR Inten    --     38.3228                11.1010                15.1978

                    112                    113                    114
                      A                      A                      A
 Frequencies --   3521.6005              3596.4107              3620.5273
 Red. masses --      1.0732                 1.0758                 1.0773
 Frc consts  --      7.8419                 8.1985                 8.3200
 IR Inten    --     20.1329                18.8766                16.3558

 - Thermochemistry -
 -------------------
 Temperature   298.150 Kelvin.  Pressure   1.00000 Atm.
 Atom     1 has atomic number  6 and mass  12.00000

 Molecular mass:   241.17903 amu.
 Principal axes and moments of inertia in atomic units:
                           1         2         3
     Eigenvalues --  1729.86476********************
           X            0.99995   0.00399   0.00889
           Y           -0.00321   0.99632  -0.08569
           Z           -0.00920   0.08566   0.99628
 This molecule is an asymmetric top.
 Rotational symmetry number  1.
 Warning -- assumption of classical behavior for rotation
           may cause significant error
 Rotational temperatures (Kelvin)      0.05007     0.00808     0.00793
 Rotational constants (GHZ):           1.04328     0.16826     0.16522
 Zero-point vibrational energy     937466.8 (Joules/Mol)
                                  224.05994 (Kcal/Mol)
 Warning -- explicit consideration of  29 degrees of freedom as
           vibrations may cause significant error
 Vibrational temperatures:     25.90    33.58    57.81    68.21    81.22
          (Kelvin)            106.41   110.89   186.36   216.86   235.69
                              312.37   324.84   356.28   374.57   376.45
                              401.47   434.91   476.53   494.94   594.18
                              618.73   640.45   694.11   701.98   729.16
                              811.13   864.00   876.47   889.12   930.19
                              941.58   986.43  1128.42  1162.06  1190.79
                             1204.40  1223.94  1277.06  1298.76  1318.91
                             1350.63  1355.66  1384.69  1410.97  1430.40
                             1448.92  1491.97  1530.07  1554.40  1573.61
                             1591.63  1661.47  1667.70  1701.51  1715.36
                             1723.10  1740.92  1778.80  1793.58  1819.89
                             1844.99  1858.91  1890.65  1914.04  1934.84
                             1942.19  1956.31  1982.42  1999.23  2001.98
                             2025.34  2035.33  2057.93  2062.15  2070.65
                             2090.19  2095.36  2125.12  2155.66  2158.59
                             2161.99  2180.47  2189.02  2197.32  2204.09
                             2206.33  2209.59  2220.45  2223.58  2533.37
                             2637.94  4263.98  4346.18  4358.36  4364.10
                             4372.55  4377.52  4386.02  4398.89  4403.65
                             4414.00  4414.57  4438.63  4450.50  4463.99
                             4470.89  4481.92  4487.17  4493.43  4501.25
                             4516.32  5066.80  5174.43  5209.13

 Zero-point correction=                           0.357062 (Hartree/Particle)
 Thermal correction to Energy=                    0.375644
 Thermal correction to Enthalpy=                  0.376588
 Thermal correction to Gibbs Free Energy=         0.307641
 Sum of electronic and zero-point Energies=           -785.575962
 Sum of electronic and thermal Energies=              -785.557381
 Sum of electronic and thermal Enthalpies=            -785.556437
 Sum of electronic and thermal Free Energies=         -785.625384

                     E (Thermal)             CV                S
                      KCal/Mol        Cal/Mol-Kelvin    Cal/Mol-Kelvin
 Total                  235.720             69.066            145.111
 Electronic               0.000              0.000              0.000
 Translational            0.889              2.981             42.342
 Rotational               0.889              2.981             33.671
 Vibrational            233.943             63.105             69.098
 Vibration     1          0.593              1.986              6.843
 Vibration     2          0.593              1.985              6.328
 Vibration     3          0.594              1.981              5.250
 Vibration     4          0.595              1.979              4.923
 Vibration     5          0.596              1.975              4.578
 Vibration     6          0.599              1.966              4.045
 Vibration     7          0.599              1.964              3.964
 Vibration     8          0.612              1.924              2.953
 Vibration     9          0.618              1.902              2.663
 Vibration    10          0.623              1.887              2.505
 Vibration    11          0.646              1.815              1.983
 Vibration    12          0.650              1.802              1.912
 Vibration    13          0.661              1.767              1.747
 Vibration    14          0.668              1.745              1.659
 Vibration    15          0.669              1.743              1.651
 Vibration    16          0.679              1.712              1.540
 Vibration    17          0.694              1.669              1.404
 Vibration    18          0.714              1.613              1.254
 Vibration    19          0.723              1.587              1.194
 Vibration    20          0.777              1.442              0.916
 Vibration    21          0.791              1.405              0.859
 Vibration    22          0.805              1.372              0.811
 Vibration    23          0.839              1.289              0.704
 Vibration    24          0.844              1.277              0.689
 Vibration    25          0.862              1.235              0.641
 Vibration    26          0.920              1.110              0.516
 Vibration    27          0.959              1.031              0.449
 Vibration    28          0.968              1.012              0.434
 Vibration    29          0.978              0.994              0.420

 Optimization completed.
    -- Stationary point found.
 Normal termination of Gaussian 16 at Fri Dec 11 13:11:58 2020.

 ----------------------------------------------------------------------
 # B3LYP/6-311++G(d,p) empiricaldispersion=gd3bj scf=xqc pop=npa geom=c
 heck
 ----------------------------------------------------------------------

 ---------------------------------------
 CID_107529896_JID_7314_Energie_neutraal
 ---------------------------------------
 Structure from the checkpoint file:  "JID_7314.chk"
 Charge =  0 Multiplicity = 1

 SCF Done:  E(RB3LYP) =  -786.168850055     A.U. after   14 cycles
 Normal termination of Gaussian 16 at Fri Dec 11 13:20:08 2020.

 ----------------------------------------------------------------------
 # B3LYP/6-311++G(d,p) empiricaldispersion=gd3bj scf=xqc pop=npa geom=c
 heck
 ----------------------------------------------------------------------

 -------------------------------------
 CID_107529896_JID_7314_Energie_kation
 -------------------------------------
 Structure from the checkpoint file:  "JID_7314.chk"
 Charge =  1 Multiplicity = 2

 SCF Done:  E(UB3LYP) =  -785.879773345     A.U. after   27 cycles
 Normal termination of Gaussian 16 at Fri Dec 11 13:42:01 2020.
 Gaussian 16:  ES64L-G16RevA.03 25-Dec-2016

 ----------------------------------------------------------------------
 # B3LYP/6-311++G(d,p) empiricaldispersion=gd3bj scf=xqc pop=npa geom=c
 heck
 ----------------------------------------------------------------------

 ------------------------------------
 CID_107529896_JID_7314_Energie_anion
 ------------------------------------
 Structure from the checkpoint file:  "JID_7314.chk"
 Charge = -1 Multiplicity = 2

                         Standard orientation:
 ---------------------------------------------------------------------
 Center     Atomic      Atomic             Coordinates (Angstroms)
 Number     Number       Type             X           Y           Z
 ---------------------------------------------------------------------
      1          6           0        5.060567   -0.067485   -1.331967
      2          6           0        4.501055   -0.287546    0.077035
      3          6           0        5.617026   -0.591944    1.082080
      4          6           0        3.688413    0.929884    0.556789
      5          7           0        2.549615    1.268603   -0.284399
      6          6           0        1.293572    0.735252   -0.243362
      7          8           0        0.474125    1.000242   -1.124399
      8          6           0        0.959391   -0.168798    0.940718
      9          6           0       -0.499357   -0.620016    0.916631
     10          7           0       -0.731027   -1.496793   -0.229536
     11          6           0       -2.051300   -2.095361   -0.328750
     12          6           0       -3.285498   -1.175667   -0.464879
     13          6           0       -3.129720    0.002527   -1.455122
     14          6           0       -4.043501    1.101352   -0.889396
     15          6           0       -4.133483    0.789548    0.606837
     16          8           0       -4.571710    1.504589    1.491775
     17          7           0       -3.637460   -0.478479    0.768490
     18          1           0        5.742432    0.793172   -1.351209
     19          1           0        4.260787    0.113914   -2.057836
     20          1           0        5.623243   -0.944041   -1.670565
     21          1           0        3.817448   -1.147659    0.043821
     22          1           0        6.319733    0.248238    1.153055
     23          1           0        5.215245   -0.778286    2.085091
     24          1           0        6.187677   -1.476215    0.779020
     25          1           0        3.333332    0.759792    1.577336
     26          1           0        4.342903    1.809596    0.597658
     27          1           0        2.720217    1.817874   -1.117820
     28          1           0        1.616335   -1.046986    0.922314
     29          1           0        1.167555    0.370992    1.873437
     30          1           0       -0.712726   -1.189592    1.830313
     31          1           0       -1.144775    0.268368    0.936289
     32          1           0       -0.524747   -0.960814   -1.069019
     33          1           0       -2.044600   -2.757042   -1.204699
     34          1           0       -2.202817   -2.746614    0.544961
     35          1           0       -4.126282   -1.818060   -0.779484
     36          1           0       -3.380422   -0.293984   -2.477247
     37          1           0       -2.093264    0.353234   -1.446678
     38          1           0       -5.059710    1.050706   -1.301093
     39          1           0       -3.674774    2.117326   -1.048052
     40          1           0       -3.733007   -0.946353    1.659828
 ---------------------------------------------------------------------

 SCF Done:  E(UB3LYP) =  -786.160453675     A.U. after   33 cycles
 SCF Done:  E(UB3LYP) =  -786.160453675     a.u. after    1 cycles

 The electronic state is 2-A.
 Alpha  occ. eigenvalues --  -19.00569 -19.00298 -14.25225 -14.24830 -14.20553
 Alpha  occ. eigenvalues --  -10.19107 -10.18463 -10.12904 -10.12358 -10.11100
 Alpha  occ. eigenvalues --  -10.10465 -10.09540 -10.09390 -10.09318 -10.09060
 Alpha  occ. eigenvalues --  -10.07457 -10.07340  -0.95572  -0.95166  -0.85710
 Alpha  occ. eigenvalues --   -0.84160  -0.81545  -0.71934  -0.70090  -0.68849
 Alpha  occ. eigenvalues --   -0.64713  -0.61208  -0.60210  -0.57679  -0.54708
 Alpha  occ. eigenvalues --   -0.50925  -0.50350  -0.49599  -0.47425  -0.42964
 Alpha  occ. eigenvalues --   -0.42154  -0.41817  -0.40313  -0.39163  -0.37209
 Alpha  occ. eigenvalues --   -0.37169  -0.36506  -0.35151  -0.34824  -0.34453
 Alpha  occ. eigenvalues --   -0.32573  -0.32274  -0.31764  -0.31255  -0.30955
 Alpha  occ. eigenvalues --   -0.30545  -0.30229  -0.29335  -0.28192  -0.27945
 Alpha  occ. eigenvalues --   -0.26854  -0.26402  -0.26024  -0.25483  -0.24947
 Alpha  occ. eigenvalues --   -0.24700  -0.18284  -0.17731  -0.17166  -0.16961
 Alpha  occ. eigenvalues --   -0.13382   0.03586
 Alpha virt. eigenvalues --    0.04820   0.06200   0.06785   0.07060   0.07567
 Alpha virt. eigenvalues --    0.07641   0.08696   0.08929   0.09436   0.09644
 Alpha virt. eigenvalues --    0.09817   0.10056   0.10389   0.10766   0.11013

  Beta  occ. eigenvalues --  -19.00566 -19.00297 -14.25216 -14.24816 -14.20552
  Beta  occ. eigenvalues --  -10.19107 -10.18464 -10.12890 -10.12333 -10.11083
  Beta  occ. eigenvalues --  -10.10455 -10.09532 -10.09382 -10.09300 -10.09052
  Beta  occ. eigenvalues --  -10.07424 -10.07299  -0.95566  -0.95161  -0.85692
  Beta  occ. eigenvalues --   -0.84141  -0.81535  -0.71902  -0.70065  -0.68824
  Beta  occ. eigenvalues --   -0.64685  -0.61155  -0.60139  -0.57643  -0.54679
  Beta  occ. eigenvalues --   -0.50888  -0.50322  -0.49542  -0.47380  -0.42927
  Beta  occ. eigenvalues --   -0.42114  -0.41793  -0.40292  -0.39149  -0.37166
  Beta  occ. eigenvalues --   -0.37145  -0.36471  -0.35128  -0.34799  -0.34424
  Beta  occ. eigenvalues --   -0.32552  -0.32244  -0.31728  -0.31242  -0.30932
  Beta  occ. eigenvalues --   -0.30526  -0.30189  -0.29303  -0.28163  -0.27927
  Beta  occ. eigenvalues --   -0.26826  -0.26372  -0.25994  -0.25442  -0.24922
  Beta  occ. eigenvalues --   -0.24655  -0.18270  -0.17718  -0.17150  -0.16952
  Beta  occ. eigenvalues --   -0.13371
  Beta virt. eigenvalues --    0.05553   0.05889   0.06828   0.07250   0.07521
  Beta virt. eigenvalues --    0.07928   0.08048   0.08930   0.09220   0.09639
  Beta virt. eigenvalues --    0.09892   0.10057   0.10256   0.10594   0.10989

 Mulliken charges and spin densities:
               1          2
     1  C    0.521108  -1.128930
     2  C   -1.203843   1.715534
     3  C    0.856258  -1.476790
     4  C    0.704294  -1.168767
     5  N   -0.234818   0.101708
     6  C   -0.337259   0.292929
     7  O   -0.332838   0.003953
     8  C    0.223684  -0.418361
     9  C   -0.137408  -0.710552
    10  N   -0.008650   0.062701
    11  C    0.217180  -0.670331
    12  C    0.284193   0.195447
    13  C   -0.058816  -0.578218
    14  C   -0.220067  -0.080252
    15  C    0.096982  -0.140559
    16  O   -0.370054   0.006525
    17  N   -0.118134  -0.052518
    18  H   -0.148704   0.299144
    19  H    0.042716   0.100626
    20  H   -0.211548   0.352689
    21  H    0.111077   0.014031
    22  H   -0.180345   0.317045
    23  H   -0.297254   0.429427
    24  H   -0.189875   0.341600
    25  H    0.027689   0.140914
    26  H   -0.378134   0.579244
    27  H    0.092626   0.206655
    28  H    0.059178   0.152894
    29  H   -0.080217   0.227668
    30  H   -0.050055   0.217631
    31  H    0.281660  -0.057175
    32  H    0.169979   0.042928
    33  H    0.035145   0.136609
    34  H   -0.267327   0.424110
    35  H   -0.482892   0.712458
    36  H    0.015298   0.143601
    37  H    0.148186   0.030599
    38  H    0.074889   0.093306
    39  H    0.128705   0.052614
    40  H    0.217390   0.087862
 Sum of Mulliken charges =  -1.00000   1.00000

 Dipole moment (field-independent basis, Debye):
    X=             -3.0841    Y=              0.1477    Z=             -2.1232  Tot=              3.7471
 Quadrupole moment (field-independent basis, Debye-Ang):
   XX=           -238.4130   YY=           -149.8207   ZZ=           -144.7033
   XY=              1.3690   XZ=              2.5474   YZ=             -4.0513

 Summary of Natural Population Analysis:

                                       Natural Population
                Natural  -----------------------------------------------
    Atom  No    Charge         Core      Valence    Rydberg      Total
 -----------------------------------------------------------------------
      C    1   -0.28805      0.99965     2.28243    0.00597     3.28805
      C    2   -0.12037      0.99961     2.11146    0.00930     3.12037
      C    3   -0.28393      0.99965     2.27908    0.00520     3.28393
      C    4   -0.08828      0.99958     2.07704    0.01165     3.08828
      N    5   -0.31417      0.99967     2.80462    0.00988     3.81417
      C    6    0.34982      0.99967     1.62949    0.02102     2.65018
      O    7   -0.33785      0.99988     3.33252    0.00546     4.33785
      C    8   -0.24029      0.99958     2.23290    0.00781     3.24029
      C    9   -0.08733      0.99962     2.07661    0.01109     3.08733
      N   10   -0.34693      0.99974     2.83584    0.01135     3.84693
      C   11   -0.08736      0.99960     2.07464    0.01311     3.08736
      C   12   -0.01294      0.99960     2.00080    0.01254     3.01294
      C   13   -0.20152      0.99962     2.19349    0.00841     3.20152
      C   14   -0.23232      0.99960     2.22491    0.00780     3.23232
      C   15    0.34479      0.99968     1.63237    0.02316     2.65521
      O   16   -0.32133      0.99987     3.31582    0.00564     4.32133
      N   17   -0.32416      0.99966     2.81489    0.00960     3.82416
      H   18    0.09779      0.00000     0.40105    0.00116     0.40221
      H   19    0.09982      0.00000     0.39906    0.00113     0.40018
      H   20    0.10240      0.00000     0.39674    0.00086     0.39760
      H   21    0.09340      0.00000     0.40412    0.00248     0.40660
      H   22    0.09860      0.00000     0.39991    0.00149     0.40140
      H   23    0.10121      0.00000     0.39732    0.00147     0.39879
      H   24    0.10208      0.00000     0.39679    0.00114     0.39792
      H   25    0.10160      0.00000     0.39677    0.00162     0.39840
      H   26    0.09939      0.00000     0.39923    0.00138     0.40061
      H   27    0.19421      0.00000     0.30341    0.00238     0.30579
      H   28    0.11274      0.00000     0.38510    0.00216     0.38726
      H   29    0.11120      0.00000     0.38770    0.00111     0.38880
      H   30    0.09307      0.00000     0.40571    0.00122     0.40693
      H   31    0.08853      0.00000     0.40914    0.00233     0.41147
      H   32    0.18498      0.00000     0.31201    0.00301     0.31502
      H   33    0.09806      0.00000     0.40099    0.00095     0.40194
      H   34    0.09259      0.00000     0.40614    0.00128     0.40741
      H   35    0.09015      0.00000     0.40759    0.00227     0.40985
      H   36    0.10250      0.00000     0.39652    0.00097     0.39750
      H   37    0.11203      0.00000     0.38630    0.00168     0.38797
      H   38    0.10754      0.00000     0.39143    0.00102     0.39246
      H   39    0.11107      0.00000     0.38812    0.00081     0.38893
      H   40    0.19724      0.00000     0.30057    0.00218     0.30276
 =======================================================================
   * Total *   -0.00000     16.99429    48.79063    0.21508    66.00000

 Normal termination of Gaussian 16 at Fri Dec 11 14:07:33 2020.
