 Gaussian 16, Revision A.03,

 -----------------------------------------------------------
 # opt freq B3LYP/6-31G(d) empiricaldispersion=gd3bj scf=xqc
 -----------------------------------------------------------

 -------------------------------
 CID_62176670_JID_10171_neutraal
 -------------------------------
 Symbolic Z-matrix:
 Charge =  0 Multiplicity = 1

 SCF Done:  E(RB3LYP) =  -897.785237284     A.U. after   15 cycles
 SCF Done:  E(RB3LYP) =  -897.789923390     A.U. after   13 cycles
 SCF Done:  E(RB3LYP) =  -897.787587884     A.U. after   13 cycles
 SCF Done:  E(RB3LYP) =  -897.791195370     A.U. after   12 cycles
 SCF Done:  E(RB3LYP) =  -897.791817251     A.U. after   13 cycles
 SCF Done:  E(RB3LYP) =  -897.792477307     A.U. after   13 cycles
 SCF Done:  E(RB3LYP) =  -897.792934448     A.U. after   12 cycles
 SCF Done:  E(RB3LYP) =  -897.792681416     A.U. after   13 cycles
 SCF Done:  E(RB3LYP) =  -897.793438605     A.U. after   12 cycles
 SCF Done:  E(RB3LYP) =  -897.793714683     A.U. after   13 cycles
 SCF Done:  E(RB3LYP) =  -897.795661270     A.U. after    9 cycles
 SCF Done:  E(RB3LYP) =  -897.795662055     A.U. after    8 cycles
 SCF Done:  E(RB3LYP) =  -897.795662543     A.U. after    8 cycles
 SCF Done:  E(RB3LYP) =  -897.795662697     A.U. after    8 cycles
 SCF Done:  E(RB3LYP) =  -897.795662803     A.U. after    7 cycles
 Optimization completed.
    -- Stationary point found.
 Normal termination of Gaussian 16 at Sun Dec 13 21:04:17 2020.

 --------------------------------------------------------------------
 #N Geom=AllCheck Guess=TCheck SCRF=Check GenChk RB3LYP/6-31G(d) Freq
 --------------------------------------------------------------------

 Structure from the checkpoint file:  "JID_10171.chk"
 -------------------------------
 CID_62176670_JID_10171_neutraal
 -------------------------------
 Charge =  0 Multiplicity = 1

 SCF Done:  E(RB3LYP) =  -897.795662802     A.U. after    1 cycles

  Exact polarizability: 232.301  -9.693 181.570   1.184 -11.647 120.024
 Approx polarizability: 310.997 -16.009 290.662   8.373 -37.149 212.545

                      1                      2                      3
                      A                      A                      A
 Frequencies --     13.1968                27.7511                40.5255
 Red. masses --      4.3392                 4.3156                 4.6287
 Frc consts  --      0.0004                 0.0020                 0.0045
 IR Inten    --      1.8286                 0.4865                 6.1900

                      4                      5                      6
                      A                      A                      A
 Frequencies --     57.6616                68.8173                91.0532
 Red. masses --      5.4736                 4.7575                 4.3590
 Frc consts  --      0.0107                 0.0133                 0.0213
 IR Inten    --      3.6943                 1.5402                 1.4790

                      7                      8                      9
                      A                      A                      A
 Frequencies --    104.7241               121.7294               129.6780
 Red. masses --      2.8884                 3.7992                 1.1132
 Frc consts  --      0.0187                 0.0332                 0.0110
 IR Inten    --      2.5853                 2.0428                 0.0523

                     10                     11                     12
                      A                      A                      A
 Frequencies --    137.9702               162.4000               186.4327
 Red. masses --      3.2523                 1.7943                 4.6690
 Frc consts  --      0.0365                 0.0279                 0.0956
 IR Inten    --      1.4398                 1.2558                 2.0665

                     13                     14                     15
                      A                      A                      A
 Frequencies --    223.1692               246.8105               262.8324
 Red. masses --      2.5000                 2.6052                 2.7512
 Frc consts  --      0.0734                 0.0935                 0.1120
 IR Inten    --      2.6502                 1.7041                 6.8617

                     16                     17                     18
                      A                      A                      A
 Frequencies --    279.8218               301.0809               309.4732
 Red. masses --      4.1460                 1.9816                 3.4439
 Frc consts  --      0.1913                 0.1058                 0.1943
 IR Inten    --      1.6748                 1.0050                23.0401

                     19                     20                     21
                      A                      A                      A
 Frequencies --    342.3684               362.1561               388.8070
 Red. masses --      3.6252                 5.0362                 2.4696
 Frc consts  --      0.2504                 0.3892                 0.2200
 IR Inten    --      0.4130                 4.5804                 4.9266

                     22                     23                     24
                      A                      A                      A
 Frequencies --    418.5741               448.6849               452.4266
 Red. masses --      2.8632                 3.1438                 2.9328
 Frc consts  --      0.2956                 0.3729                 0.3537
 IR Inten    --     18.4975                42.5089                 7.7412

                     25                     26                     27
                      A                      A                      A
 Frequencies --    485.4643               539.2311               565.5786
 Red. masses --      2.2014                 2.9795                 4.4406
 Frc consts  --      0.3057                 0.5104                 0.8369
 IR Inten    --     82.0606                11.1828                 2.0098

                     28                     29                     30
                      A                      A                      A
 Frequencies --    608.4056               626.9073               659.7315
 Red. masses --      4.6908                 4.5377                 4.7458
 Frc consts  --      1.0230                 1.0507                 1.2170
 IR Inten    --      0.5772                 6.6742                 1.0876

                     31                     32                     33
                      A                      A                      A
 Frequencies --    676.6323               709.2059               711.5933
 Red. masses --      4.7457                 3.6423                 4.5397
 Frc consts  --      1.2801                 1.0794                 1.3544
 IR Inten    --     12.3641                20.2158                 5.4809

                     34                     35                     36
                      A                      A                      A
 Frequencies --    755.2323               766.7474               771.6085
 Red. masses --      1.8782                 2.6509                 1.5970
 Frc consts  --      0.6312                 0.9182                 0.5602
 IR Inten    --     53.6895                41.8263                19.4196

                     37                     38                     39
                      A                      A                      A
 Frequencies --    786.9416               806.9354               818.0783
 Red. masses --      1.5060                 1.8476                 1.3958
 Frc consts  --      0.5495                 0.7088                 0.5504
 IR Inten    --      2.4623                22.1297                19.6585

                     40                     41                     42
                      A                      A                      A
 Frequencies --    843.4602               862.8006               873.1563
 Red. masses --      3.0922                 1.5067                 3.1792
 Frc consts  --      1.2961                 0.6608                 1.4281
 IR Inten    --     12.8165                 1.3950                 2.1929

                     43                     44                     45
                      A                      A                      A
 Frequencies --    900.0772               924.0402               942.0977
 Red. masses --      2.4681                 7.6854                 1.2460
 Frc consts  --      1.1781                 3.8663                 0.6516
 IR Inten    --      0.8368                17.1252                 3.4551

                     46                     47                     48
                      A                      A                      A
 Frequencies --    957.3904               980.9929               991.4359
 Red. masses --      1.3508                 1.2703                 1.9768
 Frc consts  --      0.7295                 0.7203                 1.1448
 IR Inten    --      1.3981                 0.4432                 0.5665

                     49                     50                     51
                      A                      A                      A
 Frequencies --   1001.1270              1026.5469              1031.3709
 Red. masses --      2.9500                 6.0891                 1.8162
 Frc consts  --      1.7420                 3.7806                 1.1382
 IR Inten    --      8.3372                 8.5487                12.0801

                     52                     53                     54
                      A                      A                      A
 Frequencies --   1053.7814              1066.1471              1078.3967
 Red. masses --      2.7697                 3.1458                 1.5086
 Frc consts  --      1.8121                 2.1068                 1.0336
 IR Inten    --      4.7670                 8.5560                 3.6280

                     55                     56                     57
                      A                      A                      A
 Frequencies --   1088.1003              1091.7978              1121.9524
 Red. masses --      2.4678                 2.3528                 2.2024
 Frc consts  --      1.7215                 1.6524                 1.6334
 IR Inten    --      5.3417                 3.5905                 1.8568

                     58                     59                     60
                      A                      A                      A
 Frequencies --   1161.9462              1170.2588              1177.9769
 Red. masses --      1.6733                 1.8259                 2.7548
 Frc consts  --      1.3310                 1.4733                 2.2523
 IR Inten    --      6.4378                 3.9977                26.5660

                     61                     62                     63
                      A                      A                      A
 Frequencies --   1187.6317              1202.2559              1246.9623
 Red. masses --      1.6106                 1.2044                 1.7435
 Frc consts  --      1.3384                 1.0257                 1.5973
 IR Inten    --     26.6800                11.4478                11.7716

                     64                     65                     66
                      A                      A                      A
 Frequencies --   1271.9717              1282.7309              1289.8989
 Red. masses --      1.4505                 1.5992                 2.0765
 Frc consts  --      1.3827                 1.5504                 2.0356
 IR Inten    --     36.4634                89.2356                42.8904

                     67                     68                     69
                      A                      A                      A
 Frequencies --   1324.2912              1326.8664              1344.0842
 Red. masses --      1.7839                 1.5536                 2.2174
 Frc consts  --      1.8432                 1.6115                 2.3602
 IR Inten    --     26.5217                26.8384                63.9582

                     70                     71                     72
                      A                      A                      A
 Frequencies --   1356.3434              1384.9528              1392.4626
 Red. masses --      2.9071                 1.3775                 1.3837
 Frc consts  --      3.1510                 1.5567                 1.5807
 IR Inten    --     71.6857                11.9990                 4.9458

                     73                     74                     75
                      A                      A                      A
 Frequencies --   1411.1445              1430.6165              1449.7378
 Red. masses --      1.4773                 1.3693                 1.2417
 Frc consts  --      1.7333                 1.6512                 1.5376
 IR Inten    --      2.8740                 3.3860                 5.9519

                     76                     77                     78
                      A                      A                      A
 Frequencies --   1469.1298              1493.4115              1499.7879
 Red. masses --      2.8144                 1.8585                 1.3480
 Frc consts  --      3.5790                 2.4421                 1.7865
 IR Inten    --     39.8565                21.8226                 4.9970

                     79                     80                     81
                      A                      A                      A
 Frequencies --   1505.1823              1511.1881              1512.1102
 Red. masses --      1.3154                 1.1237                 1.3975
 Frc consts  --      1.7558                 1.5119                 1.8827
 IR Inten    --     15.0930                 5.6311                24.7650

                     82                     83                     84
                      A                      A                      A
 Frequencies --   1515.9767              1531.2181              1532.3643
 Red. masses --      1.2176                 1.1841                 1.1123
 Frc consts  --      1.6487                 1.6357                 1.5388
 IR Inten    --     21.5655                 3.7632                20.4202

                     85                     86                     87
                      A                      A                      A
 Frequencies --   1547.9941              1550.9743              1561.1858
 Red. masses --      2.5555                 1.1473                 1.6260
 Frc consts  --      3.6080                 1.6260                 2.3350
 IR Inten    --      4.5756                31.8435                89.1136

                     88                     89                     90
                      A                      A                      A
 Frequencies --   1572.4511              1637.1180              1662.9340
 Red. masses --      1.7020                 4.5617                 6.8263
 Frc consts  --      2.4795                 7.2035                11.1221
 IR Inten    --    273.0543                28.7264                34.0829

                     91                     92                     93
                      A                      A                      A
 Frequencies --   1666.6885              1762.0365              2978.6770
 Red. masses --      5.7595                 9.0416                 1.0713
 Frc consts  --      9.4263                16.5395                 5.6005
 IR Inten    --     88.6864               253.3383                49.9683

                     94                     95                     96
                      A                      A                      A
 Frequencies --   3046.7322              3055.9708              3059.5384
 Red. masses --      1.0386                 1.0688                 1.0371
 Frc consts  --      5.6805                 5.8807                 5.7200
 IR Inten    --     15.6117                 6.3423                13.9241

                     97                     98                     99
                      A                      A                      A
 Frequencies --   3069.5200              3070.0451              3091.3730
 Red. masses --      1.0812                 1.0695                 1.1017
 Frc consts  --      6.0023                 5.9393                 6.2034
 IR Inten    --     48.0425                37.5147                 0.8447

                    100                    101                    102
                      A                      A                      A
 Frequencies --   3113.9634              3116.6137              3130.7587
 Red. masses --      1.1035                 1.1014                 1.1002
 Frc consts  --      6.3046                 6.3030                 6.3535
 IR Inten    --     70.1524                14.4431                27.9988

                    103                    104                    105
                      A                      A                      A
 Frequencies --   3153.5907              3160.6595              3187.9618
 Red. masses --      1.1015                 1.0956                 1.0868
 Frc consts  --      6.4544                 6.4487                 6.5077
 IR Inten    --      6.4852                 4.0749                 7.9818

                    106                    107                    108
                      A                      A                      A
 Frequencies --   3207.2999              3222.2057              3227.5906
 Red. masses --      1.0904                 1.0934                 1.0928
 Frc consts  --      6.6085                 6.6884                 6.7073
 IR Inten    --     16.5509                16.0190                10.7030

                    109                    110                    111
                      A                      A                      A
 Frequencies --   3287.8431              3567.5037              3576.1599
 Red. masses --      1.0986                 1.0786                 1.0749
 Frc consts  --      6.9972                 8.0879                 8.0996
 IR Inten    --      0.2438                50.7872                24.4192

 - Thermochemistry -
 -------------------
 Temperature   298.150 Kelvin.  Pressure   1.00000 Atm.
 Atom     1 has atomic number  6 and mass  12.00000

 Molecular mass:   273.14773 amu.
 Principal axes and moments of inertia in atomic units:
                           1         2         3
     Eigenvalues --  3217.657217951.51450**********
           X            0.99992  -0.00444  -0.01200
           Y            0.00452   0.99997   0.00681
           Z            0.01197  -0.00686   0.99990
 This molecule is an asymmetric top.
 Rotational symmetry number  1.
 Warning -- assumption of classical behavior for rotation
           may cause significant error
 Rotational temperatures (Kelvin)      0.02692     0.01089     0.00857
 Rotational constants (GHZ):           0.56089     0.22697     0.17854
 Zero-point vibrational energy     858733.3 (Joules/Mol)
                                  205.24219 (Kcal/Mol)
 Warning -- explicit consideration of  28 degrees of freedom as
           vibrations may cause significant error
 Vibrational temperatures:     18.99    39.93    58.31    82.96    99.01
          (Kelvin)            131.01   150.67   175.14   186.58   198.51
                              233.66   268.24   321.09   355.11   378.16
                              402.60   433.19   445.26   492.59   521.06
                              559.41   602.23   645.56   650.94   698.47
                              775.83   813.74   875.36   901.98   949.21
                              973.52  1020.39  1023.82  1086.61  1103.18
                             1110.17  1132.23  1161.00  1177.03  1213.55
                             1241.38  1256.28  1295.01  1329.49  1355.47
                             1377.47  1411.43  1426.46  1440.40  1476.97
                             1483.91  1516.16  1533.95  1551.57  1565.53
                             1570.85  1614.24  1671.78  1683.74  1694.85
                             1708.74  1729.78  1794.10  1830.08  1845.56
                             1855.88  1905.36  1909.06  1933.84  1951.48
                             1992.64  2003.44  2030.32  2058.34  2085.85
                             2113.75  2148.69  2157.86  2165.62  2174.26
                             2175.59  2181.15  2203.08  2204.73  2227.22
                             2231.51  2246.20  2262.41  2355.45  2392.59
                             2397.99  2535.18  4285.65  4383.57  4396.86
                             4401.99  4416.35  4417.11  4447.80  4480.30
                             4484.11  4504.46  4537.31  4547.48  4586.77
                             4614.59  4636.04  4643.78  4730.47  5132.84
                             5145.30

 Zero-point correction=                           0.327074 (Hartree/Particle)
 Thermal correction to Energy=                    0.346394
 Thermal correction to Enthalpy=                  0.347339
 Thermal correction to Gibbs Free Energy=         0.277080
 Sum of electronic and zero-point Energies=           -897.468589
 Sum of electronic and thermal Energies=              -897.449268
 Sum of electronic and thermal Enthalpies=            -897.448324
 Sum of electronic and thermal Free Energies=         -897.518583

                     E (Thermal)             CV                S
                      KCal/Mol        Cal/Mol-Kelvin    Cal/Mol-Kelvin
 Total                  217.366             72.388            147.871
 Electronic               0.000              0.000              0.000
 Translational            0.889              2.981             42.713
 Rotational               0.889              2.981             33.913
 Vibrational            215.588             66.427             71.244
 Vibration     1          0.593              1.987              7.460
 Vibration     2          0.593              1.984              5.984
 Vibration     3          0.594              1.981              5.233
 Vibration     4          0.596              1.974              4.536
 Vibration     5          0.598              1.969              4.187
 Vibration     6          0.602              1.956              3.637
 Vibration     7          0.605              1.945              3.364
 Vibration     8          0.609              1.931              3.073
 Vibration     9          0.612              1.924              2.951
 Vibration    10          0.614              1.915              2.832
 Vibration    11          0.623              1.889              2.522
 Vibration    12          0.632              1.858              2.263
 Vibration    13          0.649              1.806              1.933
 Vibration    14          0.661              1.768              1.753
 Vibration    15          0.670              1.741              1.643
 Vibration    16          0.680              1.711              1.535
 Vibration    17          0.693              1.672              1.411
 Vibration    18          0.699              1.656              1.365
 Vibration    19          0.721              1.591              1.201
 Vibration    20          0.736              1.550              1.113
 Vibration    21          0.757              1.494              1.005
 Vibration    22          0.781              1.430              0.897
 Vibration    23          0.808              1.364              0.800
 Vibration    24          0.811              1.356              0.788
 Vibration    25          0.842              1.282              0.695
 Vibration    26          0.894              1.163              0.567
 Vibration    27          0.921              1.106              0.513
 Vibration    28          0.967              1.014              0.435

                           ! Non-Optimized Parameters !
 Normal termination of Gaussian 16 at Sun Dec 13 21:25:21 2020.

 ----------------------------------------------------------------------
 # B3LYP/6-311++G(d,p) empiricaldispersion=gd3bj scf=xqc pop=npa geom=c
 heck
 ----------------------------------------------------------------------

 ---------------------------------------
 CID_62176670_JID_10171_Energie_neutraal
 ---------------------------------------
 Structure from the checkpoint file:  "JID_10171.chk"
 Charge =  0 Multiplicity = 1

 SCF Done:  E(RB3LYP) =  -898.042308789     A.U. after   16 cycles
 Normal termination of Gaussian 16 at Sun Dec 13 21:34:00 2020.

 ----------------------------------------------------------------------
 # B3LYP/6-311++G(d,p) empiricaldispersion=gd3bj scf=xqc pop=npa geom=c
 heck
 ----------------------------------------------------------------------

 -------------------------------------
 CID_62176670_JID_10171_Energie_kation
 -------------------------------------
 Structure from the checkpoint file:  "JID_10171.chk"
 Charge =  1 Multiplicity = 2

 SCF Done:  E(UB3LYP) =  -897.759993755     A.U. after   24 cycles
 Normal termination of Gaussian 16 at Sun Dec 13 21:52:12 2020.
 Gaussian 16:  ES64L-G16RevA.03 25-Dec-2016

 ----------------------------------------------------------------------
 # B3LYP/6-311++G(d,p) empiricaldispersion=gd3bj scf=xqc pop=npa geom=c
 heck
 ----------------------------------------------------------------------

 ------------------------------------
 CID_62176670_JID_10171_Energie_anion
 ------------------------------------
 Structure from the checkpoint file:  "JID_10171.chk"
 Charge = -1 Multiplicity = 2

                         Standard orientation:
 ---------------------------------------------------------------------
 Center     Atomic      Atomic             Coordinates (Angstroms)
 Number     Number       Type             X           Y           Z
 ---------------------------------------------------------------------
      1          6           0       -1.584109    2.580808    0.876293
      2          6           0       -0.892492    2.860403   -0.462595
      3          6           0        0.613617    2.586662   -0.442064
      4          7           0        0.864573    1.151730   -0.364192
      5          6           0        2.145791    0.648967   -0.106133
      6          6           0        3.273868    1.486044   -0.118999
      7          6           0        4.541596    0.978121    0.156435
      8          6           0        4.718948   -0.368660    0.472184
      9          6           0        3.609305   -1.208574    0.477047
     10          6           0        2.334271   -0.732947    0.159833
     11          6           0        1.233784   -1.751156    0.121180
     12          8           0        1.206007   -2.723883    0.870051
     13          7           0        0.290073   -1.557155   -0.859446
     14          6           0       -0.948886   -2.316299   -0.883899
     15          6           0       -2.103176   -1.459257   -0.468144
     16          6           0       -2.848313   -1.353172    0.665698
     17          6           0       -3.723158   -0.251774    0.411459
     18          7           0       -3.513649    0.264902   -0.780183
     19          8           0       -2.480960   -0.501451   -1.346794
     20          6           0       -4.762611    0.337357    1.310963
     21          1           0       -1.501993    1.529555    1.177200
     22          1           0       -2.652847    2.804700    0.809984
     23          1           0       -1.151569    3.191942    1.677515
     24          1           0       -1.358495    2.259052   -1.252046
     25          1           0       -1.042741    3.912511   -0.731839
     26          1           0        1.077587    2.971337   -1.358308
     27          1           0        1.075444    3.123698    0.404012
     28          1           0        0.144238    0.669836    0.159526
     29          1           0        3.158217    2.541996   -0.332752
     30          1           0        5.394601    1.651206    0.138682
     31          1           0        5.704790   -0.758453    0.704860
     32          1           0        3.705565   -2.262892    0.714898
     33          1           0        0.332708   -0.701308   -1.400870
     34          1           0       -1.125394   -2.720934   -1.886941
     35          1           0       -0.826085   -3.146033   -0.186347
     36          1           0       -2.786614   -1.963942    1.553971
     37          1           0       -5.279977    1.154421    0.802551
     38          1           0       -5.500065   -0.417715    1.604079
     39          1           0       -4.305330    0.728205    2.226956
 ---------------------------------------------------------------------

 SCF Done:  E(UB3LYP) =  -898.038126945     A.U. after   33 cycles
 SCF Done:  E(UB3LYP) =  -898.038126945     a.u. after    1 cycles

 The electronic state is 2-A.
 Alpha  occ. eigenvalues --  -19.09493 -18.95772 -14.24609 -14.21677 -14.21558
 Alpha  occ. eigenvalues --  -10.14010 -10.13064 -10.11334 -10.11038 -10.10565
 Alpha  occ. eigenvalues --  -10.10007 -10.07867 -10.07711 -10.07126 -10.06629
 Alpha  occ. eigenvalues --  -10.05238 -10.05080 -10.05073 -10.04974 -10.04860
 Alpha  occ. eigenvalues --   -1.03193  -0.91238  -0.83426  -0.80862  -0.77062
 Alpha  occ. eigenvalues --   -0.73179  -0.69805  -0.68512  -0.64355  -0.62631
 Alpha  occ. eigenvalues --   -0.62083  -0.60464  -0.58190  -0.51604  -0.50544
 Alpha  occ. eigenvalues --   -0.50178  -0.48081  -0.46334  -0.45223  -0.43382
 Alpha  occ. eigenvalues --   -0.41237  -0.39367  -0.39068  -0.38023  -0.36463
 Alpha  occ. eigenvalues --   -0.35394  -0.34937  -0.34370  -0.32824  -0.32373
 Alpha  occ. eigenvalues --   -0.32081  -0.31965  -0.31317  -0.30909  -0.30374
 Alpha  occ. eigenvalues --   -0.29278  -0.28618  -0.28025  -0.27620  -0.26263
 Alpha  occ. eigenvalues --   -0.25479  -0.25148  -0.24474  -0.24187  -0.22958
 Alpha  occ. eigenvalues --   -0.20455  -0.19061  -0.18734  -0.16555  -0.14687
 Alpha  occ. eigenvalues --   -0.14370  -0.13106  -0.10009   0.04494
 Alpha virt. eigenvalues --    0.06034   0.07108   0.07781   0.08023   0.08522
 Alpha virt. eigenvalues --    0.08891   0.09397   0.09973   0.10264   0.10736
 Alpha virt. eigenvalues --    0.11240   0.11396   0.11611   0.12642   0.12801

  Beta  occ. eigenvalues --  -19.09388 -18.95601 -14.24505 -14.21671 -14.21510
  Beta  occ. eigenvalues --  -10.13869 -10.12930 -10.11332 -10.11030 -10.10563
  Beta  occ. eigenvalues --  -10.09935 -10.07828 -10.07709 -10.07115 -10.06613
  Beta  occ. eigenvalues --  -10.05239 -10.05034 -10.04977 -10.04830 -10.04733
  Beta  occ. eigenvalues --   -1.03012  -0.90937  -0.83355  -0.80716  -0.76928
  Beta  occ. eigenvalues --   -0.72973  -0.69612  -0.68458  -0.64044  -0.62552
  Beta  occ. eigenvalues --   -0.61934  -0.60321  -0.58132  -0.51274  -0.50478
  Beta  occ. eigenvalues --   -0.50017  -0.47992  -0.46164  -0.45079  -0.43283
  Beta  occ. eigenvalues --   -0.41114  -0.39259  -0.38969  -0.37746  -0.36367
  Beta  occ. eigenvalues --   -0.35285  -0.34784  -0.34222  -0.32738  -0.32307
  Beta  occ. eigenvalues --   -0.31937  -0.31860  -0.31204  -0.30830  -0.30201
  Beta  occ. eigenvalues --   -0.29117  -0.28394  -0.27842  -0.27335  -0.26097
  Beta  occ. eigenvalues --   -0.25420  -0.25019  -0.24239  -0.23931  -0.22860
  Beta  occ. eigenvalues --   -0.20306  -0.18682  -0.18359  -0.15950  -0.14141
  Beta  occ. eigenvalues --   -0.13879  -0.12485  -0.09636
  Beta virt. eigenvalues --    0.06643   0.07250   0.08038   0.08237   0.08576
  Beta virt. eigenvalues --    0.08843   0.09212   0.09621   0.10065   0.10457
  Beta virt. eigenvalues --    0.10775   0.11442   0.11512   0.11773   0.12701

 Mulliken charges and spin densities:
               1          2
     1  C   -0.194026  -0.188771
     2  C   -0.694274   0.103991
     3  C   -0.129790  -0.033662
     4  N    0.095114  -0.000839
     5  C   -0.244022  -0.038045
     6  C   -0.044695   0.017411
     7  C   -0.223302   0.181890
     8  C   -0.669132  -0.047114
     9  C   -0.396359   0.154428
    10  C    1.134477   0.032019
    11  C   -0.783126   0.031974
    12  O   -0.376264   0.062629
    13  N    0.050856   0.012246
    14  C   -1.107875   0.050806
    15  C    0.104281   0.123416
    16  C   -0.258850   0.154819
    17  C   -0.992969   1.393576
    18  N   -0.324261   0.078316
    19  O    0.166688   0.009499
    20  C    2.219077  -2.600281
    21  H    0.262850  -0.123918
    22  H    0.075253   0.080642
    23  H    0.022457   0.108937
    24  H    0.197891   0.000295
    25  H    0.112310   0.026822
    26  H    0.151199   0.006168
    27  H    0.134154  -0.014704
    28  H    0.147544   0.139624
    29  H    0.102692   0.003523
    30  H    0.126784  -0.015051
    31  H    0.109171   0.002052
    32  H    0.165793  -0.000675
    33  H    0.310771  -0.002982
    34  H    0.166419   0.008799
    35  H    0.200426   0.003707
    36  H    0.059877   0.120146
    37  H   -0.138991   0.294753
    38  H   -0.256414   0.405024
    39  H   -0.281735   0.458531
 Sum of Mulliken charges =  -1.00000   1.00000

 Dipole moment (field-independent basis, Debye):
    X=              2.1171    Y=              2.2125    Z=             -2.9091  Tot=              4.2238
 Quadrupole moment (field-independent basis, Debye-Ang):
   XX=           -204.3814   YY=           -144.0873   ZZ=           -144.9010
   XY=             11.4919   XZ=              4.7008   YZ=              2.6702

 Summary of Natural Population Analysis:

                                       Natural Population
                Natural  -----------------------------------------------
    Atom  No    Charge         Core      Valence    Rydberg      Total
 -----------------------------------------------------------------------
      C    1   -0.28929      0.99967     2.28294    0.00668     3.28929
      C    2   -0.19681      0.99964     2.19034    0.00682     3.19681
      C    3   -0.08278      0.99964     2.07476    0.00839     3.08278
      N    4   -0.32929      0.99968     2.82005    0.00956     3.82929
      C    5    0.11033      0.99948     1.88033    0.00986     2.88967
      C    6   -0.14277      0.99954     2.13513    0.00811     3.14277
      C    7   -0.05034      0.99958     2.04153    0.00923     3.05034
      C    8   -0.13983      0.99957     2.13071    0.00956     3.13983
      C    9   -0.05078      0.99955     2.04264    0.00860     3.05078
      C   10   -0.06992      0.99944     2.06092    0.00956     3.06992
      C   11    0.35391      0.99963     1.62334    0.02313     2.64609
      O   12   -0.31848      0.99988     3.31335    0.00525     4.31848
      N   13   -0.32348      0.99967     2.81416    0.00964     3.82348
      C   14   -0.11481      0.99958     2.10518    0.01006     3.11481
      C   15    0.19156      0.99949     1.79353    0.01541     2.80844
      C   16   -0.17646      0.99943     2.16858    0.00845     3.17646
      C   17    0.08158      0.99962     1.90401    0.01480     2.91842
      N   18   -0.08439      0.99967     2.57141    0.01332     3.58439
      O   19   -0.16921      0.99985     3.16075    0.00860     4.16921
      C   20   -0.30025      0.99962     2.29474    0.00589     3.30025
      H   21    0.09857      0.00000     0.40018    0.00124     0.40143
      H   22    0.10376      0.00000     0.39528    0.00095     0.39624
      H   23    0.09264      0.00000     0.40635    0.00101     0.40736
      H   24    0.10606      0.00000     0.39243    0.00150     0.39394
      H   25    0.09349      0.00000     0.40554    0.00097     0.40651
      H   26    0.09137      0.00000     0.40745    0.00118     0.40863
      H   27    0.08229      0.00000     0.41594    0.00177     0.41771
      H   28    0.19012      0.00000     0.30691    0.00297     0.30988
      H   29    0.09616      0.00000     0.40256    0.00127     0.40384
      H   30    0.08881      0.00000     0.41020    0.00099     0.41119
      H   31    0.09338      0.00000     0.40563    0.00100     0.40662
      H   32    0.10414      0.00000     0.39480    0.00106     0.39586
      H   33    0.20116      0.00000     0.29698    0.00186     0.29884
      H   34    0.09927      0.00000     0.39963    0.00110     0.40073
      H   35    0.12163      0.00000     0.37677    0.00160     0.37837
      H   36    0.11404      0.00000     0.38517    0.00079     0.38596
      H   37    0.10977      0.00000     0.38885    0.00139     0.39023
      H   38    0.10699      0.00000     0.39156    0.00145     0.39301
      H   39    0.10787      0.00000     0.39098    0.00115     0.39213
 =======================================================================
   * Total *    0.00000     19.99221    52.78160    0.22619    73.00000

 Normal termination of Gaussian 16 at Sun Dec 13 22:17:28 2020.
