 Gaussian 16, Revision A.03,

 -----------------------------------------------------------
 # opt freq B3LYP/6-31G(d) empiricaldispersion=gd3bj scf=xqc
 -----------------------------------------------------------

 ------------------------------
 CID_64254129_JID_8281_neutraal
 ------------------------------
 Symbolic Z-matrix:
 Charge =  0 Multiplicity = 1

 SCF Done:  E(RB3LYP) =  -1196.71182776     A.U. after   15 cycles
 SCF Done:  E(RB3LYP) =  -1196.72103553     A.U. after   13 cycles
 SCF Done:  E(RB3LYP) =  -1196.72256546     A.U. after   12 cycles
 SCF Done:  E(RB3LYP) =  -1196.72246234     A.U. after   13 cycles
 SCF Done:  E(RB3LYP) =  -1196.72348368     A.U. after   13 cycles
 SCF Done:  E(RB3LYP) =  -1196.72373519     A.U. after   12 cycles
 SCF Done:  E(RB3LYP) =  -1196.72399260     A.U. after   11 cycles
 SCF Done:  E(RB3LYP) =  -1196.72409435     A.U. after   12 cycles
 SCF Done:  E(RB3LYP) =  -1196.72412685     A.U. after   11 cycles
 SCF Done:  E(RB3LYP) =  -1196.72413647     A.U. after   10 cycles
 SCF Done:  E(RB3LYP) =  -1196.72414029     A.U. after    8 cycles
 SCF Done:  E(RB3LYP) =  -1196.72414157     A.U. after    8 cycles
 SCF Done:  E(RB3LYP) =  -1196.72414210     A.U. after    8 cycles
 SCF Done:  E(RB3LYP) =  -1196.72414218     A.U. after    8 cycles
 Optimization completed.
    -- Stationary point found.
 Normal termination of Gaussian 16 at Fri Dec 11 19:53:52 2020.

 --------------------------------------------------------------------
 #N Geom=AllCheck Guess=TCheck SCRF=Check GenChk RB3LYP/6-31G(d) Freq
 --------------------------------------------------------------------

 Structure from the checkpoint file:  "JID_8281.chk"
 ------------------------------
 CID_64254129_JID_8281_neutraal
 ------------------------------
 Charge =  0 Multiplicity = 1

 SCF Done:  E(RB3LYP) =  -1196.72414218     A.U. after    1 cycles

  Exact polarizability: 247.423   0.405 149.249  13.468   8.762  89.823
 Approx polarizability: 339.212   5.201 286.436  25.301  20.761 149.197

                      1                      2                      3
                      A                      A                      A
 Frequencies --     22.7255                34.6166                37.4470
 Red. masses --      8.0061                 7.4519                 8.0764
 Frc consts  --      0.0024                 0.0053                 0.0067
 IR Inten    --      0.0906                 1.5575                 1.4324

                      4                      5                      6
                      A                      A                      A
 Frequencies --     70.5728                78.5513               139.0793
 Red. masses --      4.2875                 6.9047                 7.0871
 Frc consts  --      0.0126                 0.0251                 0.0808
 IR Inten    --      0.7105                 2.2390                 3.4215

                      7                      8                      9
                      A                      A                      A
 Frequencies --    146.1664               185.8312               207.9074
 Red. masses --      5.5633                 6.1752                 5.6759
 Frc consts  --      0.0700                 0.1256                 0.1446
 IR Inten    --      0.0365                 8.8240                 1.6138

                     10                     11                     12
                      A                      A                      A
 Frequencies --    249.3255               272.2582               295.3863
 Red. masses --      5.3327                 3.6037                 4.0223
 Frc consts  --      0.1953                 0.1574                 0.2068
 IR Inten    --      4.1725                 4.1400                 4.3300

                     13                     14                     15
                      A                      A                      A
 Frequencies --    313.6107               355.6575               400.7021
 Red. masses --      3.8672                 9.3527                 7.3654
 Frc consts  --      0.2241                 0.6970                 0.6968
 IR Inten    --      2.9356                 2.0485                 8.9688

                     16                     17                     18
                      A                      A                      A
 Frequencies --    432.7482               487.4587               520.1082
 Red. masses --      3.2987                 6.0595                 7.6866
 Frc consts  --      0.3640                 0.8483                 1.2251
 IR Inten    --      4.0295                12.9169                 3.7536

                     19                     20                     21
                      A                      A                      A
 Frequencies --    532.5391               587.4843               592.3448
 Red. masses --      6.4963                 3.4287                 4.4024
 Frc consts  --      1.0855                 0.6972                 0.9101
 IR Inten    --      6.5568                40.7645                10.6510

                     22                     23                     24
                      A                      A                      A
 Frequencies --    607.1457               621.1193               659.7111
 Red. masses --      4.6238                 1.3313                 5.2240
 Frc consts  --      1.0042                 0.3026                 1.3396
 IR Inten    --      3.2355                85.2456                 1.7122

                     25                     26                     27
                      A                      A                      A
 Frequencies --    676.9388               728.0762               745.1941
 Red. masses --      8.5862                 5.2336                 5.8198
 Frc consts  --      2.3182                 1.6346                 1.9041
 IR Inten    --      2.2497                15.9035                19.8418

                     28                     29                     30
                      A                      A                      A
 Frequencies --    766.0990               772.9061               782.9101
 Red. masses --      4.1730                 3.3148                 3.8074
 Frc consts  --      1.4430                 1.1667                 1.3750
 IR Inten    --     27.8191                17.2991                17.0142

                     31                     32                     33
                      A                      A                      A
 Frequencies --    811.0297               833.0410               860.5719
 Red. masses --      5.2826                 1.3352                 1.7727
 Frc consts  --      2.0473                 0.5459                 0.7735
 IR Inten    --     18.9869                 5.3829                39.5294

                     34                     35                     36
                      A                      A                      A
 Frequencies --    865.3033               896.1051               904.6944
 Red. masses --      3.3705                 1.5178                 4.7688
 Frc consts  --      1.4869                 0.7181                 2.2997
 IR Inten    --     15.0514                 2.1456                15.8759

                     37                     38                     39
                      A                      A                      A
 Frequencies --    923.5341               973.4835               985.8071
 Red. masses --      1.4936                 1.3009                 3.1920
 Frc consts  --      0.7506                 0.7263                 1.8277
 IR Inten    --      9.5612                 1.2612                 7.5145

                     40                     41                     42
                      A                      A                      A
 Frequencies --   1024.4337              1031.3025              1068.2900
 Red. masses --      3.0528                 2.6206                 2.4840
 Frc consts  --      1.8876                 1.6422                 1.6703
 IR Inten    --      3.5879                27.0042                 7.7316

                     43                     44                     45
                      A                      A                      A
 Frequencies --   1078.2474              1152.8490              1157.3830
 Red. masses --      2.6455                 1.2612                 1.5319
 Frc consts  --      1.8121                 0.9876                 1.2090
 IR Inten    --     43.2850                 2.3387                 4.4841

                     46                     47                     48
                      A                      A                      A
 Frequencies --   1176.9133              1187.7336              1217.1751
 Red. masses --      1.5247                 2.5787                 2.0752
 Frc consts  --      1.2443                 2.1434                 1.8114
 IR Inten    --     76.1671                11.9850                47.7262

                     49                     50                     51
                      A                      A                      A
 Frequencies --   1231.6276              1242.8130              1268.7381
 Red. masses --      1.5231                 2.4743                 1.4013
 Frc consts  --      1.3613                 2.2517                 1.3290
 IR Inten    --     94.9522                13.3463                 8.7062

                     52                     53                     54
                      A                      A                      A
 Frequencies --   1296.2206              1310.5185              1333.4282
 Red. masses --      1.3778                 1.3552                 1.3934
 Frc consts  --      1.3639                 1.3714                 1.4598
 IR Inten    --      1.3872                 3.1192                 8.6723

                     55                     56                     57
                      A                      A                      A
 Frequencies --   1339.4032              1367.6205              1370.8630
 Red. masses --      1.9157                 2.0430                 3.7724
 Frc consts  --      2.0248                 2.2514                 4.1769
 IR Inten    --     17.7490                47.2085                 8.5290

                     58                     59                     60
                      A                      A                      A
 Frequencies --   1385.0222              1416.2139              1451.1474
 Red. masses --      2.8520                 6.2601                 3.5540
 Frc consts  --      3.2234                 7.3976                 4.4095
 IR Inten    --    135.3095               476.9963               112.6041

                     61                     62                     63
                      A                      A                      A
 Frequencies --   1498.6043              1528.0520              1542.3157
 Red. masses --      3.9574                 1.0776                 6.5696
 Frc consts  --      5.2364                 1.4824                 9.2073
 IR Inten    --     25.1681                 0.5656                62.2533

                     64                     65                     66
                      A                      A                      A
 Frequencies --   1547.5831              1606.2542              1657.5370
 Red. masses --      1.1474                 5.9982                 6.6340
 Frc consts  --      1.6190                 9.1180                10.7387
 IR Inten    --      4.5583                 1.6301                17.8556

                     67                     68                     69
                      A                      A                      A
 Frequencies --   1743.0067              1852.2049              3075.8317
 Red. masses --     11.9777                 9.6849                 1.0558
 Frc consts  --     21.4398                19.5761                 5.8850
 IR Inten    --    236.1095               351.0879                38.2062

                     70                     71                     72
                      A                      A                      A
 Frequencies --   3087.2596              3128.2426              3136.0208
 Red. masses --      1.0570                 1.1111                 1.1112
 Frc consts  --      5.9357                 6.4062                 6.4390
 IR Inten    --     19.3614                15.2449                 9.5184

                     73                     74                     75
                      A                      A                      A
 Frequencies --   3160.3687              3216.0489              3230.7090
 Red. masses --      1.0891                 1.0877                 1.0935
 Frc consts  --      6.4090                 6.6283                 6.7248
 IR Inten    --     11.0322                 3.3226                 6.8586

                     76                     77                     78
                      A                      A                      A
 Frequencies --   3231.5766              3239.7452              3692.4545
 Red. masses --      1.0922                 1.0943                 1.0642
 Frc consts  --      6.7204                 6.7674                 8.5488
 IR Inten    --      2.2767                 1.0367                67.9804

 - Thermochemistry -
 -------------------
 Temperature   298.150 Kelvin.  Pressure   1.00000 Atm.
 Atom     1 has atomic number  6 and mass  12.00000

 Molecular mass:   262.04121 amu.
 Principal axes and moments of inertia in atomic units:
                           1         2         3
     Eigenvalues --  1566.55681********************
           X            1.00000  -0.00296   0.00048
           Y            0.00295   0.99985   0.01707
           Z           -0.00053  -0.01707   0.99985
 This molecule is an asymmetric top.
 Rotational symmetry number  1.
 Warning -- assumption of classical behavior for rotation
           may cause significant error
 Rotational temperatures (Kelvin)      0.05529     0.00741     0.00686
 Rotational constants (GHZ):           1.15204     0.15438     0.14301
 Zero-point vibrational energy     548236.3 (Joules/Mol)
                                  131.03162 (Kcal/Mol)
 Warning -- explicit consideration of  22 degrees of freedom as
           vibrations may cause significant error
 Vibrational temperatures:     32.70    49.81    53.88   101.54   113.02
          (Kelvin)            200.10   210.30   267.37   299.13   358.72
                              391.72   424.99   451.22   511.71   576.52
                              622.63   701.34   748.32   766.20   845.26
                              852.25   873.55   893.65   949.18   973.96
                             1047.54  1072.17  1102.25  1112.04  1126.43
                             1166.89  1198.56  1238.17  1244.98  1289.30
                             1301.65  1328.76  1400.63  1418.36  1473.93
                             1483.81  1537.03  1551.36  1658.69  1665.22
                             1693.32  1708.88  1751.24  1772.04  1788.13
                             1825.43  1864.97  1885.54  1918.51  1927.10
                             1967.70  1972.37  1992.74  2037.62  2087.88
                             2156.16  2198.53  2219.05  2226.63  2311.04
                             2384.83  2507.80  2664.91  4425.44  4441.88
                             4500.84  4512.03  4547.07  4627.18  4648.27
                             4649.52  4661.27  5312.62

 Zero-point correction=                           0.208812 (Hartree/Particle)
 Thermal correction to Energy=                    0.223850
 Thermal correction to Enthalpy=                  0.224795
 Thermal correction to Gibbs Free Energy=         0.163751
 Sum of electronic and zero-point Energies=          -1196.515330
 Sum of electronic and thermal Energies=             -1196.500292
 Sum of electronic and thermal Enthalpies=           -1196.499348
 Sum of electronic and thermal Free Energies=        -1196.560391

                     E (Thermal)             CV                S
                      KCal/Mol        Cal/Mol-Kelvin    Cal/Mol-Kelvin
 Total                  140.468             56.804            128.478
 Electronic               0.000              0.000              0.000
 Translational            0.889              2.981             42.590
 Rotational               0.889              2.981             33.802
 Vibrational            138.691             50.842             52.087
 Vibration     1          0.593              1.985              6.381
 Vibration     2          0.594              1.983              5.546
 Vibration     3          0.594              1.982              5.390
 Vibration     4          0.598              1.968              4.137
 Vibration     5          0.600              1.964              3.927
 Vibration     6          0.615              1.914              2.817
 Vibration     7          0.617              1.907              2.722
 Vibration     8          0.632              1.859              2.269
 Vibration     9          0.641              1.829              2.062
 Vibration    10          0.662              1.764              1.735
 Vibration    11          0.675              1.724              1.582
 Vibration    12          0.690              1.682              1.443
 Vibration    13          0.701              1.648              1.343
 Vibration    14          0.731              1.564              1.141
 Vibration    15          0.767              1.469              0.960
 Vibration    16          0.794              1.399              0.850
 Vibration    17          0.843              1.278              0.690
 Vibration    18          0.875              1.205              0.610
 Vibration    19          0.888              1.178              0.582
 Vibration    20          0.945              1.058              0.472
 Vibration    21          0.950              1.048              0.463
 Vibration    22          0.966              1.017              0.438

 Optimization completed.
    -- Stationary point found.
 Normal termination of Gaussian 16 at Fri Dec 11 20:03:39 2020.

 ----------------------------------------------------------------------
 # B3LYP/6-311++G(d,p) empiricaldispersion=gd3bj scf=xqc pop=npa geom=c
 heck
 ----------------------------------------------------------------------

 --------------------------------------
 CID_64254129_JID_8281_Energie_neutraal
 --------------------------------------
 Structure from the checkpoint file:  "JID_8281.chk"
 Charge =  0 Multiplicity = 1

 SCF Done:  E(RB3LYP) =  -1196.97454355     A.U. after   16 cycles
 Normal termination of Gaussian 16 at Fri Dec 11 20:07:45 2020.

 ----------------------------------------------------------------------
 # B3LYP/6-311++G(d,p) empiricaldispersion=gd3bj scf=xqc pop=npa geom=c
 heck
 ----------------------------------------------------------------------

 ------------------------------------
 CID_64254129_JID_8281_Energie_kation
 ------------------------------------
 Structure from the checkpoint file:  "JID_8281.chk"
 Charge =  1 Multiplicity = 2

 SCF Done:  E(UB3LYP) =  -1196.65923018     A.U. after   33 cycles
 SCF Done:  E(UB3LYP) =  -1196.65923018     a.u. after    1 cycles
 Normal termination of Gaussian 16 at Fri Dec 11 20:19:19 2020.
 Gaussian 16:  ES64L-G16RevA.03 25-Dec-2016

 ----------------------------------------------------------------------
 # B3LYP/6-311++G(d,p) empiricaldispersion=gd3bj scf=xqc pop=npa geom=c
 heck
 ----------------------------------------------------------------------

 -----------------------------------
 CID_64254129_JID_8281_Energie_anion
 -----------------------------------
 Structure from the checkpoint file:  "JID_8281.chk"
 Charge = -1 Multiplicity = 2

                         Standard orientation:
 ---------------------------------------------------------------------
 Center     Atomic      Atomic             Coordinates (Angstroms)
 Number     Number       Type             X           Y           Z
 ---------------------------------------------------------------------
      1          6           0       -2.204815   -0.528436    0.570042
      2          6           0       -3.576351    0.167728    0.822797
      3          6           0       -3.085704    1.312745   -0.119181
      4          7           0       -1.833615    0.578253   -0.334209
      5          6           0       -0.633753    1.221793   -0.498704
      6          8           0       -0.593411    2.427828   -0.729612
      7          6           0        0.604647    0.388942   -0.388470
      8          6           0        1.777268    1.050481   -0.017848
      9          6           0        2.948591    0.307611    0.090780
     10          6           0        2.972806   -1.083865   -0.184113
     11          6           0        1.793752   -1.728800   -0.580807
     12          6           0        0.622735   -0.991815   -0.677338
     13          7           0        4.209971   -1.695539   -0.039695
     14          6           0        5.099635   -0.832488    0.326284
     15         16           0        4.558106    0.834909    0.544369
     16          6           0       -4.798383   -0.584209    0.368164
     17          8           0       -5.800204   -0.756311    1.024679
     18          8           0       -4.660140   -1.057789   -0.897079
     19          1           0       -2.273460   -1.500956    0.076262
     20          1           0       -1.566187   -0.611926    1.454900
     21          1           0       -3.739027    0.478052    1.854026
     22          1           0       -2.929978    2.278329    0.370166
     23          1           0       -3.671055    1.454860   -1.031470
     24          1           0        1.742925    2.118334    0.165953
     25          1           0        1.820371   -2.787938   -0.813697
     26          1           0       -0.286078   -1.477320   -1.014306
     27          1           0        6.140603   -1.081135    0.501157
     28          1           0       -5.494831   -1.515799   -1.109099
 ---------------------------------------------------------------------

 SCF Done:  E(UB3LYP) =  -1196.99064851     A.U. after   33 cycles
 SCF Done:  E(UB3LYP) =  -1196.99066173     a.u. after    4 cycles

 The electronic state is 2-A.
 Alpha  occ. eigenvalues --  -88.74215 -19.09647 -19.04097 -18.95361 -14.22026
 Alpha  occ. eigenvalues --  -14.17904 -10.22909 -10.13101 -10.12206 -10.11620
 Alpha  occ. eigenvalues --  -10.11319 -10.08682 -10.07391 -10.06554 -10.04889
 Alpha  occ. eigenvalues --  -10.04174 -10.03956 -10.03853  -7.82900  -5.79182
 Alpha  occ. eigenvalues --   -5.78863  -5.78473  -1.03637  -0.94751  -0.91180
 Alpha  occ. eigenvalues --   -0.84640  -0.82769  -0.72132  -0.69121  -0.66725
 Alpha  occ. eigenvalues --   -0.62372  -0.60368  -0.59800  -0.57748  -0.52188
 Alpha  occ. eigenvalues --   -0.49466  -0.47456  -0.44932  -0.44629  -0.42396
 Alpha  occ. eigenvalues --   -0.41095  -0.39416  -0.38132  -0.36293  -0.35795
 Alpha  occ. eigenvalues --   -0.35187  -0.33411  -0.31886  -0.31541  -0.30983
 Alpha  occ. eigenvalues --   -0.30140  -0.29335  -0.29164  -0.27624  -0.26661
 Alpha  occ. eigenvalues --   -0.26340  -0.26022  -0.25029  -0.24153  -0.21110
 Alpha  occ. eigenvalues --   -0.20981  -0.20591  -0.17511  -0.14769  -0.14111
 Alpha  occ. eigenvalues --   -0.13036  -0.11754  -0.10882   0.03566
 Alpha virt. eigenvalues --    0.05100   0.06534   0.08034   0.08899   0.09191
 Alpha virt. eigenvalues --    0.09750   0.10651   0.10983   0.11408   0.11718
 Alpha virt. eigenvalues --    0.11950   0.12221   0.12750   0.13250   0.14291

  Beta  occ. eigenvalues --  -88.74182 -19.09626 -19.04073 -18.95160 -14.21988
  Beta  occ. eigenvalues --  -14.17953 -10.22877 -10.12965 -10.12192 -10.11615
  Beta  occ. eigenvalues --  -10.11317 -10.08220 -10.07430 -10.06356 -10.04907
  Beta  occ. eigenvalues --  -10.04098 -10.03764 -10.03662  -7.82870  -5.79170
  Beta  occ. eigenvalues --   -5.78852  -5.78359  -1.03586  -0.94704  -0.90869
  Beta  occ. eigenvalues --   -0.84468  -0.82469  -0.71844  -0.69014  -0.66549
  Beta  occ. eigenvalues --   -0.61992  -0.60238  -0.59492  -0.57573  -0.51977
  Beta  occ. eigenvalues --   -0.49012  -0.47305  -0.44685  -0.44444  -0.42344
  Beta  occ. eigenvalues --   -0.41031  -0.39264  -0.37949  -0.36084  -0.35631
  Beta  occ. eigenvalues --   -0.35033  -0.33284  -0.31838  -0.31351  -0.30860
  Beta  occ. eigenvalues --   -0.30022  -0.29174  -0.28334  -0.27389  -0.26449
  Beta  occ. eigenvalues --   -0.26244  -0.25402  -0.24812  -0.23955  -0.20911
  Beta  occ. eigenvalues --   -0.20582  -0.20033  -0.16919  -0.14749  -0.13645
  Beta  occ. eigenvalues --   -0.12686  -0.10632  -0.09663
  Beta virt. eigenvalues --    0.05386   0.06770   0.08008   0.08823   0.08877
  Beta virt. eigenvalues --    0.09123   0.09710   0.10736   0.11152   0.11635
  Beta virt. eigenvalues --    0.11813   0.12153   0.12612   0.13136   0.13308

 Mulliken charges and spin densities:
               1          2
     1  C   -0.578502  -0.049338
     2  C    0.462822  -0.016412
     3  C   -0.454948  -0.040517
     4  N    0.090652   0.007796
     5  C   -0.376718   0.060925
     6  O   -0.366447   0.069335
     7  C    0.900713   0.119921
     8  C    0.128757   0.146716
     9  C    1.152805   0.009496
    10  C   -1.489019   0.080316
    11  C   -0.622398   0.106682
    12  C   -0.295325  -0.004990
    13  N   -0.004447  -0.042357
    14  C    0.091541   0.333019
    15  S   -0.688837   0.029256
    16  C   -0.148995  -0.025393
    17  O   -0.295729   0.004331
    18  O   -0.190725   0.000068
    19  H    0.129397   0.043190
    20  H    0.158505   0.006075
    21  H    0.270408   0.005380
    22  H    0.158325   0.003812
    23  H    0.145400   0.037158
    24  H    0.190783  -0.010696
    25  H    0.148576  -0.003576
    26  H    0.132975  -0.001001
    27  H    0.213704  -0.023085
    28  H    0.136727   0.153889
 Sum of Mulliken charges =  -1.00000   1.00000

 Dipole moment (field-independent basis, Debye):
    X=             -4.5697    Y=             -0.9863    Z=              1.3235  Tot=              4.8587
 Quadrupole moment (field-independent basis, Debye-Ang):
   XX=           -185.0594   YY=           -135.2171   ZZ=           -122.5640
   XY=              6.4726   XZ=              6.3538   YZ=              5.5369

 Summary of Natural Population Analysis:

                                       Natural Population
                Natural  -----------------------------------------------
    Atom  No    Charge         Core      Valence    Rydberg      Total
 -----------------------------------------------------------------------
      C    1   -0.06471      0.99965     2.05716    0.00790     3.06471
      C    2   -0.16746      0.99954     2.15726    0.01066     3.16746
      C    3   -0.06584      0.99966     2.05644    0.00975     3.06584
      N    4   -0.26152      0.99965     2.75136    0.01051     3.76152
      C    5    0.36035      0.99960     1.61892    0.02113     2.63965
      O    6   -0.31044      0.99988     3.30480    0.00575     4.31044
      C    7   -0.04063      0.99947     2.03191    0.00925     3.04063
      C    8   -0.05448      0.99948     2.04526    0.00975     3.05448
      C    9   -0.11091      0.99941     2.10200    0.00950     3.11091
      C   10    0.08842      0.99943     1.89923    0.01293     2.91158
      C   11   -0.09321      0.99953     2.08425    0.00944     3.09321
      C   12   -0.10390      0.99955     2.09640    0.00794     3.10390
      N   13   -0.25781      0.99967     2.74536    0.01279     3.75781
      C   14    0.04810      0.99966     1.93518    0.01707     2.95190
      S   15    0.15221      4.99948     2.82686    0.02145     7.84779
      C   16    0.40811      0.99968     1.56516    0.02705     2.59189
      O   17   -0.30570      0.99987     3.29980    0.00603     4.30570
      O   18   -0.34653      0.99988     3.34000    0.00665     4.34653
      H   19    0.09642      0.00000     0.40206    0.00152     0.40358
      H   20    0.10027      0.00000     0.39866    0.00107     0.39973
      H   21    0.11083      0.00000     0.38839    0.00079     0.38917
      H   22    0.10172      0.00000     0.39693    0.00135     0.39828
      H   23    0.09642      0.00000     0.40202    0.00156     0.40358
      H   24    0.10633      0.00000     0.39211    0.00156     0.39367
      H   25    0.09737      0.00000     0.40085    0.00178     0.40263
      H   26    0.09537      0.00000     0.40326    0.00137     0.40463
      H   27    0.08286      0.00000     0.41573    0.00142     0.41714
      H   28    0.23839      0.00000     0.25716    0.00444     0.26161
 =======================================================================
   * Total *    0.00000     21.99306    45.77451    0.23243    68.00000

 Normal termination of Gaussian 16 at Fri Dec 11 21:00:45 2020.
