 Gaussian 16, Revision A.03,

 -----------------------------------------------------------
 # opt freq B3LYP/6-31G(d) empiricaldispersion=gd3bj scf=xqc
 -----------------------------------------------------------

 ------------------------------
 CID_79966530_JID_2307_neutraal
 ------------------------------
 Symbolic Z-matrix:
 Charge =  0 Multiplicity = 1

 SCF Done:  E(RB3LYP) =  -1204.32913999     A.U. after   13 cycles
 SCF Done:  E(RB3LYP) =  -1204.33373949     A.U. after   12 cycles
 SCF Done:  E(RB3LYP) =  -1204.33378829     A.U. after   11 cycles
 SCF Done:  E(RB3LYP) =  -1204.33438343     A.U. after   11 cycles
 SCF Done:  E(RB3LYP) =  -1204.33461081     A.U. after   10 cycles
 SCF Done:  E(RB3LYP) =  -1204.33475881     A.U. after   10 cycles
 SCF Done:  E(RB3LYP) =  -1204.33476853     A.U. after   10 cycles
 SCF Done:  E(RB3LYP) =  -1204.33478681     A.U. after    9 cycles
 SCF Done:  E(RB3LYP) =  -1204.33478810     A.U. after    8 cycles
 SCF Done:  E(RB3LYP) =  -1204.33478841     A.U. after    7 cycles
 Optimization completed.
    -- Stationary point found.
 Normal termination of Gaussian 16 at Wed Dec  9 17:00:12 2020.

 --------------------------------------------------------------------
 #N Geom=AllCheck Guess=TCheck SCRF=Check GenChk RB3LYP/6-31G(d) Freq
 --------------------------------------------------------------------

 Structure from the checkpoint file:  "JID_2307.chk"
 ------------------------------
 CID_79966530_JID_2307_neutraal
 ------------------------------
 Charge =  0 Multiplicity = 1

 SCF Done:  E(RB3LYP) =  -1204.33478841     A.U. after    1 cycles

  Exact polarizability: 146.694   6.917 118.202  -3.499   0.239 119.678
 Approx polarizability: 200.741  14.703 175.756  -8.498   2.340 191.053

                      1                      2                      3
                      A                      A                      A
 Frequencies --     59.0605                95.4938               113.6759
 Red. masses --      4.1258                 3.0832                 3.9008
 Frc consts  --      0.0085                 0.0166                 0.0297
 IR Inten    --      0.0642                 1.4911                 0.4685

                      4                      5                      6
                      A                      A                      A
 Frequencies --    126.4668               157.0769               178.8820
 Red. masses --      2.9423                 2.7914                 3.5391
 Frc consts  --      0.0277                 0.0406                 0.0667
 IR Inten    --      4.4081                 0.9198                 3.8775

                      7                      8                      9
                      A                      A                      A
 Frequencies --    217.3810               237.0092               250.5853
 Red. masses --      2.3535                 2.2380                 3.1577
 Frc consts  --      0.0655                 0.0741                 0.1168
 IR Inten    --      0.0845                 0.3625                 0.3481

                     10                     11                     12
                      A                      A                      A
 Frequencies --    283.9852               288.0125               305.4606
 Red. masses --      2.1014                 2.1771                 6.6239
 Frc consts  --      0.0998                 0.1064                 0.3641
 IR Inten    --      1.4150                 3.8796                 0.3833

                     13                     14                     15
                      A                      A                      A
 Frequencies --    341.4789               388.9585               432.5172
 Red. masses --      2.3867                 3.2891                 3.1483
 Frc consts  --      0.1640                 0.2932                 0.3470
 IR Inten    --      1.7879                 1.9147                 0.7261

                     16                     17                     18
                      A                      A                      A
 Frequencies --    474.5122               531.4199               626.5001
 Red. masses --      2.9467                 2.7586                 5.3098
 Frc consts  --      0.3909                 0.4590                 1.2279
 IR Inten    --      0.5370                 3.0062                 0.8869

                     19                     20                     21
                      A                      A                      A
 Frequencies --    648.3076               672.7402               697.7143
 Red. masses --      5.2840                 3.4610                 2.4096
 Frc consts  --      1.3085                 0.9229                 0.6911
 IR Inten    --      2.8442                 4.7686                 7.0018

                     22                     23                     24
                      A                      A                      A
 Frequencies --    719.4092               771.8283               807.1729
 Red. masses --      2.3116                 4.5097                 1.1094
 Frc consts  --      0.7049                 1.5829                 0.4259
 IR Inten    --     35.4037                 5.5773                 3.2197

                     25                     26                     27
                      A                      A                      A
 Frequencies --    839.0126               850.8406               872.7651
 Red. masses --      1.2609                 1.8177                 1.8937
 Frc consts  --      0.5230                 0.7753                 0.8499
 IR Inten    --     48.3138                49.7321                13.9371

                     28                     29                     30
                      A                      A                      A
 Frequencies --    891.3828               938.1993               943.4623
 Red. masses --      2.0132                 2.0022                 2.6151
 Frc consts  --      0.9425                 1.0384                 1.3715
 IR Inten    --      9.8818                37.9576                 4.9338

                     31                     32                     33
                      A                      A                      A
 Frequencies --    967.0863              1004.6749              1012.3688
 Red. masses --      1.9341                 2.9551                 1.9024
 Frc consts  --      1.0658                 1.7574                 1.1487
 IR Inten    --      8.4907                15.6415                 6.3748

                     34                     35                     36
                      A                      A                      A
 Frequencies --   1022.7932              1065.4846              1069.1891
 Red. masses --      2.6051                 1.3546                 1.9262
 Frc consts  --      1.6057                 0.9060                 1.2974
 IR Inten    --      1.7989                 6.7566                 0.5386

                     37                     38                     39
                      A                      A                      A
 Frequencies --   1084.3810              1139.4042              1157.5192
 Red. masses --      1.3689                 2.3746                 1.0839
 Frc consts  --      0.9484                 1.8163                 0.8557
 IR Inten    --      1.0337                18.2171                 0.4064

                     40                     41                     42
                      A                      A                      A
 Frequencies --   1173.8156              1177.0285              1178.2476
 Red. masses --      1.5475                 1.2952                 1.2625
 Frc consts  --      1.2563                 1.0572                 1.0326
 IR Inten    --     19.8852                20.6104                 2.2455

                     43                     44                     45
                      A                      A                      A
 Frequencies --   1183.6052              1210.6016              1214.4298
 Red. masses --      1.2821                 1.4997                 1.5004
 Frc consts  --      1.0582                 1.2949                 1.3038
 IR Inten    --      3.8125                 4.1961                 1.3568

                     46                     47                     48
                      A                      A                      A
 Frequencies --   1254.8215              1261.5922              1270.1902
 Red. masses --      1.6139                 1.4052                 1.3211
 Frc consts  --      1.4973                 1.3177                 1.2558
 IR Inten    --     11.5012                 0.3843                 6.1047

                     49                     50                     51
                      A                      A                      A
 Frequencies --   1301.9297              1335.9767              1347.8370
 Red. masses --      1.3692                 1.3181                 1.2384
 Frc consts  --      1.3674                 1.3861                 1.3255
 IR Inten    --      3.7235                 9.2523                 7.4931

                     52                     53                     54
                      A                      A                      A
 Frequencies --   1369.0037              1371.7429              1388.2350
 Red. masses --      1.3071                 1.3680                 1.2883
 Frc consts  --      1.4433                 1.5166                 1.4628
 IR Inten    --      3.0560                 6.5877                 3.0313

                     55                     56                     57
                      A                      A                      A
 Frequencies --   1424.5052              1478.7373              1483.3024
 Red. masses --      1.4148                 1.1400                 1.1049
 Frc consts  --      1.6916                 1.4687                 1.4323
 IR Inten    --      1.6015                 5.5247                 0.3564

                     58                     59                     60
                      A                      A                      A
 Frequencies --   1488.6977              1492.1297              1510.7565
 Red. masses --      1.0978                 1.0972                 1.0911
 Frc consts  --      1.4335                 1.4392                 1.4672
 IR Inten    --      9.3449                 9.2876                 4.3123

                     61                     62                     63
                      A                      A                      A
 Frequencies --   1520.0922              1527.2265              1544.6083
 Red. masses --      1.0706                 1.1722                 1.2988
 Frc consts  --      1.4575                 1.6109                 1.8257
 IR Inten    --     16.1527                11.6836                 4.8149

                     64                     65                     66
                      A                      A                      A
 Frequencies --   1552.9697              2982.6005              3038.6213
 Red. masses --      1.0507                 1.0552                 1.0842
 Frc consts  --      1.4930                 5.5307                 5.8982
 IR Inten    --     11.7907                91.0350                15.7232

                     67                     68                     69
                      A                      A                      A
 Frequencies --   3059.3987              3061.4353              3071.0155
 Red. masses --      1.0795                 1.0617                 1.0733
 Frc consts  --      5.9533                 5.8628                 5.9639
 IR Inten    --     11.7539                 7.7370                20.4935

                     70                     71                     72
                      A                      A                      A
 Frequencies --   3071.4840              3081.3053              3113.1634
 Red. masses --      1.0695                 1.0662                 1.1074
 Frc consts  --      5.9445                 5.9642                 6.3238
 IR Inten    --     62.5974                22.8747                 7.0568

                     73                     74                     75
                      A                      A                      A
 Frequencies --   3115.7130              3141.3569              3148.8602
 Red. masses --      1.1022                 1.0948                 1.0808
 Frc consts  --      6.3042                 6.3654                 6.3141
 IR Inten    --     30.6140                 6.4973                20.6498

                     76                     77                     78
                      A                      A                      A
 Frequencies --   3150.2321              3154.8112              3158.3280
 Red. masses --      1.0523                 1.0694                 1.1004
 Frc consts  --      6.1531                 6.2711                 6.4670
 IR Inten    --     19.2234                13.2181                 1.8784

                     79                     80                     81
                      A                      A                      A
 Frequencies --   3219.5949              3231.4849              3505.2748
 Red. masses --      1.1179                 1.1147                 1.0743
 Frc consts  --      6.8274                 6.8583                 7.7769
 IR Inten    --      0.1832                35.5304                 8.5241

 - Thermochemistry -
 -------------------
 Temperature   298.150 Kelvin.  Pressure   1.00000 Atm.
 Atom     1 has atomic number  6 and mass  12.00000

 Molecular mass:   203.08024 amu.
 Principal axes and moments of inertia in atomic units:
                           1         2         3
     Eigenvalues --  1853.125513291.304643564.47639
           X            0.99999  -0.00053  -0.00501
           Y           -0.00049   0.97948  -0.20155
           Z            0.00501   0.20155   0.97947
 This molecule is an asymmetric top.
 Rotational symmetry number  1.
 Warning -- assumption of classical behavior for rotation
           may cause significant error
 Rotational temperatures (Kelvin)      0.04674     0.02632     0.02430
 Rotational constants (GHZ):           0.97389     0.54834     0.50631
 Zero-point vibrational energy     667821.1 (Joules/Mol)
                                  159.61308 (Kcal/Mol)
 Warning -- explicit consideration of  17 degrees of freedom as
           vibrations may cause significant error
 Vibrational temperatures:     84.97   137.39   163.55   181.96   226.00
          (Kelvin)            257.37   312.76   341.00   360.54   408.59
                              414.39   439.49   491.31   559.62   622.30
                              682.72   764.59   901.39   932.77   967.92
                             1003.86  1035.07  1110.49  1161.34  1207.15
                             1224.17  1255.71  1282.50  1349.86  1357.43
                             1391.42  1445.50  1456.57  1471.57  1532.99
                             1538.32  1560.18  1639.35  1665.41  1688.86
                             1693.48  1695.24  1702.94  1741.79  1747.29
                             1805.41  1815.15  1827.52  1873.19  1922.17
                             1939.24  1969.69  1973.63  1997.36  2049.55
                             2127.57  2134.14  2141.90  2146.84  2173.64
                             2187.07  2197.34  2222.35  2234.38  4291.30
                             4371.90  4401.79  4404.72  4418.51  4419.18
                             4433.31  4479.15  4482.82  4519.71  4530.51
                             4532.48  4539.07  4544.13  4632.28  4649.39
                             5043.31

 Zero-point correction=                           0.254360 (Hartree/Particle)
 Thermal correction to Energy=                    0.267248
 Thermal correction to Enthalpy=                  0.268192
 Thermal correction to Gibbs Free Energy=         0.215430
 Sum of electronic and zero-point Energies=          -1204.080429
 Sum of electronic and thermal Energies=             -1204.067540
 Sum of electronic and thermal Enthalpies=           -1204.066596
 Sum of electronic and thermal Free Energies=        -1204.119359

                     E (Thermal)             CV                S
                      KCal/Mol        Cal/Mol-Kelvin    Cal/Mol-Kelvin
 Total                  167.701             49.940            111.048
 Electronic               0.000              0.000              0.000
 Translational            0.889              2.981             41.830
 Rotational               0.889              2.981             31.453
 Vibrational            165.923             43.978             37.766
 Vibration     1          0.596              1.974              4.488
 Vibration     2          0.603              1.952              3.544
 Vibration     3          0.607              1.938              3.205
 Vibration     4          0.611              1.927              2.999
 Vibration     5          0.621              1.895              2.585
 Vibration     6          0.629              1.868              2.340
 Vibration     7          0.646              1.815              1.981
 Vibration     8          0.656              1.784              1.825
 Vibration     9          0.663              1.762              1.726
 Vibration    10          0.682              1.703              1.510
 Vibration    11          0.685              1.696              1.486
 Vibration    12          0.696              1.663              1.387
 Vibration    13          0.721              1.593              1.205
 Vibration    14          0.757              1.494              1.004
 Vibration    15          0.793              1.399              0.850
 Vibration    16          0.831              1.307              0.725
 Vibration    17          0.886              1.180              0.584

                           ! Non-Optimized Parameters !
 Normal termination of Gaussian 16 at Wed Dec  9 17:08:55 2020.

 ----------------------------------------------------------------------
 # B3LYP/6-311++G(d,p) empiricaldispersion=gd3bj scf=xqc pop=npa geom=c
 heck
 ----------------------------------------------------------------------

 --------------------------------------
 CID_79966530_JID_2307_Energie_neutraal
 --------------------------------------
 Structure from the checkpoint file:  "JID_2307.chk"
 Charge =  0 Multiplicity = 1

 SCF Done:  E(RB3LYP) =  -1204.50301303     A.U. after   13 cycles
 Normal termination of Gaussian 16 at Wed Dec  9 17:13:00 2020.

 ----------------------------------------------------------------------
 # B3LYP/6-311++G(d,p) empiricaldispersion=gd3bj scf=xqc pop=npa geom=c
 heck
 ----------------------------------------------------------------------

 ------------------------------------
 CID_79966530_JID_2307_Energie_kation
 ------------------------------------
 Structure from the checkpoint file:  "JID_2307.chk"
 Charge =  1 Multiplicity = 2

 SCF Done:  E(UB3LYP) =  -1204.22076230     A.U. after   21 cycles
 Normal termination of Gaussian 16 at Wed Dec  9 17:21:40 2020.
 Gaussian 16:  ES64L-G16RevA.03 25-Dec-2016

 ----------------------------------------------------------------------
 # B3LYP/6-311++G(d,p) empiricaldispersion=gd3bj scf=xqc pop=npa geom=c
 heck
 ----------------------------------------------------------------------

 -----------------------------------
 CID_79966530_JID_2307_Energie_anion
 -----------------------------------
 Structure from the checkpoint file:  "JID_2307.chk"
 Charge = -1 Multiplicity = 2

                         Standard orientation:
 ---------------------------------------------------------------------
 Center     Atomic      Atomic             Coordinates (Angstroms)
 Number     Number       Type             X           Y           Z
 ---------------------------------------------------------------------
      1          6           0       -1.463666    2.385918   -1.299952
      2          7           0       -0.600191    1.323289   -0.800818
      3          6           0       -1.059170    0.710206    0.447934
      4          6           0       -2.469943    0.102106    0.344208
      5          6           0       -2.816870   -1.040337   -0.578233
      6          6           0       -2.910478   -1.222585    0.918238
      7          6           0        0.017243   -0.211366    1.073120
      8          6           0        0.408861   -1.514434    0.357064
      9         16           0        1.268603   -1.351197   -1.255043
     10          6           0        2.743128   -0.403887   -0.707702
     11          6           0        2.407563    0.919054   -0.028138
     12         16           0        1.531194    0.724018    1.572680
     13          1           0       -1.523281    3.182707   -0.548641
     14          1           0       -2.493337    2.074372   -1.544373
     15          1           0       -1.017196    2.813184   -2.203811
     16          1           0       -0.485256    0.600177   -1.507522
     17          1           0       -1.144569    1.537277    1.164516
     18          1           0       -3.235300    0.873963    0.390310
     19          1           0       -3.739130   -0.976657   -1.148874
     20          1           0       -2.011941   -1.537542   -1.112256
     21          1           0       -2.178373   -1.858407    1.406434
     22          1           0       -3.897681   -1.279245    1.368592
     23          1           0       -0.382954   -0.519445    2.046609
     24          1           0        1.051280   -2.093451    1.027714
     25          1           0       -0.469252   -2.126031    0.140653
     26          1           0        3.317255   -0.222089   -1.622992
     27          1           0        3.343559   -1.039027   -0.048018
     28          1           0        1.795996    1.550404   -0.673805
     29          1           0        3.334767    1.443613    0.229771
 ---------------------------------------------------------------------

 SCF Done:  E(UB3LYP) =  -1204.48666009     A.U. after   30 cycles

 The electronic state is 2-A.
 Alpha  occ. eigenvalues --  -88.74770 -88.73900 -14.19356 -10.11728 -10.11286
 Alpha  occ. eigenvalues --  -10.10916 -10.10815 -10.09866 -10.08502 -10.07910
 Alpha  occ. eigenvalues --  -10.07666 -10.07484  -7.83407  -7.82529  -5.79794
 Alpha  occ. eigenvalues --   -5.79448  -5.78919  -5.78767  -5.78565  -5.77890
 Alpha  occ. eigenvalues --   -0.81344  -0.75760  -0.74521  -0.68470  -0.66611
 Alpha  occ. eigenvalues --   -0.60920  -0.55552  -0.53743  -0.52677  -0.50678
 Alpha  occ. eigenvalues --   -0.47394  -0.44795  -0.41157  -0.38693  -0.37773
 Alpha  occ. eigenvalues --   -0.36682  -0.36213  -0.34895  -0.33875  -0.31960
 Alpha  occ. eigenvalues --   -0.31016  -0.30096  -0.29480  -0.27671  -0.27132
 Alpha  occ. eigenvalues --   -0.26960  -0.25558  -0.23069  -0.22614  -0.20754
 Alpha  occ. eigenvalues --   -0.19987  -0.19387  -0.13909  -0.13087  -0.12175
 Alpha  occ. eigenvalues --    0.04478
 Alpha virt. eigenvalues --    0.05945   0.06816   0.07951   0.08121   0.08621
 Alpha virt. eigenvalues --    0.08900   0.09758   0.10317   0.10592   0.11234
 Alpha virt. eigenvalues --    0.11535   0.12286   0.12767   0.13442   0.13617

  Beta  occ. eigenvalues --  -88.74768 -88.73897 -14.19350 -10.11725 -10.11276
  Beta  occ. eigenvalues --  -10.10910 -10.10788 -10.09851 -10.08476 -10.07895
  Beta  occ. eigenvalues --  -10.07639 -10.07467  -7.83405  -7.82526  -5.79792
  Beta  occ. eigenvalues --   -5.79445  -5.78917  -5.78766  -5.78560  -5.77887
  Beta  occ. eigenvalues --   -0.81330  -0.75731  -0.74499  -0.68443  -0.66591
  Beta  occ. eigenvalues --   -0.60887  -0.55502  -0.53718  -0.52631  -0.50607
  Beta  occ. eigenvalues --   -0.47348  -0.44763  -0.41120  -0.38652  -0.37719
  Beta  occ. eigenvalues --   -0.36652  -0.36182  -0.34868  -0.33844  -0.31931
  Beta  occ. eigenvalues --   -0.30993  -0.30062  -0.29448  -0.27640  -0.27100
  Beta  occ. eigenvalues --   -0.26934  -0.25535  -0.23042  -0.22594  -0.20726
  Beta  occ. eigenvalues --   -0.19957  -0.19361  -0.13895  -0.13071  -0.12154
  Beta virt. eigenvalues --    0.06702   0.07259   0.07333   0.08262   0.08815
  Beta virt. eigenvalues --    0.09079   0.09425   0.09894   0.10701   0.11033
  Beta virt. eigenvalues --    0.11565   0.11897   0.12576   0.13034   0.13528

 Mulliken charges and spin densities:
               1          2
     1  C    0.432904  -0.797150
     2  N   -0.088220   0.071140
     3  C    0.547657  -1.060183
     4  C   -0.940384   0.822141
     5  C    0.238390  -0.710116
     6  C    0.746988  -1.091968
     7  C    0.340201   0.278297
     8  C   -0.654130  -0.422122
     9  S   -0.033158   0.333644
    10  C    0.297110  -1.024774
    11  C   -0.413261  -0.040295
    12  S    0.593349  -0.638142
    13  H   -0.131135   0.283631
    14  H   -0.076149   0.219631
    15  H   -0.229704   0.359495
    16  H    0.172230   0.017850
    17  H   -0.043009   0.193879
    18  H   -0.581202   0.852189
    19  H   -0.190840   0.365656
    20  H   -0.077142   0.211146
    21  H   -0.193931   0.304220
    22  H   -0.629854   0.805601
    23  H    0.044248   0.270579
    24  H   -0.045226   0.274968
    25  H    0.485377  -0.300205
    26  H   -0.527573   0.757411
    27  H    0.131042   0.036207
    28  H    0.351390  -0.135187
    29  H   -0.525968   0.762456
 Sum of Mulliken charges =  -1.00000   1.00000

 Dipole moment (field-independent basis, Debye):
    X=              3.0269    Y=             -2.1173    Z=              0.1619  Tot=              3.6975
 Quadrupole moment (field-independent basis, Debye-Ang):
   XX=           -179.3572   YY=           -129.1762   ZZ=           -128.1224
   XY=             -1.4854   XZ=              7.7565   YZ=              1.4688

 Summary of Natural Population Analysis:

                                       Natural Population
                Natural  -----------------------------------------------
    Atom  No    Charge         Core      Valence    Rydberg      Total
 -----------------------------------------------------------------------
      C    1   -0.17823      0.99965     2.17061    0.00796     3.17823
      N    2   -0.35112      0.99975     2.83913    0.01225     3.85112
      C    3   -0.01370      0.99952     1.99722    0.01696     3.01370
      C    4   -0.12556      0.99958     2.11202    0.01396     3.12556
      C    5   -0.20094      0.99961     2.19153    0.00981     3.20094
      C    6   -0.19574      0.99961     2.18644    0.00969     3.19574
      C    7   -0.16945      0.99951     2.15381    0.01612     3.16945
      C    8   -0.25951      0.99953     2.24881    0.01117     3.25951
      S    9    0.08439      4.99963     2.89843    0.01755     7.91561
      C   10   -0.25367      0.99957     2.24167    0.01243     3.25367
      C   11   -0.26154      0.99957     2.24956    0.01241     3.26154
      S   12    0.09147      4.99961     2.89301    0.01591     7.90853
      H   13    0.09189      0.00000     0.40697    0.00113     0.40811
      H   14    0.08289      0.00000     0.41563    0.00148     0.41711
      H   15    0.09368      0.00000     0.40553    0.00079     0.40632
      H   16    0.17899      0.00000     0.31787    0.00313     0.32101
      H   17    0.10137      0.00000     0.39675    0.00189     0.39863
      H   18    0.10919      0.00000     0.38839    0.00242     0.39081
      H   19    0.10561      0.00000     0.39320    0.00120     0.39439
      H   20    0.09759      0.00000     0.40110    0.00131     0.40241
      H   21    0.09738      0.00000     0.40148    0.00114     0.40262
      H   22    0.10735      0.00000     0.39044    0.00221     0.39265
      H   23    0.11288      0.00000     0.38567    0.00145     0.38712
      H   24    0.10649      0.00000     0.39199    0.00152     0.39351
      H   25    0.10977      0.00000     0.38860    0.00164     0.39023
      H   26    0.11072      0.00000     0.38715    0.00213     0.38928
      H   27    0.10119      0.00000     0.39704    0.00178     0.39881
      H   28    0.11932      0.00000     0.37886    0.00181     0.38068
      H   29    0.10729      0.00000     0.39101    0.00170     0.39271
 =======================================================================
   * Total *    0.00000     19.99514    34.81990    0.18496    55.00000

 Normal termination of Gaussian 16 at Wed Dec  9 17:33:53 2020.
