 Gaussian 16, Revision A.03,

 -----------------------------------------------------------
 # opt freq B3LYP/6-31G(d) empiricaldispersion=gd3bj scf=xqc
 -----------------------------------------------------------

 ------------------------------
 CID_83256254_JID_8631_neutraal
 ------------------------------
 Symbolic Z-matrix:
 Charge =  0 Multiplicity = 1

 SCF Done:  E(RB3LYP) =  -1201.49874664     A.U. after   15 cycles
 SCF Done:  E(RB3LYP) =  -1201.45097418     A.U. after   13 cycles
 SCF Done:  E(RB3LYP) =  -1201.50401796     A.U. after   12 cycles
 SCF Done:  E(RB3LYP) =  -1201.50285222     A.U. after   13 cycles
 SCF Done:  E(RB3LYP) =  -1201.50550142     A.U. after   12 cycles
 SCF Done:  E(RB3LYP) =  -1201.50571453     A.U. after   12 cycles
 SCF Done:  E(RB3LYP) =  -1201.50604097     A.U. after   12 cycles
 SCF Done:  E(RB3LYP) =  -1201.50629192     A.U. after   12 cycles
 SCF Done:  E(RB3LYP) =  -1201.50643532     A.U. after   12 cycles
 SCF Done:  E(RB3LYP) =  -1201.50659613     A.U. after   11 cycles
 SCF Done:  E(RB3LYP) =  -1201.50665786     A.U. after    8 cycles
 SCF Done:  E(RB3LYP) =  -1201.50665810     A.U. after    8 cycles
 SCF Done:  E(RB3LYP) =  -1201.50665819     A.U. after    8 cycles
 SCF Done:  E(RB3LYP) =  -1201.50665821     A.U. after    7 cycles
 Optimization completed.
    -- Stationary point found.
 Normal termination of Gaussian 16 at Fri Dec 11 21:34:07 2020.

 --------------------------------------------------------------------
 #N Geom=AllCheck Guess=TCheck SCRF=Check GenChk RB3LYP/6-31G(d) Freq
 --------------------------------------------------------------------

 Structure from the checkpoint file:  "JID_8631.chk"
 ------------------------------
 CID_83256254_JID_8631_neutraal
 ------------------------------
 Charge =  0 Multiplicity = 1

 SCF Done:  E(RB3LYP) =  -1201.50665821     A.U. after    1 cycles

  Exact polarizability: 184.822  -9.993 143.913  -6.595 -14.553 136.777
 Approx polarizability: 247.443 -16.430 228.924 -10.745 -30.025 223.858

                      1                      2                      3
                      A                      A                      A
 Frequencies --     22.0194                30.6016                55.6915
 Red. masses --      7.0302                 4.9886                 4.0659
 Frc consts  --      0.0020                 0.0028                 0.0074
 IR Inten    --      0.1954                 1.1857                 0.6135

                      4                      5                      6
                      A                      A                      A
 Frequencies --     67.3302                75.4636                97.0435
 Red. masses --      5.3619                 6.7573                 3.7297
 Frc consts  --      0.0143                 0.0227                 0.0207
 IR Inten    --      2.1319                 0.8801                 0.8710

                      7                      8                      9
                      A                      A                      A
 Frequencies --    103.3066               129.6514               144.3774
 Red. masses --      4.6758                 3.0442                 3.4562
 Frc consts  --      0.0294                 0.0301                 0.0424
 IR Inten    --      2.1225                 4.5093                 1.6806

                     10                     11                     12
                      A                      A                      A
 Frequencies --    163.6940               166.1982               224.9776
 Red. masses --      4.4551                 2.7429                 1.4683
 Frc consts  --      0.0703                 0.0446                 0.0438
 IR Inten    --      4.2343                14.1293                 4.9569

                     13                     14                     15
                      A                      A                      A
 Frequencies --    230.5733               246.7441               259.9097
 Red. masses --      2.3297                 4.3931                 3.3408
 Frc consts  --      0.0730                 0.1576                 0.1330
 IR Inten    --      1.3243                 2.4562                 2.2865

                     16                     17                     18
                      A                      A                      A
 Frequencies --    274.0886               358.0277               368.1241
 Red. masses --      2.4510                 4.6120                 2.8905
 Frc consts  --      0.1085                 0.3483                 0.2308
 IR Inten    --      0.1291                 6.6542                 1.6010

                     19                     20                     21
                      A                      A                      A
 Frequencies --    380.4726               435.1421               465.1763
 Red. masses --      4.1165                 2.1294                 5.2419
 Frc consts  --      0.3511                 0.2376                 0.6683
 IR Inten    --      7.9137                 3.0207                 3.9068

                     22                     23                     24
                      A                      A                      A
 Frequencies --    491.1966               497.1816               553.5584
 Red. masses --      3.1404                 4.8148                 2.3954
 Frc consts  --      0.4464                 0.7012                 0.4325
 IR Inten    --      5.0190                 5.0475                 8.9167

                     25                     26                     27
                      A                      A                      A
 Frequencies --    572.5293               590.4514               626.7274
 Red. masses --      3.2618                 3.5314                 6.0800
 Frc consts  --      0.6300                 0.7254                 1.4071
 IR Inten    --      2.3699                10.7549                 8.7844

                     28                     29                     30
                      A                      A                      A
 Frequencies --    662.3147               693.9667               707.3126
 Red. masses --      4.1771                 3.8638                 1.2813
 Frc consts  --      1.0796                 1.0963                 0.3777
 IR Inten    --      2.0635                 3.9337                63.6943

                     31                     32                     33
                      A                      A                      A
 Frequencies --    752.1883               766.6355               830.6845
 Red. masses --      6.4802                 3.7638                 2.2915
 Frc consts  --      2.1602                 1.3033                 0.9316
 IR Inten    --      0.2021                33.2155                 3.4480

                     34                     35                     36
                      A                      A                      A
 Frequencies --    843.2696               862.6211               864.5690
 Red. masses --      1.7770                 2.6318                 3.8424
 Frc consts  --      0.7445                 1.1539                 1.6922
 IR Inten    --      8.6120                20.4863                16.3041

                     37                     38                     39
                      A                      A                      A
 Frequencies --    874.2993               912.7435               921.6692
 Red. masses --      2.1227                 2.1370                 1.4068
 Frc consts  --      0.9560                 1.0489                 0.7041
 IR Inten    --     14.5112                21.4808                 5.2044

                     40                     41                     42
                      A                      A                      A
 Frequencies --    940.6550               946.0261               972.5476
 Red. masses --      2.2991                 2.8777                 1.7947
 Frc consts  --      1.1986                 1.5174                 1.0001
 IR Inten    --      1.9993                42.3350                 6.3895

                     43                     44                     45
                      A                      A                      A
 Frequencies --   1005.7361              1030.5686              1051.7898
 Red. masses --      2.8482                 3.1277                 1.7866
 Frc consts  --      1.6974                 1.9572                 1.1645
 IR Inten    --     19.5613                50.6096                 6.9024

                     46                     47                     48
                      A                      A                      A
 Frequencies --   1058.4293              1086.8747              1102.9576
 Red. masses --      2.8467                 1.7634                 2.9399
 Frc consts  --      1.8790                 1.2273                 2.1072
 IR Inten    --     11.1304                15.5531                14.1246

                     49                     50                     51
                      A                      A                      A
 Frequencies --   1118.7206              1122.2556              1133.4399
 Red. masses --      1.3704                 1.9733                 3.6127
 Frc consts  --      1.0105                 1.4643                 2.7345
 IR Inten    --      3.2977                28.8797                80.4043

                     52                     53                     54
                      A                      A                      A
 Frequencies --   1159.1716              1179.2933              1181.9868
 Red. masses --      3.6783                 2.5568                 3.2715
 Frc consts  --      2.9120                 2.0950                 2.6929
 IR Inten    --     67.0390                61.1145                37.2488

                     55                     56                     57
                      A                      A                      A
 Frequencies --   1192.4509              1221.5091              1227.7758
 Red. masses --      1.5028                 1.2178                 1.7307
 Frc consts  --      1.2591                 1.0706                 1.5371
 IR Inten    --     13.5601                 8.3616                55.0860

                     58                     59                     60
                      A                      A                      A
 Frequencies --   1236.1902              1258.5405              1292.2918
 Red. masses --      1.9467                 1.3928                 1.4143
 Frc consts  --      1.7528                 1.2997                 1.3916
 IR Inten    --      6.4453                30.2627                50.4918

                     61                     62                     63
                      A                      A                      A
 Frequencies --   1295.0372              1310.0131              1330.6699
 Red. masses --      1.1649                 1.1931                 1.4350
 Frc consts  --      1.1511                 1.2064                 1.4971
 IR Inten    --      2.3953                12.1686                51.6764

                     64                     65                     66
                      A                      A                      A
 Frequencies --   1339.3460              1346.3926              1380.2493
 Red. masses --      1.2910                 1.3508                 1.6027
 Frc consts  --      1.3645                 1.4428                 1.7989
 IR Inten    --      8.6227                22.8983                35.7789

                     67                     68                     69
                      A                      A                      A
 Frequencies --   1392.9019              1404.6154              1416.1644
 Red. masses --      2.0841                 1.2714                 1.4444
 Frc consts  --      2.3824                 1.4779                 1.7067
 IR Inten    --      9.2208                23.5109                45.8976

                     70                     71                     72
                      A                      A                      A
 Frequencies --   1427.1386              1456.7072              1458.0324
 Red. masses --      1.2748                 2.1799                 1.4009
 Frc consts  --      1.5298                 2.7253                 1.7546
 IR Inten    --     15.8216                79.8513                 5.3724

                     73                     74                     75
                      A                      A                      A
 Frequencies --   1494.4301              1500.9456              1505.6112
 Red. masses --      1.1338                 3.5455                 1.1740
 Frc consts  --      1.4919                 4.7061                 1.5680
 IR Inten    --      1.2070                13.4441                 2.9955

                     76                     77                     78
                      A                      A                      A
 Frequencies --   1512.2120              1517.6726              1520.9759
 Red. masses --      1.1765                 1.0681                 1.1175
 Frc consts  --      1.5851                 1.4495                 1.5231
 IR Inten    --     10.1765                 9.6622                 0.7684

                     79                     80                     81
                      A                      A                      A
 Frequencies --   1533.0898              1541.5334              1547.0645
 Red. masses --      1.0885                 1.2147                 1.0633
 Frc consts  --      1.5074                 1.7007                 1.4994
 IR Inten    --      8.2567                17.3558                14.4571

                     82                     83                     84
                      A                      A                      A
 Frequencies --   1548.7637              1603.8404              1802.0799
 Red. masses --      1.0997                 5.2639                11.2193
 Frc consts  --      1.5542                 7.9778                21.4667
 IR Inten    --      1.8101                 3.3414               325.5025

                     85                     86                     87
                      A                      A                      A
 Frequencies --   2988.9719              3018.0588              3039.3072
 Red. masses --      1.0691                 1.0407                 1.0598
 Frc consts  --      5.6274                 5.5849                 5.7679
 IR Inten    --     57.5601                53.3708                60.0277

                     88                     89                     90
                      A                      A                      A
 Frequencies --   3048.9797              3064.7879              3065.5522
 Red. masses --      1.0626                 1.0639                 1.0661
 Frc consts  --      5.8198                 5.8878                 5.9028
 IR Inten    --     51.4567                42.7448                21.4802

                     91                     92                     93
                      A                      A                      A
 Frequencies --   3071.8718              3091.1991              3093.3444
 Red. masses --      1.0920                 1.0953                 1.1053
 Frc consts  --      6.0710                 6.1664                 6.2313
 IR Inten    --     25.6525                47.0731                33.4751

                     94                     95                     96
                      A                      A                      A
 Frequencies --   3102.3874              3107.3853              3126.5881
 Red. masses --      1.0868                 1.1027                 1.1027
 Frc consts  --      6.1628                 6.2731                 6.3510
 IR Inten    --     12.4648                 6.2200                23.3175

                     97                     98                     99
                      A                      A                      A
 Frequencies --   3142.9812              3144.0049              3221.3167
 Red. masses --      1.1039                 1.0984                 1.0896
 Frc consts  --      6.4246                 6.3971                 6.6618
 IR Inten    --     19.2665                13.8368                 9.7471

                    100                    101                    102
                      A                      A                      A
 Frequencies --   3250.0977              3270.7366              3456.2371
 Red. masses --      1.0940                 1.0973                 1.0750
 Frc consts  --      6.8083                 6.9160                 7.5661
 IR Inten    --      0.6590                 1.8811               109.0548

 - Thermochemistry -
 -------------------
 Temperature   298.150 Kelvin.  Pressure   1.00000 Atm.
 Atom     1 has atomic number  6 and mass  12.00000

 Molecular mass:   270.10381 amu.
 Principal axes and moments of inertia in atomic units:
                           1         2         3
     Eigenvalues --  2904.757796951.438997563.83977
           X            0.99996   0.00105   0.00932
           Y           -0.00082   0.99969  -0.02495
           Z           -0.00934   0.02495   0.99965
 This molecule is an asymmetric top.
 Rotational symmetry number  1.
 Warning -- assumption of classical behavior for rotation
           may cause significant error
 Rotational temperatures (Kelvin)      0.02982     0.01246     0.01145
 Rotational constants (GHZ):           0.62131     0.25962     0.23860
 Zero-point vibrational energy     791515.4 (Joules/Mol)
                                  189.17672 (Kcal/Mol)
 Warning -- explicit consideration of  26 degrees of freedom as
           vibrations may cause significant error
 Vibrational temperatures:     31.68    44.03    80.13    96.87   108.58
          (Kelvin)            139.62   148.64   186.54   207.73   235.52
                              239.12   323.69   331.74   355.01   373.95
                              394.35   515.12   529.65   547.42   626.07
                              669.28   706.72   715.33   796.45   823.74
                              849.53   901.72   952.92   998.46  1017.67
                             1082.23  1103.02  1195.17  1213.28  1241.12
                             1243.92  1257.92  1313.23  1326.08  1353.39
                             1361.12  1399.28  1447.03  1482.76  1513.29
                             1522.84  1563.77  1586.91  1609.59  1614.68
                             1630.77  1667.79  1696.74  1700.62  1715.67
                             1757.48  1766.50  1778.60  1810.76  1859.32
                             1863.27  1884.82  1914.54  1927.02  1937.16
                             1985.87  2004.08  2020.93  2037.54  2053.33
                             2095.88  2097.78  2150.15  2159.53  2166.24
                             2175.74  2183.59  2188.35  2205.77  2217.92
                             2225.88  2228.33  2307.57  2592.79  4300.46
                             4342.31  4372.89  4386.80  4409.55  4410.65
                             4419.74  4447.55  4450.63  4463.64  4470.83
                             4498.46  4522.05  4523.52  4634.76  4676.17
                             4705.86  4972.75

 Zero-point correction=                           0.301472 (Hartree/Particle)
 Thermal correction to Energy=                    0.319282
 Thermal correction to Enthalpy=                  0.320226
 Thermal correction to Gibbs Free Energy=         0.253789
 Sum of electronic and zero-point Energies=          -1201.205186
 Sum of electronic and thermal Energies=             -1201.187376
 Sum of electronic and thermal Enthalpies=           -1201.186432
 Sum of electronic and thermal Free Energies=        -1201.252869

                     E (Thermal)             CV                S
                      KCal/Mol        Cal/Mol-Kelvin    Cal/Mol-Kelvin
 Total                  200.352             65.971            139.828
 Electronic               0.000              0.000              0.000
 Translational            0.889              2.981             42.680
 Rotational               0.889              2.981             33.390
 Vibrational            198.575             60.010             63.758
 Vibration     1          0.593              1.985              6.443
 Vibration     2          0.594              1.984              5.790
 Vibration     3          0.596              1.975              4.604
 Vibration     4          0.598              1.970              4.230
 Vibration     5          0.599              1.965              4.006
 Vibration     6          0.603              1.951              3.513
 Vibration     7          0.605              1.947              3.391
 Vibration     8          0.612              1.924              2.951
 Vibration     9          0.616              1.909              2.745
 Vibration    10          0.623              1.887              2.507
 Vibration    11          0.624              1.884              2.478
 Vibration    12          0.650              1.803              1.919
 Vibration    13          0.652              1.794              1.874
 Vibration    14          0.661              1.768              1.754
 Vibration    15          0.668              1.746              1.662
 Vibration    16          0.676              1.721              1.570
 Vibration    17          0.733              1.559              1.131
 Vibration    18          0.741              1.538              1.088
 Vibration    19          0.750              1.512              1.037
 Vibration    20          0.796              1.394              0.842
 Vibration    21          0.823              1.327              0.751
 Vibration    22          0.847              1.270              0.681
 Vibration    23          0.853              1.256              0.665
 Vibration    24          0.909              1.132              0.537
 Vibration    25          0.929              1.091              0.499
 Vibration    26          0.948              1.052              0.466

                           ! Non-Optimized Parameters !
 Normal termination of Gaussian 16 at Fri Dec 11 21:54:19 2020.

 ----------------------------------------------------------------------
 # B3LYP/6-311++G(d,p) empiricaldispersion=gd3bj scf=xqc pop=npa geom=c
 heck
 ----------------------------------------------------------------------

 --------------------------------------
 CID_83256254_JID_8631_Energie_neutraal
 --------------------------------------
 Structure from the checkpoint file:  "JID_8631.chk"
 Charge =  0 Multiplicity = 1

 SCF Done:  E(RB3LYP) =  -1201.76508369     A.U. after   15 cycles
 Normal termination of Gaussian 16 at Fri Dec 11 22:03:19 2020.

 ----------------------------------------------------------------------
 # B3LYP/6-311++G(d,p) empiricaldispersion=gd3bj scf=xqc pop=npa geom=c
 heck
 ----------------------------------------------------------------------

 ------------------------------------
 CID_83256254_JID_8631_Energie_kation
 ------------------------------------
 Structure from the checkpoint file:  "JID_8631.chk"
 Charge =  1 Multiplicity = 2

 SCF Done:  E(UB3LYP) =  -1201.46603494     A.U. after   33 cycles
 SCF Done:  E(UB3LYP) =  -1201.46603494     a.u. after    1 cycles
 Normal termination of Gaussian 16 at Fri Dec 11 22:31:50 2020.
 Gaussian 16:  ES64L-G16RevA.03 25-Dec-2016

 ----------------------------------------------------------------------
 # B3LYP/6-311++G(d,p) empiricaldispersion=gd3bj scf=xqc pop=npa geom=c
 heck
 ----------------------------------------------------------------------

 -----------------------------------
 CID_83256254_JID_8631_Energie_anion
 -----------------------------------
 Structure from the checkpoint file:  "JID_8631.chk"
 Charge = -1 Multiplicity = 2

                         Standard orientation:
 ---------------------------------------------------------------------
 Center     Atomic      Atomic             Coordinates (Angstroms)
 Number     Number       Type             X           Y           Z
 ---------------------------------------------------------------------
      1          6           0       -2.140481   -2.549778   -1.063224
      2          8           0       -2.601452   -1.959777    0.144973
      3          6           0       -3.714923   -1.089616   -0.030728
      4          6           0       -3.311384    0.372399   -0.065295
      5          8           0       -2.503988    0.613746   -1.207384
      6          6           0       -1.861862    1.885984   -1.202600
      7          6           0       -0.348872    1.720326   -1.033857
      8          7           0       -0.021208    0.928692    0.137075
      9          6           0        0.502247   -0.447161    0.097037
     10          7           0        0.085124   -1.047097    1.365316
     11          6           0        0.008381    0.093691    2.292985
     12          6           0       -0.312674    1.311670    1.414301
     13          8           0       -0.763548    2.396448    1.756856
     14          6           0        2.009979   -0.485368   -0.027282
     15          6           0        2.870043   -1.334701    0.613514
     16          6           0        4.236780   -1.137773    0.242839
     17          6           0        4.397620   -0.142688   -0.679088
     18         16           0        2.876679    0.580787   -1.107706
     19          1           0       -1.263374   -3.149135   -0.805500
     20          1           0       -1.866908   -1.788327   -1.802273
     21          1           0       -2.906630   -3.210514   -1.494752
     22          1           0       -4.261300   -1.352643   -0.946354
     23          1           0       -4.386428   -1.244369    0.822618
     24          1           0       -4.223316    0.992784   -0.093711
     25          1           0       -2.771211    0.625898    0.855365
     26          1           0       -2.069504    2.384955   -2.157716
     27          1           0       -2.249251    2.512902   -0.393628
     28          1           0        0.066785    1.210751   -1.907536
     29          1           0        0.120802    2.708910   -0.965603
     30          1           0        0.038369   -0.978924   -0.737979
     31          1           0       -0.860691   -1.403801    1.215519
     32          1           0       -0.759740   -0.053212    3.054901
     33          1           0        0.968639    0.250441    2.799554
     34          1           0        2.517292   -2.067427    1.328436
     35          1           0        5.062058   -1.709765    0.652652
     36          1           0        5.312909    0.222478   -1.124605
 ---------------------------------------------------------------------

 SCF Done:  E(UB3LYP) =  -1201.75318285     A.U. after   33 cycles
 SCF Done:  E(UB3LYP) =  -1201.75318285     a.u. after    1 cycles

 The electronic state is 2-A.
 Alpha  occ. eigenvalues --  -88.77166 -19.03757 -19.03373 -18.99913 -14.24669
 Alpha  occ. eigenvalues --  -14.21195 -10.17527 -10.15299 -10.12584 -10.12509
 Alpha  occ. eigenvalues --  -10.12448 -10.11844 -10.11466 -10.11198 -10.09368
 Alpha  occ. eigenvalues --  -10.09303 -10.07622 -10.06928  -7.85791  -5.82078
 Alpha  occ. eigenvalues --   -5.81713  -5.81396  -0.95606  -0.94916  -0.93754
 Alpha  occ. eigenvalues --   -0.88203  -0.79503  -0.77702  -0.68630  -0.66404
 Alpha  occ. eigenvalues --   -0.65005  -0.63235  -0.61195  -0.58921  -0.55280
 Alpha  occ. eigenvalues --   -0.54280  -0.51197  -0.47391  -0.45192  -0.44291
 Alpha  occ. eigenvalues --   -0.43251  -0.41815  -0.41349  -0.40801  -0.39317
 Alpha  occ. eigenvalues --   -0.38256  -0.38020  -0.36692  -0.35079  -0.33946
 Alpha  occ. eigenvalues --   -0.33291  -0.33022  -0.32336  -0.30777  -0.30757
 Alpha  occ. eigenvalues --   -0.30498  -0.29397  -0.28776  -0.28207  -0.27467
 Alpha  occ. eigenvalues --   -0.27101  -0.26382  -0.24328  -0.23444  -0.23370
 Alpha  occ. eigenvalues --   -0.19471  -0.17829  -0.16945  -0.15872  -0.15326
 Alpha  occ. eigenvalues --   -0.14164  -0.13773   0.04386
 Alpha virt. eigenvalues --    0.06171   0.06719   0.07124   0.07325   0.08209
 Alpha virt. eigenvalues --    0.08549   0.09724   0.09827   0.09847   0.10322
 Alpha virt. eigenvalues --    0.10482   0.10831   0.11976   0.12223   0.12963

  Beta  occ. eigenvalues --  -88.77151 -19.03747 -19.03360 -18.99910 -14.24657
  Beta  occ. eigenvalues --  -14.21192 -10.17522 -10.15302 -10.12569 -10.12482
  Beta  occ. eigenvalues --  -10.12432 -10.11834 -10.11429 -10.11195 -10.09223
  Beta  occ. eigenvalues --  -10.09165 -10.07615 -10.06916  -7.85776  -5.82074
  Beta  occ. eigenvalues --   -5.81709  -5.81343  -0.95589  -0.94903  -0.93736
  Beta  occ. eigenvalues --   -0.88179  -0.79482  -0.77558  -0.68596  -0.66274
  Beta  occ. eigenvalues --   -0.64965  -0.63134  -0.61072  -0.58863  -0.55220
  Beta  occ. eigenvalues --   -0.54246  -0.51124  -0.47243  -0.45120  -0.44205
  Beta  occ. eigenvalues --   -0.43178  -0.41740  -0.41310  -0.40756  -0.39255
  Beta  occ. eigenvalues --   -0.38220  -0.37978  -0.36655  -0.35039  -0.33918
  Beta  occ. eigenvalues --   -0.33263  -0.32989  -0.32285  -0.30723  -0.30709
  Beta  occ. eigenvalues --   -0.30406  -0.29349  -0.28728  -0.28129  -0.27406
  Beta  occ. eigenvalues --   -0.26816  -0.26330  -0.24219  -0.23391  -0.23316
  Beta  occ. eigenvalues --   -0.19449  -0.17804  -0.16907  -0.15754  -0.15094
  Beta  occ. eigenvalues --   -0.14152  -0.13055
  Beta virt. eigenvalues --    0.06486   0.06938   0.07542   0.07680   0.08135
  Beta virt. eigenvalues --    0.08329   0.08743   0.09886   0.10205   0.10276
  Beta virt. eigenvalues --    0.10523   0.10594   0.11068   0.12189   0.12422

 Mulliken charges and spin densities:
               1          2
     1  C    0.602857  -0.958126
     2  O   -0.176432   0.061964
     3  C    0.875655  -1.341173
     4  C   -0.451962   0.316960
     5  O   -0.054076   0.012975
     6  C    0.056134  -0.513999
     7  C    0.044882   0.001549
     8  N    0.364471  -0.020479
     9  C   -0.182645  -0.447345
    10  N   -0.082582   0.110996
    11  C   -0.109930  -0.160318
    12  C   -0.222330   0.053701
    13  O   -0.320927   0.000128
    14  C   -0.549009  -0.329460
    15  C    0.876690   0.426218
    16  C   -0.827722  -0.187926
    17  C    0.217957   0.095241
    18  S   -0.608507   0.124985
    19  H    0.068389   0.092381
    20  H   -0.109612   0.278105
    21  H   -0.675428   0.828819
    22  H   -0.057508   0.225851
    23  H   -0.394550   0.574421
    24  H   -0.625669   0.787797
    25  H    0.362390  -0.195487
    26  H   -0.378872   0.552397
    27  H    0.245142  -0.053046
    28  H   -0.075065   0.236796
    29  H    0.132963   0.048580
    30  H    0.144956   0.029644
    31  H    0.365187  -0.004304
    32  H    0.096123   0.095364
    33  H    0.195677  -0.015833
    34  H    0.116363   0.081587
    35  H    0.048771   0.066237
    36  H    0.088222   0.124801
 Sum of Mulliken charges =  -1.00000   1.00000

 Dipole moment (field-independent basis, Debye):
    X=              5.9386    Y=              1.4408    Z=              2.1033  Tot=              6.4628
 Quadrupole moment (field-independent basis, Debye-Ang):
   XX=           -192.6126   YY=           -162.1637   ZZ=           -151.1090
   XY=             -5.7963   XZ=             -5.4235   YZ=             -7.8098

 Summary of Natural Population Analysis:

                                       Natural Population
                Natural  -----------------------------------------------
    Atom  No    Charge         Core      Valence    Rydberg      Total
 -----------------------------------------------------------------------
      C    1   -0.10212      0.99960     2.09288    0.00964     3.10212
      O    2   -0.31000      0.99989     3.29876    0.01134     4.31000
      C    3   -0.01634      0.99956     2.00281    0.01397     3.01634
      C    4   -0.01909      0.99956     2.00667    0.01286     3.01909
      O    5   -0.30859      0.99988     3.29754    0.01117     4.30859
      C    6   -0.01314      0.99957     2.00155    0.01203     3.01314
      C    7   -0.09614      0.99961     2.08485    0.01167     3.09614
      N    8   -0.26102      0.99961     2.74948    0.01193     3.76102
      C    9    0.07807      0.99954     1.90605    0.01635     2.92193
      N   10   -0.34038      0.99975     2.82916    0.01147     3.84038
      C   11   -0.13036      0.99960     2.12135    0.00941     3.13036
      C   12    0.34067      0.99963     1.63704    0.02265     2.65933
      O   13   -0.32731      0.99988     3.32195    0.00548     4.32731
      C   14   -0.08522      0.99946     2.07279    0.01297     3.08522
      C   15   -0.12909      0.99946     2.11921    0.01042     3.12909
      C   16   -0.13087      0.99954     2.12121    0.01013     3.13087
      C   17   -0.17600      0.99954     2.16495    0.01151     3.17600
      S   18    0.20064      4.99941     2.77927    0.02068     7.79936
      H   19    0.08991      0.00000     0.40896    0.00113     0.41009
      H   20    0.08971      0.00000     0.40821    0.00208     0.41029
      H   21    0.08268      0.00000     0.41576    0.00156     0.41732
      H   22    0.08725      0.00000     0.41027    0.00248     0.41275
      H   23    0.09199      0.00000     0.40645    0.00156     0.40801
      H   24    0.08293      0.00000     0.41543    0.00164     0.41707
      H   25    0.08408      0.00000     0.41375    0.00216     0.41592
      H   26    0.08894      0.00000     0.40973    0.00132     0.41106
      H   27    0.09248      0.00000     0.40602    0.00150     0.40752
      H   28    0.10401      0.00000     0.39454    0.00146     0.39599
      H   29    0.10312      0.00000     0.39594    0.00094     0.39688
      H   30    0.10874      0.00000     0.38900    0.00226     0.39126
      H   31    0.19261      0.00000     0.30371    0.00368     0.30739
      H   32    0.10428      0.00000     0.39454    0.00118     0.39572
      H   33    0.10308      0.00000     0.39582    0.00110     0.39692
      H   34    0.11414      0.00000     0.38475    0.00112     0.38586
      H   35    0.10211      0.00000     0.39710    0.00080     0.39789
      H   36    0.10425      0.00000     0.39494    0.00081     0.39575
 =======================================================================
   * Total *    0.00000     21.99309    49.75246    0.25445    72.00000

 Normal termination of Gaussian 16 at Fri Dec 11 22:59:26 2020.
