 Gaussian 16, Revision A.03,

 -----------------------------------------------------------
 # opt freq B3LYP/6-31G(d) empiricaldispersion=gd3bj scf=xqc
 -----------------------------------------------------------

 -------------------------------
 CID_115386802_JID_3310_neutraal
 -------------------------------
 Symbolic Z-matrix:
 Charge =  0 Multiplicity = 1

 SCF Done:  E(RB3LYP) =  -1280.78478742     A.U. after   13 cycles
 SCF Done:  E(RB3LYP) =  -1280.78871468     A.U. after   11 cycles
 SCF Done:  E(RB3LYP) =  -1280.78962177     A.U. after   11 cycles
 SCF Done:  E(RB3LYP) =  -1280.78997623     A.U. after   11 cycles
 SCF Done:  E(RB3LYP) =  -1280.79003737     A.U. after   10 cycles
 SCF Done:  E(RB3LYP) =  -1280.79016709     A.U. after   10 cycles
 SCF Done:  E(RB3LYP) =  -1280.79019847     A.U. after    9 cycles
 SCF Done:  E(RB3LYP) =  -1280.79020443     A.U. after    9 cycles
 SCF Done:  E(RB3LYP) =  -1280.79020533     A.U. after    7 cycles
 SCF Done:  E(RB3LYP) =  -1280.79020546     A.U. after    6 cycles
 Optimization completed.
    -- Stationary point found.
 Normal termination of Gaussian 16 at Wed Dec  9 22:52:06 2020.

 --------------------------------------------------------------------
 #N Geom=AllCheck Guess=TCheck SCRF=Check GenChk RB3LYP/6-31G(d) Freq
 --------------------------------------------------------------------

 Structure from the checkpoint file:  "JID_3310.chk"
 -------------------------------
 CID_115386802_JID_3310_neutraal
 -------------------------------
 Charge =  0 Multiplicity = 1

 SCF Done:  E(RB3LYP) =  -1280.79020546     A.U. after    1 cycles

  Exact polarizability: 149.710   5.405 136.790  -5.917  -0.451 121.098
 Approx polarizability: 202.238  15.036 192.397 -14.038   3.279 197.130

                      1                      2                      3
                      A                      A                      A
 Frequencies --     42.1248                64.4000                72.1916
 Red. masses --      4.2660                 3.1132                 2.7509
 Frc consts  --      0.0045                 0.0076                 0.0084
 IR Inten    --      0.1573                 0.4374                 1.1092

                      4                      5                      6
                      A                      A                      A
 Frequencies --     92.8001               123.6374               134.6500
 Red. masses --      3.9954                 2.4494                 3.2270
 Frc consts  --      0.0203                 0.0221                 0.0345
 IR Inten    --      0.5508                 2.8266                 5.7845

                      7                      8                      9
                      A                      A                      A
 Frequencies --    166.6895               179.3341               208.3105
 Red. masses --      1.9695                 2.7933                 1.9195
 Frc consts  --      0.0322                 0.0529                 0.0491
 IR Inten    --      0.7641                 0.8082                 0.6654

                     10                     11                     12
                      A                      A                      A
 Frequencies --    221.9861               224.5047               242.5899
 Red. masses --      1.1281                 2.6663                 1.8645
 Frc consts  --      0.0328                 0.0792                 0.0646
 IR Inten    --      0.5791                 2.0783                 4.2031

                     13                     14                     15
                      A                      A                      A
 Frequencies --    272.7250               300.8187               306.6641
 Red. masses --      2.0955                 3.1131                 2.8241
 Frc consts  --      0.0918                 0.1660                 0.1565
 IR Inten    --      1.3058                 1.9278                 1.5359

                     16                     17                     18
                      A                      A                      A
 Frequencies --    316.4256               338.1405               392.5134
 Red. masses --      3.3730                 3.4788                 2.9582
 Frc consts  --      0.1990                 0.2344                 0.2685
 IR Inten    --      0.3350                 1.0717                 1.6739

                     19                     20                     21
                      A                      A                      A
 Frequencies --    417.1233               431.0865               536.8862
 Red. masses --      3.4093                 2.8293                 3.1877
 Frc consts  --      0.3495                 0.3098                 0.5414
 IR Inten    --      1.3551                 0.8628                 3.6522

                     22                     23                     24
                      A                      A                      A
 Frequencies --    581.2575               605.0084               642.5757
 Red. masses --      3.3129                 4.1933                 3.4591
 Frc consts  --      0.6595                 0.9043                 0.8415
 IR Inten    --      2.3262                 8.3196                 1.9788

                     25                     26                     27
                      A                      A                      A
 Frequencies --    651.3591               687.8636               773.1493
 Red. masses --      4.2059                 3.5341                 2.3700
 Frc consts  --      1.0514                 0.9852                 0.8347
 IR Inten    --      1.0944                 9.8552                54.0647

                     28                     29                     30
                      A                      A                      A
 Frequencies --    803.6785               879.6536               897.7478
 Red. masses --      2.6061                 1.9016                 2.2798
 Frc consts  --      0.9918                 0.8669                 1.0826
 IR Inten    --     27.5782                22.5975                 5.9910

                     31                     32                     33
                      A                      A                      A
 Frequencies --    933.6179               953.6208               965.1072
 Red. masses --      1.8988                 1.6553                 1.9451
 Frc consts  --      0.9751                 0.8869                 1.0675
 IR Inten    --      1.1510                 1.3845                 0.1622

                     34                     35                     36
                      A                      A                      A
 Frequencies --   1007.1958              1021.8598              1034.5897
 Red. masses --      2.0464                 2.5334                 1.9964
 Frc consts  --      1.2231                 1.5586                 1.2590
 IR Inten    --     14.4138                 0.3934                 9.3753

                     37                     38                     39
                      A                      A                      A
 Frequencies --   1054.4372              1096.6675              1124.8730
 Red. masses --      2.0801                 1.9616                 1.4313
 Frc consts  --      1.3626                 1.3900                 1.0670
 IR Inten    --     18.2864                 2.4912                11.2970

                     40                     41                     42
                      A                      A                      A
 Frequencies --   1130.7693              1158.3703              1167.0047
 Red. masses --      2.3049                 2.6978                 1.9688
 Frc consts  --      1.7364                 2.1329                 1.5798
 IR Inten    --     22.8751                62.7132                87.0507

                     43                     44                     45
                      A                      A                      A
 Frequencies --   1169.2721              1178.3635              1190.9082
 Red. masses --      1.3706                 1.5083                 1.4056
 Frc consts  --      1.1040                 1.2340                 1.1745
 IR Inten    --     35.0627                13.0806                 6.7967

                     46                     47                     48
                      A                      A                      A
 Frequencies --   1203.7679              1212.3509              1226.8785
 Red. masses --      1.4478                 1.7764                 1.5272
 Frc consts  --      1.2361                 1.5383                 1.3544
 IR Inten    --      1.0034                16.1919                20.7402

                     49                     50                     51
                      A                      A                      A
 Frequencies --   1255.9379              1279.2993              1284.2527
 Red. masses --      1.3587                 1.2194                 1.3089
 Frc consts  --      1.2627                 1.1758                 1.2719
 IR Inten    --      5.5764                14.7183                16.3066

                     52                     53                     54
                      A                      A                      A
 Frequencies --   1310.2178              1339.4105              1346.0353
 Red. masses --      1.3427                 1.2784                 1.2605
 Frc consts  --      1.3580                 1.3513                 1.3455
 IR Inten    --      2.9794                13.1647                16.5242

                     55                     56                     57
                      A                      A                      A
 Frequencies --   1356.9511              1365.3184              1393.4431
 Red. masses --      1.3583                 1.2527                 1.3778
 Frc consts  --      1.4736                 1.3758                 1.5763
 IR Inten    --      1.7580                 8.7602                12.9454

                     58                     59                     60
                      A                      A                      A
 Frequencies --   1423.2334              1436.1806              1484.1597
 Red. masses --      1.3266                 1.2255                 1.1677
 Frc consts  --      1.5832                 1.4893                 1.5155
 IR Inten    --     19.0199                 4.7202                 2.9796

                     61                     62                     63
                      A                      A                      A
 Frequencies --   1486.9881              1494.4236              1502.8525
 Red. masses --      1.0797                 1.0942                 1.1617
 Frc consts  --      1.4066                 1.4398                 1.5458
 IR Inten    --      8.5049                 3.6808                 3.0501

                     64                     65                     66
                      A                      A                      A
 Frequencies --   1514.3406              1515.1326              1517.2392
 Red. masses --      1.1590                 1.0742                 1.0438
 Frc consts  --      1.5660                 1.4529                 1.4158
 IR Inten    --      5.7312                15.9069                 4.1891

                     67                     68                     69
                      A                      A                      A
 Frequencies --   1521.8767              1533.2589              1534.7037
 Red. masses --      1.0796                 1.0477                 1.0565
 Frc consts  --      1.4732                 1.4511                 1.4661
 IR Inten    --      0.7261                 1.8862                18.0785

                     70                     71                     72
                      A                      A                      A
 Frequencies --   1546.2784              1564.3842              2946.7698
 Red. masses --      1.0523                 1.0843                 1.0618
 Frc consts  --      1.4824                 1.5635                 5.4321
 IR Inten    --      9.2865                11.3755                85.6303

                     73                     74                     75
                      A                      A                      A
 Frequencies --   2990.9086              3000.8431              3036.2283
 Red. masses --      1.0478                 1.0507                 1.0986
 Frc consts  --      5.5224                 5.5744                 5.9672
 IR Inten    --     33.1244                95.9496                82.6682

                     76                     77                     78
                      A                      A                      A
 Frequencies --   3042.4124              3052.8958              3059.9140
 Red. masses --      1.1055                 1.0426                 1.0585
 Frc consts  --      6.0290                 5.7255                 5.8390
 IR Inten    --     31.5504                24.2188                17.7174

                     79                     80                     81
                      A                      A                      A
 Frequencies --   3069.3386              3073.4973              3074.1391
 Red. masses --      1.0599                 1.0783                 1.0758
 Frc consts  --      5.8833                 6.0015                 5.9902
 IR Inten    --     27.5361                17.5561                22.0424

                     82                     83                     84
                      A                      A                      A
 Frequencies --   3089.7295              3098.4557              3105.9780
 Red. masses --      1.0843                 1.0837                 1.1058
 Frc consts  --      6.0989                 6.1296                 6.2851
 IR Inten    --     21.2242                 4.5170                 8.2826

                     85                     86                     87
                      A                      A                      A
 Frequencies --   3121.0666              3123.0018              3123.9980
 Red. masses --      1.1025                 1.1006                 1.1006
 Frc consts  --      6.3274                 6.3243                 6.3286
 IR Inten    --     32.4084                20.6708                17.2916

                     88                     89                     90
                      A                      A                      A
 Frequencies --   3138.8476              3155.1021              3495.2788
 Red. masses --      1.0975                 1.1019                 1.0736
 Frc consts  --      6.3706                 6.4626                 7.7280
 IR Inten    --     30.4987                15.8579                 1.5224

 - Thermochemistry -
 -------------------
 Temperature   298.150 Kelvin.  Pressure   1.00000 Atm.
 Atom     1 has atomic number  6 and mass  12.00000

 Molecular mass:   221.09081 amu.
 Principal axes and moments of inertia in atomic units:
                           1         2         3
     Eigenvalues --  2331.651763731.726514822.55763
           X            0.99994  -0.00023   0.01123
           Y            0.00089   0.99827  -0.05886
           Z           -0.01119   0.05886   0.99820
 This molecule is an asymmetric top.
 Rotational symmetry number  1.
 Warning -- assumption of classical behavior for rotation
           may cause significant error
 Rotational temperatures (Kelvin)      0.03715     0.02321     0.01796
 Rotational constants (GHZ):           0.77402     0.48362     0.37423
 Zero-point vibrational energy     737150.1 (Joules/Mol)
                                  176.18310 (Kcal/Mol)
 Warning -- explicit consideration of  23 degrees of freedom as
           vibrations may cause significant error
 Vibrational temperatures:     60.61    92.66   103.87   133.52   177.89
          (Kelvin)            193.73   239.83   258.02   299.71   319.39
                              323.01   349.03   392.39   432.81   441.22
                              455.27   486.51   564.74   600.15   620.24
                              772.46   836.30   870.47   924.52   937.16
                              989.68  1112.39  1156.31  1265.63  1291.66
                             1343.27  1372.05  1388.57  1449.13  1470.23
                             1488.54  1517.10  1577.86  1618.44  1626.92
                             1666.64  1679.06  1682.32  1695.40  1713.45
                             1731.95  1744.30  1765.20  1807.01  1840.63
                             1847.75  1885.11  1927.11  1936.64  1952.35
                             1964.39  2004.85  2047.72  2066.34  2135.37
                             2139.44  2150.14  2162.27  2178.80  2179.94
                             2182.97  2189.64  2206.02  2208.10  2224.75
                             2250.80  4239.74  4303.25  4317.54  4368.46
                             4377.35  4392.44  4402.53  4416.09  4422.08
                             4423.00  4445.43  4457.99  4468.81  4490.52
                             4493.30  4494.74  4516.10  4539.49  5028.93

 Zero-point correction=                           0.280766 (Hartree/Particle)
 Thermal correction to Energy=                    0.296237
 Thermal correction to Enthalpy=                  0.297181
 Thermal correction to Gibbs Free Energy=         0.238102
 Sum of electronic and zero-point Energies=          -1280.509440
 Sum of electronic and thermal Energies=             -1280.493969
 Sum of electronic and thermal Enthalpies=           -1280.493024
 Sum of electronic and thermal Free Energies=        -1280.552104

                     E (Thermal)             CV                S
                      KCal/Mol        Cal/Mol-Kelvin    Cal/Mol-Kelvin
 Total                  185.891             57.089            124.343
 Electronic               0.000              0.000              0.000
 Translational            0.889              2.981             42.083
 Rotational               0.889              2.981             32.106
 Vibrational            184.114             51.128             50.153
 Vibration     1          0.595              1.980              5.157
 Vibration     2          0.597              1.971              4.318
 Vibration     3          0.598              1.967              4.093
 Vibration     4          0.602              1.954              3.600
 Vibration     5          0.610              1.929              3.043
 Vibration     6          0.613              1.919              2.879
 Vibration     7          0.624              1.883              2.472
 Vibration     8          0.629              1.868              2.335
 Vibration     9          0.642              1.828              2.058
 Vibration    10          0.648              1.808              1.943
 Vibration    11          0.649              1.804              1.922
 Vibration    12          0.659              1.775              1.784
 Vibration    13          0.676              1.724              1.579
 Vibration    14          0.693              1.672              1.412
 Vibration    15          0.697              1.661              1.380
 Vibration    16          0.703              1.642              1.329
 Vibration    17          0.718              1.599              1.221
 Vibration    18          0.760              1.486              0.991
 Vibration    19          0.780              1.433              0.902
 Vibration    20          0.792              1.403              0.855
 Vibration    21          0.892              1.168              0.572
 Vibration    22          0.938              1.072              0.483
 Vibration    23          0.964              1.021              0.441

 Optimization completed.
    -- Stationary point found.
 Normal termination of Gaussian 16 at Wed Dec  9 23:01:33 2020.

 ----------------------------------------------------------------------
 # B3LYP/6-311++G(d,p) empiricaldispersion=gd3bj scf=xqc pop=npa geom=c
 heck
 ----------------------------------------------------------------------

 ---------------------------------------
 CID_115386802_JID_3310_Energie_neutraal
 ---------------------------------------
 Structure from the checkpoint file:  "JID_3310.chk"
 Charge =  0 Multiplicity = 1

 SCF Done:  E(RB3LYP) =  -1280.98605608     A.U. after   14 cycles
 Normal termination of Gaussian 16 at Wed Dec  9 23:05:23 2020.

 ----------------------------------------------------------------------
 # B3LYP/6-311++G(d,p) empiricaldispersion=gd3bj scf=xqc pop=npa geom=c
 heck
 ----------------------------------------------------------------------

 -------------------------------------
 CID_115386802_JID_3310_Energie_kation
 -------------------------------------
 Structure from the checkpoint file:  "JID_3310.chk"
 Charge =  1 Multiplicity = 2

 SCF Done:  E(UB3LYP) =  -1280.70495570     A.U. after   23 cycles
 Normal termination of Gaussian 16 at Wed Dec  9 23:13:40 2020.
 Gaussian 16:  ES64L-G16RevA.03 25-Dec-2016

 ----------------------------------------------------------------------
 # B3LYP/6-311++G(d,p) empiricaldispersion=gd3bj scf=xqc pop=npa geom=c
 heck
 ----------------------------------------------------------------------

 ------------------------------------
 CID_115386802_JID_3310_Energie_anion
 ------------------------------------
 Structure from the checkpoint file:  "JID_3310.chk"
 Charge = -1 Multiplicity = 2

                         Standard orientation:
 ---------------------------------------------------------------------
 Center     Atomic      Atomic             Coordinates (Angstroms)
 Number     Number       Type             X           Y           Z
 ---------------------------------------------------------------------
      1          6           0        1.509150   -1.805302    1.599341
      2          6           0        0.683395   -1.244068    0.440926
      3          6           0        0.100257    0.150663    0.733185
      4         16           0        1.406330    1.428435    1.006993
      5          6           0        2.327868    1.322477   -0.574216
      6          6           0        2.889251   -0.061512   -0.880661
      7         16           0        1.586745   -1.319146   -1.170395
      8          6           0       -0.971288    0.666919   -0.259626
      9          6           0       -1.898229   -0.438785   -0.774186
     10          8           0       -2.508344   -1.053501    0.351638
     11          6           0       -3.457121   -2.034874   -0.008600
     12          7           0       -1.719942    1.739522    0.396012
     13          6           0       -2.312047    2.710094   -0.511959
     14          1           0        0.898094   -1.833785    2.510203
     15          1           0        2.383793   -1.186002    1.810592
     16          1           0        1.842037   -2.821794    1.371954
     17          1           0       -0.162918   -1.917645    0.279803
     18          1           0       -0.383078    0.087723    1.714423
     19          1           0        3.146597    2.042001   -0.460151
     20          1           0        1.698293    1.665904   -1.401690
     21          1           0        3.556906   -0.393945   -0.080496
     22          1           0        3.465560   -0.037754   -1.812252
     23          1           0       -0.470392    1.088554   -1.137152
     24          1           0       -2.668492    0.006021   -1.425381
     25          1           0       -1.352302   -1.180360   -1.375444
     26          1           0       -4.275485   -1.604460   -0.606989
     27          1           0       -2.995759   -2.849184   -0.588889
     28          1           0       -3.868033   -2.444818    0.917446
     29          1           0       -2.441814    1.308201    0.970748
     30          1           0       -2.967704    2.286052   -1.295893
     31          1           0       -2.903774    3.427301    0.065920
     32          1           0       -1.511809    3.267055   -1.012730
 ---------------------------------------------------------------------

 SCF Done:  E(UB3LYP) =  -1280.97174532     A.U. after   29 cycles

 The electronic state is 2-A.
 Alpha  occ. eigenvalues --  -88.74303 -88.73812 -19.03546 -14.19831 -10.11931
 Alpha  occ. eigenvalues --  -10.11475 -10.11405 -10.11139 -10.10929 -10.10882
 Alpha  occ. eigenvalues --  -10.10686 -10.09033 -10.07239  -7.82946  -7.82439
 Alpha  occ. eigenvalues --   -5.79330  -5.78981  -5.78837  -5.78476  -5.78311
 Alpha  occ. eigenvalues --   -5.77788  -0.94813  -0.81439  -0.75338  -0.69504
 Alpha  occ. eigenvalues --   -0.67442  -0.64950  -0.60588  -0.58118  -0.55976
 Alpha  occ. eigenvalues --   -0.53817  -0.52220  -0.49751  -0.43854  -0.40595
 Alpha  occ. eigenvalues --   -0.39677  -0.39130  -0.38093  -0.36916  -0.36108
 Alpha  occ. eigenvalues --   -0.34637  -0.33541  -0.33335  -0.31700  -0.31192
 Alpha  occ. eigenvalues --   -0.30466  -0.29506  -0.29263  -0.28331  -0.27815
 Alpha  occ. eigenvalues --   -0.25853  -0.24957  -0.23620  -0.23001  -0.21874
 Alpha  occ. eigenvalues --   -0.19959  -0.17341  -0.13927  -0.13017  -0.12397
 Alpha  occ. eigenvalues --    0.04287
 Alpha virt. eigenvalues --    0.05753   0.06766   0.07760   0.08350   0.08488
 Alpha virt. eigenvalues --    0.08853   0.09530   0.10005   0.10539   0.11080
 Alpha virt. eigenvalues --    0.11338   0.11559   0.12133   0.12517   0.13009

  Beta  occ. eigenvalues --  -88.74301 -88.73810 -19.03535 -14.19826 -10.11914
  Beta  occ. eigenvalues --  -10.11470 -10.11351 -10.11140 -10.10907 -10.10875
  Beta  occ. eigenvalues --  -10.10659 -10.09007 -10.07227  -7.82944  -7.82437
  Beta  occ. eigenvalues --   -5.79327  -5.78978  -5.78835  -5.78473  -5.78309
  Beta  occ. eigenvalues --   -5.77785  -0.94798  -0.81426  -0.75320  -0.69476
  Beta  occ. eigenvalues --   -0.67423  -0.64918  -0.60546  -0.58067  -0.55900
  Beta  occ. eigenvalues --   -0.53782  -0.52179  -0.49707  -0.43821  -0.40535
  Beta  occ. eigenvalues --   -0.39651  -0.39105  -0.38053  -0.36881  -0.36081
  Beta  occ. eigenvalues --   -0.34594  -0.33500  -0.33307  -0.31675  -0.31169
  Beta  occ. eigenvalues --   -0.30431  -0.29472  -0.29233  -0.28307  -0.27788
  Beta  occ. eigenvalues --   -0.25822  -0.24938  -0.23561  -0.22970  -0.21860
  Beta  occ. eigenvalues --   -0.19939  -0.17315  -0.13914  -0.13005  -0.12382
  Beta virt. eigenvalues --    0.06411   0.06949   0.07259   0.08154   0.08731
  Beta virt. eigenvalues --    0.08954   0.09336   0.09809   0.10257   0.10742
  Beta virt. eigenvalues --    0.11493   0.11623   0.11826   0.12270   0.12749

 Mulliken charges and spin densities:
               1          2
     1  C    0.253424  -0.754286
     2  C   -0.802393   0.642485
     3  C    0.893500  -0.226301
     4  S    0.161105  -0.180461
     5  C    0.166017  -0.545562
     6  C   -0.354725  -0.346325
     7  S    0.011405   0.054267
     8  C   -1.376051   0.216960
     9  C   -0.387810  -0.287167
    10  O   -0.162441   0.070688
    11  C    1.250235  -1.482295
    12  N    0.153427   0.041065
    13  C    0.415143  -0.747393
    14  H    0.011588   0.118731
    15  H    0.142984   0.002980
    16  H   -0.071295   0.223361
    17  H    0.389348  -0.107732
    18  H    0.318173  -0.009956
    19  H   -0.484195   0.715012
    20  H    0.179984  -0.029957
    21  H    0.195989  -0.028268
    22  H   -0.434939   0.661559
    23  H    0.010534   0.160032
    24  H    0.059322   0.099779
    25  H    0.107364   0.051240
    26  H   -0.578059   0.718319
    27  H   -0.379630   0.503070
    28  H   -0.434012   0.579179
    29  H    0.189679   0.050841
    30  H   -0.212447   0.332681
    31  H   -0.142383   0.265868
    32  H   -0.088844   0.237586
 Sum of Mulliken charges =  -1.00000   1.00000

 Dipole moment (field-independent basis, Debye):
    X=              3.5282    Y=              0.3015    Z=              1.9941  Tot=              4.0639
 Quadrupole moment (field-independent basis, Debye-Ang):
   XX=           -177.5414   YY=           -149.7589   ZZ=           -131.4747
   XY=            -12.9690   XZ=              1.2969   YZ=              0.7961

 Summary of Natural Population Analysis:

                                       Natural Population
                Natural  -----------------------------------------------
    Atom  No    Charge         Core      Valence    Rydberg      Total
 -----------------------------------------------------------------------
      C    1   -0.28915      0.99963     2.28329    0.00622     3.28915
      C    2   -0.17653      0.99951     2.16167    0.01535     3.17653
      C    3   -0.16510      0.99949     2.15102    0.01460     3.16510
      S    4    0.10037      4.99961     2.88267    0.01735     7.89963
      C    5   -0.26203      0.99957     2.24931    0.01315     3.26203
      C    6   -0.25832      0.99957     2.24599    0.01276     3.25832
      S    7    0.08685      4.99961     2.89717    0.01637     7.91315
      C    8   -0.02499      0.99954     2.00940    0.01605     3.02499
      C    9   -0.01965      0.99955     2.00773    0.01237     3.01965
      O   10   -0.30718      0.99988     3.29749    0.00981     4.30718
      C   11   -0.09555      0.99962     2.08646    0.00948     3.09555
      N   12   -0.33924      0.99974     2.82801    0.01149     3.83924
      C   13   -0.17771      0.99966     2.16981    0.00824     3.17771
      H   14    0.10040      0.00000     0.39850    0.00111     0.39960
      H   15    0.10393      0.00000     0.39478    0.00129     0.39607
      H   16    0.10288      0.00000     0.39602    0.00109     0.39712
      H   17    0.11554      0.00000     0.38265    0.00181     0.38446
      H   18    0.11449      0.00000     0.38384    0.00167     0.38551
      H   19    0.11056      0.00000     0.38774    0.00170     0.38944
      H   20    0.10146      0.00000     0.39684    0.00171     0.39854
      H   21    0.10130      0.00000     0.39724    0.00145     0.39870
      H   22    0.11009      0.00000     0.38818    0.00172     0.38991
      H   23    0.10110      0.00000     0.39668    0.00222     0.39890
      H   24    0.08691      0.00000     0.41157    0.00152     0.41309
      H   25    0.08671      0.00000     0.41163    0.00166     0.41329
      H   26    0.08192      0.00000     0.41533    0.00274     0.41808
      H   27    0.07901      0.00000     0.41904    0.00195     0.42099
      H   28    0.09148      0.00000     0.40685    0.00168     0.40852
      H   29    0.17546      0.00000     0.32144    0.00310     0.32454
      H   30    0.07926      0.00000     0.41912    0.00162     0.42074
      H   31    0.09402      0.00000     0.40515    0.00082     0.40598
      H   32    0.09170      0.00000     0.40708    0.00122     0.40830
 =======================================================================
   * Total *   -0.00000     20.99499    38.80969    0.19532    60.00000

 Normal termination of Gaussian 16 at Wed Dec  9 23:24:17 2020.
