 Gaussian 16, Revision A.03,

 -----------------------------------------------------------
 # opt freq B3LYP/6-31G(d) empiricaldispersion=gd3bj scf=xqc
 -----------------------------------------------------------

 -----------------------------
 CID_44719359_JID_212_neutraal
 -----------------------------
 Symbolic Z-matrix:
 Charge =  0 Multiplicity = 1

 SCF Done:  E(RB3LYP) =  -463.718810147     A.U. after   14 cycles
 SCF Done:  E(RB3LYP) =  -463.719945527     A.U. after   13 cycles
 SCF Done:  E(RB3LYP) =  -463.720324189     A.U. after   12 cycles
 SCF Done:  E(RB3LYP) =  -463.721555123     A.U. after   12 cycles
 SCF Done:  E(RB3LYP) =  -463.721690165     A.U. after   12 cycles
 SCF Done:  E(RB3LYP) =  -463.721914832     A.U. after   12 cycles
 SCF Done:  E(RB3LYP) =  -463.721993962     A.U. after   12 cycles
 SCF Done:  E(RB3LYP) =  -463.722050491     A.U. after   11 cycles
 SCF Done:  E(RB3LYP) =  -463.722167993     A.U. after   11 cycles
 SCF Done:  E(RB3LYP) =  -463.722199922     A.U. after   12 cycles
 SCF Done:  E(RB3LYP) =  -463.722221321     A.U. after   11 cycles
 SCF Done:  E(RB3LYP) =  -463.722224052     A.U. after   10 cycles
 SCF Done:  E(RB3LYP) =  -463.722223743     A.U. after   10 cycles
 SCF Done:  E(RB3LYP) =  -463.722224511     A.U. after   10 cycles
 Optimization completed.
    -- Stationary point found.

 1\1\GINC-NODE126\FOpt\RB3LYP\6-31G(d)\C8H14O2\VSC10255\08-Dec-2020\0\\
 # opt freq B3LYP/6-31G(d) empiricaldispersion=gd3bj scf=xqc\\CID_44719
 359_JID_212_neutraal\\0,1\C,1.0746076685,-0.1154133693,0.0478536293\C,
 0.6416382728,0.6875782582,1.2874058904\C,1.3181852417,2.062470281,1.33
 81295375\O,1.1831824801,2.7281282152,0.0963075813\C,1.7928342459,4.001
 1008832,0.1031552066\C,-0.8829984789,0.7447876237,1.3784306301\O,-1.48
 06158431,0.0701943992,2.1966551544\C,-1.6547273806,1.6749993948,0.4384
 885862\C,-2.0869728183,2.8979981488,1.2095659587\C,-1.7683677771,4.151

 Normal termination of Gaussian 16 at Tue Dec  8 10:22:23 2020.

 --------------------------------------------------------------------
 #N Geom=AllCheck Guess=TCheck SCRF=Check GenChk RB3LYP/6-31G(d) Freq
 --------------------------------------------------------------------

 Structure from the checkpoint file:  "JID_212.chk"
 -----------------------------
 CID_44719359_JID_212_neutraal
 -----------------------------
 Charge =  0 Multiplicity = 1

 SCF Done:  E(RB3LYP) =  -463.722224511     A.U. after    1 cycles

  Exact polarizability: 102.444  -7.302  91.493  -2.989  -2.540  70.226
 Approx polarizability: 150.547 -10.724 116.404  -9.892  -3.540 105.808

                      1                      2                      3
                      A                      A                      A
 Frequencies --     33.6244                65.3066                95.1405
 Red. masses --      4.1671                 3.2535                 3.1422
 Frc consts  --      0.0028                 0.0082                 0.0168
 IR Inten    --      2.2881                 1.7653                 0.6880

                      4                      5                      6
                      A                      A                      A
 Frequencies --    120.3763               143.2214               175.5243
 Red. masses --      3.1472                 1.9110                 3.2061
 Frc consts  --      0.0269                 0.0231                 0.0582
 IR Inten    --      0.9907                 5.1131                 1.7111

                      7                      8                      9
                      A                      A                      A
 Frequencies --    203.9079               217.6123               243.5045
 Red. masses --      2.7138                 1.0598                 1.5458
 Frc consts  --      0.0665                 0.0296                 0.0540
 IR Inten    --      1.5825                 0.4118                 5.7333

                     10                     11                     12
                      A                      A                      A
 Frequencies --    251.2219               280.0643               353.0797
 Red. masses --      2.5312                 2.1767                 2.7679
 Frc consts  --      0.0941                 0.1006                 0.2033
 IR Inten    --      0.1653                 0.1093                 4.1959

                     13                     14                     15
                      A                      A                      A
 Frequencies --    378.1721               407.0721               512.8791
 Red. masses --      3.3109                 2.7791                 2.4786
 Frc consts  --      0.2790                 0.2713                 0.3841
 IR Inten    --      1.7494                 0.9938                10.6948

                     16                     17                     18
                      A                      A                      A
 Frequencies --    610.9601               661.4139               696.9960
 Red. masses --      1.5304                 3.1471                 3.1078
 Frc consts  --      0.3366                 0.8111                 0.8895
 IR Inten    --     13.7122                 0.4863                 3.2619

                     19                     20                     21
                      A                      A                      A
 Frequencies --    826.3976               909.6962               921.0891
 Red. masses --      3.7260                 2.2983                 1.6665
 Frc consts  --      1.4993                 1.1206                 0.8330
 IR Inten    --      6.5661                 4.1065                13.0916

                     22                     23                     24
                      A                      A                      A
 Frequencies --    936.7563               951.5617               958.5291
 Red. masses --      1.3661                 2.3145                 1.9434
 Frc consts  --      0.7063                 1.2348                 1.0520
 IR Inten    --     35.8328                 5.9103                15.2538

                     25                     26                     27
                      A                      A                      A
 Frequencies --    993.0351              1015.3531              1045.7298
 Red. masses --      1.7610                 1.5808                 1.1168
 Frc consts  --      1.0232                 0.9602                 0.7196
 IR Inten    --      3.6127                21.2683                11.2732

                     28                     29                     30
                      A                      A                      A
 Frequencies --   1103.6188              1134.7409              1139.9340
 Red. masses --      2.2566                 2.1151                 1.7264
 Frc consts  --      1.6193                 1.6046                 1.3218
 IR Inten    --     41.8417                 3.9040                 9.5469

                     31                     32                     33
                      A                      A                      A
 Frequencies --   1174.7227              1192.4438              1215.4136
 Red. masses --      3.9590                 1.3371                 1.7833
 Frc consts  --      3.2189                 1.1202                 1.5521
 IR Inten    --    114.9399                 1.9659                37.5513

                     34                     35                     36
                      A                      A                      A
 Frequencies --   1237.2684              1266.3817              1291.1167
 Red. masses --      1.7136                 1.3790                 1.1522
 Frc consts  --      1.5455                 1.3030                 1.1317
 IR Inten    --     31.9472                13.4804                 0.7901

                     37                     38                     39
                      A                      A                      A
 Frequencies --   1328.7654              1341.4522              1360.0821
 Red. masses --      1.3448                 1.3428                 1.5238
 Frc consts  --      1.3990                 1.4237                 1.6608
 IR Inten    --      8.4282                29.2194                 3.9506

                     40                     41                     42
                      A                      A                      A
 Frequencies --   1364.6608              1424.9448              1445.0929
 Red. masses --      1.5742                 1.2314                 1.2634
 Frc consts  --      1.7273                 1.4731                 1.5544
 IR Inten    --      2.3347                 8.1718                24.5978

                     43                     44                     45
                      A                      A                      A
 Frequencies --   1467.7137              1492.2373              1504.2755
 Red. masses --      1.1780                 1.1088                 1.1609
 Frc consts  --      1.4951                 1.4548                 1.5478
 IR Inten    --      3.0291                 8.5043                 1.2934

                     46                     47                     48
                      A                      A                      A
 Frequencies --   1515.4855              1525.3109              1530.4745
 Red. masses --      1.0477                 1.0485                 1.0592
 Frc consts  --      1.4177                 1.4372                 1.4617
 IR Inten    --      6.4092                 9.6608                 1.7272

                     49                     50                     51
                      A                      A                      A
 Frequencies --   1531.5561              1553.3266              1724.7502
 Red. masses --      1.0543                 1.0839                 4.5090
 Frc consts  --      1.4570                 1.5409                 7.9029
 IR Inten    --      4.9511                 6.9588                24.9368

                     52                     53                     54
                      A                      A                      A
 Frequencies --   1803.8756              2975.3347              2998.1842
 Red. masses --     10.4303                 1.0596                 1.0398
 Frc consts  --     19.9968                 5.5264                 5.5073
 IR Inten    --    161.5821                39.8480                76.4456

                     55                     56                     57
                      A                      A                      A
 Frequencies --   3019.2575              3045.4478              3055.7777
 Red. masses --      1.0989                 1.1045                 1.0664
 Frc consts  --      5.9020                 6.0354                 5.8672
 IR Inten    --     51.1590                52.2255                11.2447

                     58                     59                     60
                      A                      A                      A
 Frequencies --   3060.2158              3073.2331              3125.1567
 Red. masses --      1.0375                 1.0840                 1.1020
 Frc consts  --      5.7246                 6.0320                 6.3412
 IR Inten    --     25.3807                14.5707                22.3910

                     61                     62                     63
                      A                      A                      A
 Frequencies --   3137.7637              3149.0066              3152.8542
 Red. masses --      1.0977                 1.0994                 1.0916
 Frc consts  --      6.3675                 6.4232                 6.3934
 IR Inten    --     27.8975                12.7580                 5.3732

                     64                     65                     66
                      A                      A                      A
 Frequencies --   3163.1569              3173.2008              3246.7017
 Red. masses --      1.0680                 1.0876                 1.1161
 Frc consts  --      6.2963                 6.4522                 6.9318
 IR Inten    --     13.0518                 9.6811                17.9467

 - Thermochemistry -
 -------------------
 Temperature   298.150 Kelvin.  Pressure   1.00000 Atm.
 Atom     1 has atomic number  6 and mass  12.00000

 Molecular mass:   142.09938 amu.
 Principal axes and moments of inertia in atomic units:
                           1         2         3
     Eigenvalues --  1290.934241469.567602392.88432
           X            0.99693  -0.07559   0.02061
           Y            0.07573   0.99711  -0.00624
           Z           -0.02008   0.00779   0.99977
 This molecule is an asymmetric top.
 Rotational symmetry number  1.
 Warning -- assumption of classical behavior for rotation
           may cause significant error
 Rotational temperatures (Kelvin)      0.06709     0.05894     0.03620
 Rotational constants (GHZ):           1.39801     1.22808     0.75421
 Zero-point vibrational energy     550600.2 (Joules/Mol)
                                  131.59660 (Kcal/Mol)
 Warning -- explicit consideration of  16 degrees of freedom as
           vibrations may cause significant error
 Vibrational temperatures:     48.38    93.96   136.89   173.19   206.06
          (Kelvin)            252.54   293.38   313.10   350.35   361.45
                              402.95   508.00   544.11   585.69   737.92
                              879.04   951.63  1002.82  1189.00  1308.85
                             1325.24  1347.78  1369.08  1379.11  1428.76
                             1460.87  1504.57  1587.86  1632.64  1640.11
                             1690.16  1715.66  1748.71  1780.15  1822.04
                             1857.63  1911.80  1930.05  1956.85  1963.44
                             2050.18  2079.17  2111.71  2147.00  2164.32
                             2180.45  2194.58  2202.01  2203.57  2234.89
                             2481.53  2595.37  4280.84  4313.72  4344.04
                             4381.72  4396.58  4402.97  4421.70  4496.40
                             4514.54  4530.72  4536.25  4551.08  4565.53
                             4671.28

 Zero-point correction=                           0.209713 (Hartree/Particle)
 Thermal correction to Energy=                    0.221690
 Thermal correction to Enthalpy=                  0.222635
 Thermal correction to Gibbs Free Energy=         0.171335
 Sum of electronic and zero-point Energies=           -463.512512
 Sum of electronic and thermal Energies=              -463.500534
 Sum of electronic and thermal Enthalpies=            -463.499590
 Sum of electronic and thermal Free Energies=         -463.550889

                     E (Thermal)             CV                S
                      KCal/Mol        Cal/Mol-Kelvin    Cal/Mol-Kelvin
 Total                  139.113             42.164            107.969
 Electronic               0.000              0.000              0.000
 Translational            0.889              2.981             40.765
 Rotational               0.889              2.981             29.897
 Vibrational            137.335             36.202             37.307
 Vibration     1          0.594              1.983              5.603
 Vibration     2          0.597              1.971              4.290
 Vibration     3          0.603              1.953              3.552
 Vibration     4          0.609              1.932              3.094
 Vibration     5          0.616              1.910              2.760
 Vibration     6          0.627              1.873              2.375
 Vibration     7          0.640              1.834              2.098
 Vibration     8          0.646              1.814              1.979
 Vibration     9          0.659              1.774              1.777
 Vibration    10          0.663              1.761              1.722
 Vibration    11          0.680              1.710              1.533
 Vibration    12          0.729              1.569              1.152
 Vibration    13          0.748              1.517              1.046
 Vibration    14          0.772              1.455              0.937
 Vibration    15          0.868              1.221              0.627
 Vibration    16          0.970              1.009              0.431

 Optimization completed.
    -- Stationary point found.

 1\1\GINC-NODE126\Freq\RB3LYP\6-31G(d)\C8H14O2\VSC10255\08-Dec-2020\0\\
 #N Geom=AllCheck Guess=TCheck SCRF=Check GenChk RB3LYP/6-31G(d) Freq\\
 CID_44719359_JID_212_neutraal\\0,1\C,1.0746076685,-0.1154133693,0.0478
 536293\C,0.6416382728,0.6875782582,1.2874058904\C,1.3181852417,2.06247
 0281,1.3381295375\O,1.1831824801,2.7281282152,0.0963075813\C,1.7928342
 459,4.0011008832,0.1031552066\C,-0.8829984789,0.7447876237,1.378430630
 1\O,-1.4806158431,0.0701943992,2.1966551544\C,-1.6547273806,1.67499939
 48,0.4384885862\C,-2.0869728183,2.8979981488,1.2095659587\C,-1.7683677

 Normal termination of Gaussian 16 at Tue Dec  8 10:26:56 2020.

 ----------------------------------------------------------------------
 # B3LYP/6-311++G(d,p) empiricaldispersion=gd3bj scf=xqc pop=npa geom=c
 heck
 ----------------------------------------------------------------------

 -------------------------------------
 CID_44719359_JID_212_Energie_neutraal
 -------------------------------------
 Structure from the checkpoint file:  "JID_212.chk"
 Charge =  0 Multiplicity = 1

 SCF Done:  E(RB3LYP) =  -463.861821322     A.U. after   13 cycles
 Normal termination of Gaussian 16 at Tue Dec  8 10:28:46 2020.

 ----------------------------------------------------------------------
 # B3LYP/6-311++G(d,p) empiricaldispersion=gd3bj scf=xqc pop=npa geom=c
 heck
 ----------------------------------------------------------------------

 -----------------------------------
 CID_44719359_JID_212_Energie_kation
 -----------------------------------
 Structure from the checkpoint file:  "JID_212.chk"
 Charge =  1 Multiplicity = 2

 SCF Done:  E(UB3LYP) =  -463.543803267     A.U. after   20 cycles
 Normal termination of Gaussian 16 at Tue Dec  8 10:32:42 2020.
 Gaussian 16:  ES64L-G16RevA.03 25-Dec-2016

 ----------------------------------
 CID_44719359_JID_212_Energie_anion
 ----------------------------------
 Structure from the checkpoint file:  "JID_212.chk"
 Charge = -1 Multiplicity = 2

                         Standard orientation:
 ---------------------------------------------------------------------
 Center     Atomic      Atomic             Coordinates (Angstroms)
 Number     Number       Type             X           Y           Z
 ---------------------------------------------------------------------
      1          6           0        0.719250   -2.254950    0.800928
      2          6           0        0.675164   -1.292988   -0.399669
      3          6           0       -0.764299   -0.988251   -0.830597
      4          8           0       -1.548029   -0.613302    0.286823
      5          6           0       -2.882360   -0.322303   -0.069631
      6          6           0        1.512178   -0.046501   -0.113742
      7          8           0        2.598586    0.104803   -0.641510
      8          6           0        0.962404    1.023350    0.833632
      9          6           0        0.461804    2.188315    0.015476
     10          6           0       -0.784139    2.661211    0.050289
     11          1           0        0.247188   -1.812469    1.681613
     12          1           0        1.753047   -2.516852    1.047252
     13          1           0        0.178880   -3.177806    0.562343
     14          1           0        1.169319   -1.770449   -1.253578
     15          1           0       -0.777751   -0.190468   -1.590104
     16          1           0       -1.190816   -1.894817   -1.293437
     17          1           0       -2.936764    0.524161   -0.771074
     18          1           0       -3.374108   -1.192789   -0.532093
     19          1           0       -3.412691   -0.060202    0.849385
     20          1           0        0.162850    0.631433    1.463358
     21          1           0        1.801761    1.349649    1.460604
     22          1           0        1.200511    2.637902   -0.647114
     23          1           0       -1.087654    3.507944   -0.559449
     24          1           0       -1.538252    2.225474    0.699676
 ---------------------------------------------------------------------

 SCF Done:  E(UB3LYP) =  -463.842655595     A.U. after   33 cycles
 SCF Done:  E(UB3LYP) =  -463.846675644     a.u. after    7 cycles

 The electronic state is 2-A.
 Alpha  occ. eigenvalues --  -19.01737 -18.98764 -10.12999 -10.10878 -10.09718
 Alpha  occ. eigenvalues --  -10.07297 -10.06813 -10.06125 -10.06040 -10.05075
 Alpha  occ. eigenvalues --   -0.93203  -0.92254  -0.70007  -0.68000  -0.60050
 Alpha  occ. eigenvalues --   -0.59479  -0.55244  -0.50353  -0.45316  -0.41473
 Alpha  occ. eigenvalues --   -0.38592  -0.38088  -0.36459  -0.35123  -0.33926
 Alpha  occ. eigenvalues --   -0.31907  -0.31383  -0.30356  -0.29995  -0.28329
 Alpha  occ. eigenvalues --   -0.26546  -0.25658  -0.24656  -0.23652  -0.22919
 Alpha  occ. eigenvalues --   -0.21153  -0.16318  -0.15495  -0.12457   0.05105
 Alpha virt. eigenvalues --    0.07013   0.08034   0.08462   0.08791   0.10182
 Alpha virt. eigenvalues --    0.10734   0.10879   0.11492   0.11799   0.12072
 Alpha virt. eigenvalues --    0.13311   0.13537   0.14032   0.15142   0.15638

  Beta  occ. eigenvalues --  -19.01728 -18.98616 -10.12821 -10.10840 -10.09665
  Beta  occ. eigenvalues --  -10.07305 -10.06787 -10.06108 -10.06050 -10.05016
  Beta  occ. eigenvalues --   -0.93181  -0.91965  -0.69899  -0.67935  -0.59969
  Beta  occ. eigenvalues --   -0.59348  -0.55140  -0.50183  -0.45177  -0.41293
  Beta  occ. eigenvalues --   -0.38498  -0.38023  -0.36351  -0.35046  -0.33789
  Beta  occ. eigenvalues --   -0.31707  -0.31233  -0.30247  -0.29927  -0.28274
  Beta  occ. eigenvalues --   -0.26385  -0.25560  -0.24464  -0.23618  -0.22517
  Beta  occ. eigenvalues --   -0.21039  -0.16112  -0.15464  -0.12318
  Beta virt. eigenvalues --    0.07598   0.08236   0.08568   0.09175   0.09465
  Beta virt. eigenvalues --    0.10588   0.11232   0.11372   0.11952   0.12142
  Beta virt. eigenvalues --    0.12285   0.13734   0.13979   0.14549   0.15465

 Mulliken charges and spin densities:
               1          2
     1  C   -0.105250  -0.515423
     2  C   -0.459844   0.678783
     3  C    0.191322  -0.526005
     4  O   -0.206693   0.087497
     5  C    1.393383  -1.677321
     6  C    0.170068  -0.351347
     7  O   -0.323226   0.072444
     8  C    0.547528  -0.776194
     9  C   -0.743147   0.944755
    10  C    0.316056  -0.858168
    11  H    0.084028   0.082588
    12  H    0.066334   0.078973
    13  H    0.011162   0.133610
    14  H   -0.000402   0.210542
    15  H    0.168815  -0.054437
    16  H   -0.452527   0.618226
    17  H   -0.319588   0.463320
    18  H   -0.617260   0.751817
    19  H   -0.544333   0.699894
    20  H    0.116021   0.013058
    21  H   -0.063254   0.261300
    22  H    0.104617   0.080102
    23  H   -0.229149   0.332639
    24  H   -0.104660   0.249350
 Sum of Mulliken charges =  -1.00000   1.00000

 Dipole moment (field-independent basis, Debye):
    X=              4.6271    Y=             -0.1358    Z=              0.6362  Tot=              4.6726
 Quadrupole moment (field-independent basis, Debye-Ang):
   XX=           -125.4345   YY=           -100.0640   ZZ=            -88.2551
   XY=             -5.4789   XZ=              0.5751   YZ=             -6.2018

 Summary of Natural Population Analysis:

                                       Natural Population
                Natural  -----------------------------------------------
    Atom  No    Charge         Core      Valence    Rydberg      Total
 -----------------------------------------------------------------------
      C    1   -0.28056      0.99964     2.27615    0.00477     3.28056
      C    2   -0.16123      0.99955     2.14968    0.01200     3.16123
      C    3   -0.00556      0.99957     1.99233    0.01367     3.00556
      O    4   -0.30540      0.99988     3.29433    0.01118     4.30540
      C    5   -0.09671      0.99962     2.08739    0.00970     3.09671
      C    6    0.32809      0.99964     1.65064    0.02163     2.67191
      O    7   -0.28668      0.99987     3.27983    0.00698     4.28668
      C    8   -0.25976      0.99956     2.24919    0.01101     3.25976
      C    9   -0.08037      0.99956     2.06959    0.01122     3.08037
      C   10   -0.18654      0.99955     2.17912    0.00788     3.18654
      H   11    0.10438      0.00000     0.39424    0.00137     0.39562
      H   12    0.09762      0.00000     0.40144    0.00095     0.40238
      H   13    0.10011      0.00000     0.39895    0.00093     0.39989
      H   14    0.10582      0.00000     0.39234    0.00185     0.39418
      H   15    0.08557      0.00000     0.41282    0.00160     0.41443
      H   16    0.08381      0.00000     0.41406    0.00214     0.41619
      H   17    0.07956      0.00000     0.41858    0.00186     0.42044
      H   18    0.08227      0.00000     0.41440    0.00333     0.41773
      H   19    0.09182      0.00000     0.40589    0.00230     0.40818
      H   20    0.11288      0.00000     0.38518    0.00194     0.38712
      H   21    0.11165      0.00000     0.38671    0.00164     0.38835
      H   22    0.09333      0.00000     0.40561    0.00106     0.40667
      H   23    0.09074      0.00000     0.40837    0.00089     0.40926
      H   24    0.09518      0.00000     0.40305    0.00178     0.40482
 =======================================================================
   * Total *   -0.00000      9.99643    28.86987    0.13370    39.00000

 Normal termination of Gaussian 16 at Tue Dec  8 11:08:22 2020.
