 Gaussian 16, Revision A.03,

 -----------------------------------------------------------
 # opt freq B3LYP/6-31G(d) empiricaldispersion=gd3bj scf=xqc
 -----------------------------------------------------------

 ------------------------------
 CID_28690096_JID_6100_neutraal
 ------------------------------
 Symbolic Z-matrix:
 Charge =  0 Multiplicity = 1

 SCF Done:  E(RB3LYP) =  -728.126627893     A.U. after   15 cycles
 SCF Done:  E(RB3LYP) =  -728.129036952     A.U. after   13 cycles
 SCF Done:  E(RB3LYP) =  -728.127771425     A.U. after   13 cycles
 SCF Done:  E(RB3LYP) =  -728.129031266     A.U. after   12 cycles
 SCF Done:  E(RB3LYP) =  -728.130534535     A.U. after    9 cycles
 SCF Done:  E(RB3LYP) =  -728.131154981     A.U. after   12 cycles
 SCF Done:  E(RB3LYP) =  -728.131265561     A.U. after   11 cycles
 SCF Done:  E(RB3LYP) =  -728.131313325     A.U. after   10 cycles
 SCF Done:  E(RB3LYP) =  -728.131380918     A.U. after   11 cycles
 SCF Done:  E(RB3LYP) =  -728.131364210     A.U. after   12 cycles
 SCF Done:  E(RB3LYP) =  -728.131573285     A.U. after    9 cycles
 SCF Done:  E(RB3LYP) =  -728.131573573     A.U. after    8 cycles
 SCF Done:  E(RB3LYP) =  -728.131574157     A.U. after    8 cycles
 SCF Done:  E(RB3LYP) =  -728.131574548     A.U. after    9 cycles
 SCF Done:  E(RB3LYP) =  -728.131574596     A.U. after    7 cycles
 Optimization completed.
    -- Stationary point found.
 Normal termination of Gaussian 16 at Thu Dec 10 21:29:18 2020.

 --------------------------------------------------------------------
 #N Geom=AllCheck Guess=TCheck SCRF=Check GenChk RB3LYP/6-31G(d) Freq
 --------------------------------------------------------------------

 Structure from the checkpoint file:  "JID_6100.chk"
 ------------------------------
 CID_28690096_JID_6100_neutraal
 ------------------------------
 Charge =  0 Multiplicity = 1

 SCF Done:  E(RB3LYP) =  -728.131574596     A.U. after    1 cycles

  Exact polarizability: 164.748 -11.347 154.319 -13.118  -5.858 114.092
 Approx polarizability: 226.908 -19.103 236.669 -31.131  -9.162 185.844

                      1                      2                      3
                      A                      A                      A
 Frequencies --     29.5559                37.3171                58.8501
 Red. masses --      5.2057                 3.0819                 3.9577
 Frc consts  --      0.0027                 0.0025                 0.0081
 IR Inten    --      1.6363                 0.4704                 4.0279

                      4                      5                      6
                      A                      A                      A
 Frequencies --     70.3858               101.7244               126.8223
 Red. masses --      3.1017                 3.4639                 6.0906
 Frc consts  --      0.0091                 0.0211                 0.0577
 IR Inten    --      1.0741                 2.6910                 0.2497

                      7                      8                      9
                      A                      A                      A
 Frequencies --    152.7301               203.8313               216.0404
 Red. masses --      4.1864                 3.0549                 2.4305
 Frc consts  --      0.0575                 0.0748                 0.0668
 IR Inten    --      1.7170                 6.5997                 1.7061

                     10                     11                     12
                      A                      A                      A
 Frequencies --    245.9276               249.1877               258.7949
 Red. masses --      1.2476                 1.1186                 1.1611
 Frc consts  --      0.0445                 0.0409                 0.0458
 IR Inten    --      6.2614                15.0487                 0.1690

                     13                     14                     15
                      A                      A                      A
 Frequencies --    274.3923               287.3021               302.3135
 Red. masses --      2.0773                 1.1564                 1.1914
 Frc consts  --      0.0922                 0.0562                 0.0642
 IR Inten    --      0.9081                 1.2969                 0.3837

                     16                     17                     18
                      A                      A                      A
 Frequencies --    334.6604               353.9433               372.4445
 Red. masses --      4.3703                 2.4291                 3.2437
 Frc consts  --      0.2884                 0.1793                 0.2651
 IR Inten    --      8.2357                 0.9912                 1.1093

                     19                     20                     21
                      A                      A                      A
 Frequencies --    374.1307               390.2291               400.3924
 Red. masses --      2.8366                 2.8126                 3.8609
 Frc consts  --      0.2339                 0.2524                 0.3647
 IR Inten    --      0.1796                 1.4845                 3.4439

                     22                     23                     24
                      A                      A                      A
 Frequencies --    447.9573               459.6285               480.6885
 Red. masses --      5.0265                 2.6549                 3.2678
 Frc consts  --      0.5943                 0.3304                 0.4449
 IR Inten    --      2.1341                 1.3815                 4.0407

                     25                     26                     27
                      A                      A                      A
 Frequencies --    528.0813               566.1775               585.6447
 Red. masses --      3.8878                 3.2308                 3.0676
 Frc consts  --      0.6388                 0.6102                 0.6199
 IR Inten    --      8.9245                 9.1727                28.9033

                     28                     29                     30
                      A                      A                      A
 Frequencies --    637.8365               652.8906               689.9633
 Red. masses --      2.4412                 1.7761                 2.4294
 Frc consts  --      0.5852                 0.4461                 0.6814
 IR Inten    --    112.7123                58.5539               208.7415

                     31                     32                     33
                      A                      A                      A
 Frequencies --    727.0893               752.1472               759.7944
 Red. masses --      3.1457                 3.4864                 3.7486
 Frc consts  --      0.9798                 1.1621                 1.2750
 IR Inten    --     55.3204                15.3629                 7.1062

                     34                     35                     36
                      A                      A                      A
 Frequencies --    793.6706               806.4829               817.1839
 Red. masses --      4.8949                 3.1719                 1.6692
 Frc consts  --      1.8167                 1.2155                 0.6568
 IR Inten    --     16.0519                 4.4272                49.8063

                     37                     38                     39
                      A                      A                      A
 Frequencies --    880.3003               909.2731               926.8032
 Red. masses --      1.5367                 1.2869                 2.9152
 Frc consts  --      0.7016                 0.6269                 1.4754
 IR Inten    --     21.1042                 1.1796                12.0098

                     40                     41                     42
                      A                      A                      A
 Frequencies --    934.1293               948.9732               981.1793
 Red. masses --      1.8820                 1.8939                 1.2020
 Frc consts  --      0.9676                 1.0049                 0.6818
 IR Inten    --      5.7162                 1.0430                 0.1580

                     43                     44                     45
                      A                      A                      A
 Frequencies --   1000.4492              1069.3299              1074.3902
 Red. masses --      2.2330                 1.3861                 2.4344
 Frc consts  --      1.3168                 0.9339                 1.6556
 IR Inten    --      8.2997                 3.5929                24.1129

                     46                     47                     48
                      A                      A                      A
 Frequencies --   1075.9926              1130.3438              1134.4503
 Red. masses --      2.2119                 1.6370                 2.3310
 Frc consts  --      1.5088                 1.2323                 1.7675
 IR Inten    --     17.1390                15.8290                26.0531

                     49                     50                     51
                      A                      A                      A
 Frequencies --   1187.4227              1191.9103              1220.2226
 Red. masses --      1.2705                 1.2676                 1.3868
 Frc consts  --      1.0554                 1.0610                 1.2166
 IR Inten    --      1.0490                 7.0529                 8.3467

                     52                     53                     54
                      A                      A                      A
 Frequencies --   1245.1078              1264.9623              1280.1071
 Red. masses --      2.2045                 2.7567                 2.1759
 Frc consts  --      2.0136                 2.5989                 2.1007
 IR Inten    --     20.7837                12.9267               159.9141

                     55                     56                     57
                      A                      A                      A
 Frequencies --   1285.5400              1313.3683              1329.7657
 Red. masses --      3.0338                 2.7214                 2.4650
 Frc consts  --      2.9540                 2.7657                 2.5681
 IR Inten    --     80.4140                66.5660                36.2599

                     58                     59                     60
                      A                      A                      A
 Frequencies --   1371.1051              1400.5828              1428.5384
 Red. masses --      5.8655                 3.9758                 1.2434
 Frc consts  --      6.4968                 4.5950                 1.4950
 IR Inten    --     29.2603               255.1274                 3.6315

                     61                     62                     63
                      A                      A                      A
 Frequencies --   1431.8059              1456.7049              1483.5988
 Red. masses --      1.2331                 1.2750                 1.4118
 Frc consts  --      1.4894                 1.5941                 1.8308
 IR Inten    --      6.6034                38.1009                22.3986

                     64                     65                     66
                      A                      A                      A
 Frequencies --   1490.0214              1503.6475              1508.2815
 Red. masses --      1.9487                 1.5954                 1.0735
 Frc consts  --      2.5491                 2.1253                 1.4389
 IR Inten    --     81.3145                15.3332                 0.5135

                     67                     68                     69
                      A                      A                      A
 Frequencies --   1517.9455              1518.3998              1519.8016
 Red. masses --      1.0482                 1.0511                 1.0495
 Frc consts  --      1.4231                 1.4278                 1.4282
 IR Inten    --      2.2731                 2.2319                 7.4620

                     70                     71                     72
                      A                      A                      A
 Frequencies --   1534.3178              1535.7843              1539.2272
 Red. masses --      1.0866                 1.0838                 1.1099
 Frc consts  --      1.5071                 1.5062                 1.5494
 IR Inten    --     25.5320                49.1897                 2.7106

                     73                     74                     75
                      A                      A                      A
 Frequencies --   1550.7510              1559.5659              1648.2977
 Red. masses --      1.0663                 2.3989                 6.6869
 Frc consts  --      1.5108                 3.4378                10.7040
 IR Inten    --      9.7392               118.7547                12.2977

                     76                     77                     78
                      A                      A                      A
 Frequencies --   1677.2617              1697.1501              1764.5305
 Red. masses --      3.4101                 1.3271                 8.0062
 Frc consts  --      5.6523                 2.2521                14.6871
 IR Inten    --      5.7793                70.8321               352.0944

                     79                     80                     81
                      A                      A                      A
 Frequencies --   3021.5625              3045.0434              3050.7900
 Red. masses --      1.0357                 1.0374                 1.0381
 Frc consts  --      5.5710                 5.6675                 5.6928
 IR Inten    --     60.0492                15.9972                38.9263

                     82                     83                     84
                      A                      A                      A
 Frequencies --   3065.6604              3080.1170              3109.5763
 Red. masses --      1.0404                 1.1057                 1.1013
 Frc consts  --      5.7610                 6.1802                 6.2743
 IR Inten    --     18.4672                42.9362                 3.7585

                     85                     86                     87
                      A                      A                      A
 Frequencies --   3115.4896              3127.8067              3135.8469
 Red. masses --      1.1002                 1.1014                 1.1022
 Frc consts  --      6.2918                 6.3483                 6.3859
 IR Inten    --     50.0968                 8.0135                48.0267

                     88                     89                     90
                      A                      A                      A
 Frequencies --   3158.7289              3159.7185              3169.8457
 Red. masses --      1.0994                 1.0993                 1.0991
 Frc consts  --      6.4632                 6.4667                 6.5068
 IR Inten    --      2.5969                23.4648                15.2143

                     91                     92                     93
                      A                      A                      A
 Frequencies --   3180.9265              3183.4569              3226.3496
 Red. masses --      1.0893                 1.0901                 1.0911
 Frc consts  --      6.4938                 6.5088                 6.6915
 IR Inten    --     18.6808                11.8902                11.2606

                     94                     95                     96
                      A                      A                      A
 Frequencies --   3537.0449              3551.8894              3633.1580
 Red. masses --      1.0483                 1.0744                 1.0970
 Frc consts  --      7.7275                 7.9863                 8.5314
 IR Inten    --      8.2249                10.5781                 6.3302

 - Thermochemistry -
 -------------------
 Temperature   298.150 Kelvin.  Pressure   1.00000 Atm.
 Atom     1 has atomic number  6 and mass  12.00000

 Molecular mass:   222.13683 amu.
 Principal axes and moments of inertia in atomic units:
                           1         2         3
     Eigenvalues --  2713.858574316.333375305.40354
           X            0.99978   0.01596   0.01337
           Y           -0.01573   0.99973  -0.01685
           Z           -0.01364   0.01664   0.99977
 This molecule is an asymmetric top.
 Rotational symmetry number  1.
 Warning -- assumption of classical behavior for rotation
           may cause significant error
 Rotational temperatures (Kelvin)      0.03192     0.02007     0.01633
 Rotational constants (GHZ):           0.66501     0.41812     0.34017
 Zero-point vibrational energy     763340.5 (Joules/Mol)
                                  182.44276 (Kcal/Mol)
 Warning -- explicit consideration of  27 degrees of freedom as
           vibrations may cause significant error
 Vibrational temperatures:     42.52    53.69    84.67   101.27   146.36
          (Kelvin)            182.47   219.74   293.27   310.83   353.84
                              358.53   372.35   394.79   413.36   434.96
                              481.50   509.25   535.86   538.29   561.45
                              576.08   644.51   661.30   691.60   759.79
                              814.60   842.61   917.70   939.36   992.70
                             1046.12  1082.17  1093.17  1141.91  1160.35
                             1175.75  1266.56  1308.24  1333.46  1344.00
                             1365.36  1411.70  1439.42  1538.53  1545.81
                             1548.11  1626.31  1632.22  1708.44  1714.89
                             1755.63  1791.43  1820.00  1841.79  1849.61
                             1889.64  1913.24  1972.71  2015.13  2055.35
                             2060.05  2095.87  2134.57  2143.81  2163.41
                             2170.08  2183.99  2184.64  2186.66  2207.54
                             2209.65  2214.60  2231.18  2243.87  2371.53
                             2413.21  2441.82  2538.77  4347.35  4381.14
                             4389.41  4410.80  4431.60  4473.99  4482.49
                             4500.22  4511.78  4544.71  4546.13  4560.70
                             4576.64  4580.28  4642.00  5089.02  5110.38
                             5227.30

 Zero-point correction=                           0.290741 (Hartree/Particle)
 Thermal correction to Energy=                    0.307758
 Thermal correction to Enthalpy=                  0.308702
 Thermal correction to Gibbs Free Energy=         0.246110
 Sum of electronic and zero-point Energies=           -727.840834
 Sum of electronic and thermal Energies=              -727.823816
 Sum of electronic and thermal Enthalpies=            -727.822872
 Sum of electronic and thermal Free Energies=         -727.885465

                     E (Thermal)             CV                S
                      KCal/Mol        Cal/Mol-Kelvin    Cal/Mol-Kelvin
 Total                  193.121             64.680            131.736
 Electronic               0.000              0.000              0.000
 Translational            0.889              2.981             42.097
 Rotational               0.889              2.981             32.497
 Vibrational            191.344             58.719             57.143
 Vibration     1          0.593              1.984              5.859
 Vibration     2          0.594              1.982              5.397
 Vibration     3          0.596              1.974              4.495
 Vibration     4          0.598              1.968              4.143
 Vibration     5          0.604              1.948              3.421
 Vibration     6          0.611              1.926              2.994
 Vibration     7          0.619              1.900              2.638
 Vibration     8          0.640              1.834              2.098
 Vibration     9          0.645              1.817              1.992
 Vibration    10          0.660              1.770              1.760
 Vibration    11          0.662              1.764              1.736
 Vibration    12          0.668              1.748              1.670
 Vibration    13          0.677              1.721              1.568
 Vibration    14          0.684              1.697              1.490
 Vibration    15          0.694              1.669              1.404
 Vibration    16          0.716              1.606              1.237
 Vibration    17          0.730              1.567              1.149
 Vibration    18          0.744              1.529              1.070
 Vibration    19          0.745              1.525              1.063
 Vibration    20          0.758              1.491              0.999
 Vibration    21          0.766              1.469              0.961
 Vibration    22          0.807              1.365              0.802
 Vibration    23          0.818              1.340              0.767
 Vibration    24          0.837              1.293              0.708
 Vibration    25          0.883              1.188              0.592
 Vibration    26          0.922              1.104              0.512
 Vibration    27          0.943              1.062              0.475

 Optimization completed.
    -- Stationary point found.
 Normal termination of Gaussian 16 at Thu Dec 10 21:41:42 2020.

 ----------------------------------------------------------------------
 # B3LYP/6-311++G(d,p) empiricaldispersion=gd3bj scf=xqc pop=npa geom=c
 heck
 ----------------------------------------------------------------------

 --------------------------------------
 CID_28690096_JID_6100_Energie_neutraal
 --------------------------------------
 Structure from the checkpoint file:  "JID_6100.chk"
 Charge =  0 Multiplicity = 1

 SCF Done:  E(RB3LYP) =  -728.345996810     A.U. after   15 cycles
 Normal termination of Gaussian 16 at Thu Dec 10 21:47:27 2020.

 ----------------------------------------------------------------------
 # B3LYP/6-311++G(d,p) empiricaldispersion=gd3bj scf=xqc pop=npa geom=c
 heck
 ----------------------------------------------------------------------

 ------------------------------------
 CID_28690096_JID_6100_Energie_kation
 ------------------------------------
 Structure from the checkpoint file:  "JID_6100.chk"
 Charge =  1 Multiplicity = 2

 SCF Done:  E(UB3LYP) =  -728.077452721     A.U. after   23 cycles
 Normal termination of Gaussian 16 at Thu Dec 10 21:59:42 2020.
 Gaussian 16:  ES64L-G16RevA.03 25-Dec-2016

 ----------------------------------------------------------------------
 # B3LYP/6-311++G(d,p) empiricaldispersion=gd3bj scf=xqc pop=npa geom=c
 heck
 ----------------------------------------------------------------------

 -----------------------------------
 CID_28690096_JID_6100_Energie_anion
 -----------------------------------
 Structure from the checkpoint file:  "JID_6100.chk"
 Charge = -1 Multiplicity = 2

                         Standard orientation:
 ---------------------------------------------------------------------
 Center     Atomic      Atomic             Coordinates (Angstroms)
 Number     Number       Type             X           Y           Z
 ---------------------------------------------------------------------
      1          6           0       -1.358963   -1.301864   -1.444396
      2          6           0       -2.351602   -0.577453   -0.523722
      3          6           0       -2.626627    0.843737   -1.046701
      4          6           0       -3.662253   -1.380583   -0.486969
      5          7           0       -1.888779   -0.522966    0.883363
      6          6           0       -0.718527   -0.097035    1.457760
      7          8           0       -0.671540    0.183507    2.650531
      8          6           0        0.541897   -0.088332    0.631605
      9          6           0        1.005515    1.094957    0.038154
     10          6           0        2.219624    1.083235   -0.649986
     11          6           0        2.973820   -0.088861   -0.728997
     12          6           0        2.533791   -1.271097   -0.124187
     13          6           0        1.307588   -1.247128    0.557000
     14          7           0        3.260774   -2.466644   -0.247087
     15          8           0        0.192070    2.193214    0.167328
     16          6           0        0.667128    3.428808   -0.334211
     17          1           0       -1.841436   -1.479288   -2.411842
     18          1           0       -1.067203   -2.267731   -1.021510
     19          1           0       -0.454126   -0.719375   -1.620987
     20          1           0       -2.995006    0.810013   -2.078844
     21          1           0       -3.384236    1.340045   -0.429419
     22          1           0       -1.717069    1.447460   -1.013438
     23          1           0       -3.484356   -2.399152   -0.126386
     24          1           0       -4.398718   -0.903869    0.172024
     25          1           0       -4.099910   -1.437320   -1.488473
     26          1           0       -2.642814   -0.450488    1.559641
     27          1           0        2.595812    1.981702   -1.124920
     28          1           0        3.916363   -0.079701   -1.270852
     29          1           0        0.937679   -2.152574    1.031384
     30          1           0        3.101805   -3.118700    0.512350
     31          1           0        4.254890   -2.326766   -0.385538
     32          1           0        1.616089    3.713522    0.138782
     33          1           0        0.803339    3.398605   -1.423992
     34          1           0       -0.097651    4.166806   -0.086880
 ---------------------------------------------------------------------

 SCF Done:  E(UB3LYP) =  -728.335075366     A.U. after   33 cycles
 SCF Done:  E(UB3LYP) =  -728.335075367     a.u. after    1 cycles

 The electronic state is 2-A.
 Alpha  occ. eigenvalues --  -19.05947 -18.99356 -14.24012 -14.21847 -10.18210
 Alpha  occ. eigenvalues --  -10.13804 -10.13644 -10.13133 -10.11601 -10.08956
 Alpha  occ. eigenvalues --  -10.08156 -10.08098 -10.07973 -10.07686 -10.06854
 Alpha  occ. eigenvalues --  -10.06757  -0.97594  -0.94349  -0.83255  -0.82226
 Alpha  occ. eigenvalues --   -0.75106  -0.70630  -0.67022  -0.65126  -0.60984
 Alpha  occ. eigenvalues --   -0.60272  -0.59804  -0.55337  -0.51580  -0.50229
 Alpha  occ. eigenvalues --   -0.47319  -0.43950  -0.42683  -0.41275  -0.39792
 Alpha  occ. eigenvalues --   -0.38191  -0.37475  -0.36740  -0.36382  -0.35176
 Alpha  occ. eigenvalues --   -0.34139  -0.33235  -0.32502  -0.31742  -0.31068
 Alpha  occ. eigenvalues --   -0.30311  -0.29765  -0.28914  -0.28414  -0.28168
 Alpha  occ. eigenvalues --   -0.27063  -0.25688  -0.25394  -0.24727  -0.24123
 Alpha  occ. eigenvalues --   -0.19244  -0.17403  -0.16516  -0.15070  -0.10362
 Alpha  occ. eigenvalues --    0.03917
 Alpha virt. eigenvalues --    0.05518   0.05888   0.07332   0.07670   0.07866
 Alpha virt. eigenvalues --    0.08117   0.09139   0.09462   0.09975   0.10297
 Alpha virt. eigenvalues --    0.10495   0.10528   0.11111   0.11423   0.12074

  Beta  occ. eigenvalues --  -19.05940 -18.99353 -14.24004 -14.21795 -10.18209
  Beta  occ. eigenvalues --  -10.13802 -10.13645 -10.13100 -10.11600 -10.08955
  Beta  occ. eigenvalues --  -10.08144 -10.08073 -10.07961 -10.07664 -10.06839
  Beta  occ. eigenvalues --  -10.06737  -0.97578  -0.94344  -0.83245  -0.82167
  Beta  occ. eigenvalues --   -0.75078  -0.70614  -0.66996  -0.65089  -0.60944
  Beta  occ. eigenvalues --   -0.60233  -0.59755  -0.55305  -0.51549  -0.50192
  Beta  occ. eigenvalues --   -0.47277  -0.43915  -0.42646  -0.41224  -0.39768
  Beta  occ. eigenvalues --   -0.38160  -0.37447  -0.36703  -0.36344  -0.35150
  Beta  occ. eigenvalues --   -0.34118  -0.33211  -0.32482  -0.31703  -0.31032
  Beta  occ. eigenvalues --   -0.30285  -0.29742  -0.28891  -0.28393  -0.28145
  Beta  occ. eigenvalues --   -0.27037  -0.25662  -0.25373  -0.24704  -0.24093
  Beta  occ. eigenvalues --   -0.19215  -0.17390  -0.16502  -0.15060  -0.10334
  Beta virt. eigenvalues --    0.05854   0.06574   0.06901   0.07378   0.08168
  Beta virt. eigenvalues --    0.08411   0.08598   0.09411   0.10046   0.10294
  Beta virt. eigenvalues --    0.10461   0.10622   0.10760   0.11285   0.11649

 Mulliken charges and spin densities:
               1          2
     1  C    0.036291  -0.617492
     2  C   -0.904549   0.973085
     3  C    0.112016  -0.635517
     4  C    0.323507  -0.722579
     5  N   -0.069502   0.032251
     6  C    0.579391  -0.784057
     7  O   -0.248357   0.002618
     8  C    0.113957   0.388108
     9  C   -0.679441   0.200731
    10  C    0.113413  -0.141022
    11  C    1.118985  -0.676586
    12  C   -0.031599  -0.722980
    13  C   -0.358035   0.077074
    14  N   -0.319942   0.035667
    15  O   -0.097968   0.013643
    16  C    0.600208  -0.917108
    17  H   -0.042647   0.197574
    18  H    0.015841   0.128368
    19  H    0.262236  -0.069801
    20  H   -0.150452   0.283699
    21  H   -0.018886   0.164556
    22  H    0.267079  -0.077432
    23  H   -0.047485   0.217002
    24  H   -0.169971   0.297947
    25  H    0.005712   0.141894
    26  H    0.337049  -0.051644
    27  H   -0.255436   0.440739
    28  H   -0.637642   0.822177
    29  H   -0.027410   0.216842
    30  H   -0.130717   0.364613
    31  H   -0.244887   0.498628
    32  H   -0.054621   0.196685
    33  H   -0.263405   0.421450
    34  H   -0.132737   0.300865
 Sum of Mulliken charges =  -1.00000   1.00000

 Dipole moment (field-independent basis, Debye):
    X=             -4.5959    Y=              0.4135    Z=              0.4613  Tot=              4.6375
 Quadrupole moment (field-independent basis, Debye-Ang):
   XX=           -169.9116   YY=           -146.6019   ZZ=           -141.3648
   XY=              8.5084   XZ=              3.3953   YZ=              0.3313

 Summary of Natural Population Analysis:

                                       Natural Population
                Natural  -----------------------------------------------
    Atom  No    Charge         Core      Valence    Rydberg      Total
 -----------------------------------------------------------------------
      C    1   -0.28995      0.99961     2.28357    0.00676     3.28995
      C    2    0.05686      0.99959     1.93229    0.01126     2.94314
      C    3   -0.29147      0.99961     2.28487    0.00699     3.29147
      C    4   -0.28537      0.99962     2.27886    0.00689     3.28537
      N    5   -0.32271      0.99965     2.81212    0.01094     3.82271
      C    6    0.34995      0.99962     1.62710    0.02334     2.65005
      O    7   -0.31323      0.99988     3.30801    0.00535     4.31323
      C    8   -0.07056      0.99943     2.05867    0.01246     3.07056
      C    9    0.14722      0.99933     1.83982    0.01363     2.85278
      C   10   -0.12975      0.99952     2.12112    0.00910     3.12975
      C   11   -0.11198      0.99953     2.10207    0.01038     3.11198
      C   12    0.07423      0.99948     1.91492    0.01137     2.92577
      C   13   -0.10500      0.99948     2.09614    0.00937     3.10500
      N   14   -0.39661      0.99972     2.88659    0.01030     3.89661
      O   15   -0.27633      0.99986     3.26741    0.00906     4.27633
      C   16   -0.10032      0.99960     2.09145    0.00927     3.10032
      H   17    0.10067      0.00000     0.39852    0.00081     0.39933
      H   18    0.10432      0.00000     0.39467    0.00101     0.39568
      H   19    0.10996      0.00000     0.38860    0.00144     0.39004
      H   20    0.09894      0.00000     0.40013    0.00093     0.40106
      H   21    0.09816      0.00000     0.40079    0.00105     0.40184
      H   22    0.11141      0.00000     0.38691    0.00168     0.38859
      H   23    0.10319      0.00000     0.39585    0.00096     0.39681
      H   24    0.09765      0.00000     0.40136    0.00099     0.40235
      H   25    0.10350      0.00000     0.39562    0.00088     0.39650
      H   26    0.19025      0.00000     0.30729    0.00246     0.30975
      H   27    0.10712      0.00000     0.39137    0.00151     0.39288
      H   28    0.10261      0.00000     0.39579    0.00159     0.39739
      H   29    0.10206      0.00000     0.39647    0.00147     0.39794
      H   30    0.18425      0.00000     0.31329    0.00245     0.31575
      H   31    0.18725      0.00000     0.30805    0.00470     0.31275
      H   32    0.08510      0.00000     0.41365    0.00126     0.41490
      H   33    0.08486      0.00000     0.41346    0.00167     0.41514
      H   34    0.09372      0.00000     0.40536    0.00092     0.40628
 =======================================================================
   * Total *    0.00000     15.99352    43.81221    0.19426    60.00000

 Normal termination of Gaussian 16 at Thu Dec 10 22:17:37 2020.
