 Gaussian 16, Revision A.03,

 -----------------------------------------------------------
 # opt freq B3LYP/6-31G(d) empiricaldispersion=gd3bj scf=xqc
 -----------------------------------------------------------

 ------------------------------
 CID_61507643_JID_8548_neutraal
 ------------------------------
 Symbolic Z-matrix:
 Charge =  0 Multiplicity = 1

 SCF Done:  E(RB3LYP) =  -1178.06565190     A.U. after   15 cycles
 SCF Done:  E(RB3LYP) =  -1178.07022662     A.U. after   12 cycles
 SCF Done:  E(RB3LYP) =  -1178.07187324     A.U. after   12 cycles
 SCF Done:  E(RB3LYP) =  -1178.07243936     A.U. after   12 cycles
 SCF Done:  E(RB3LYP) =  -1178.07236192     A.U. after   13 cycles
 SCF Done:  E(RB3LYP) =  -1178.07282565     A.U. after   11 cycles
 SCF Done:  E(RB3LYP) =  -1178.07301727     A.U. after   12 cycles
 SCF Done:  E(RB3LYP) =  -1178.07338731     A.U. after   15 cycles
 SCF Done:  E(RB3LYP) =  -1178.07363719     A.U. after   11 cycles
 SCF Done:  E(RB3LYP) =  -1178.07378506     A.U. after   11 cycles
 SCF Done:  E(RB3LYP) =  -1178.07391429     A.U. after   10 cycles
 SCF Done:  E(RB3LYP) =  -1178.07391472     A.U. after    8 cycles
 SCF Done:  E(RB3LYP) =  -1178.07391477     A.U. after    8 cycles
 SCF Done:  E(RB3LYP) =  -1178.07391479     A.U. after    7 cycles
 SCF Done:  E(RB3LYP) =  -1178.07391480     A.U. after    6 cycles
 Optimization completed.
    -- Stationary point found.
 Normal termination of Gaussian 16 at Fri Dec 11 21:07:35 2020.

 --------------------------------------------------------------------
 #N Geom=AllCheck Guess=TCheck SCRF=Check GenChk RB3LYP/6-31G(d) Freq
 --------------------------------------------------------------------

 Structure from the checkpoint file:  "JID_8548.chk"
 ------------------------------
 CID_61507643_JID_8548_neutraal
 ------------------------------
 Charge =  0 Multiplicity = 1

 SCF Done:  E(RB3LYP) =  -1178.07391480     A.U. after    1 cycles

  Exact polarizability: 250.399   1.026 192.260   8.608  -4.374  75.259
 Approx polarizability: 346.475   4.861 343.288  17.587 -11.262 120.734

                      1                      2                      3
                      A                      A                      A
 Frequencies --     19.7302                28.1153                48.6849
 Red. masses --      6.7585                 5.2288                 5.9279
 Frc consts  --      0.0016                 0.0024                 0.0083
 IR Inten    --      0.0432                 1.1816                 0.9112

                      4                      5                      6
                      A                      A                      A
 Frequencies --     60.5051                85.8663               127.4688
 Red. masses --      7.5216                 3.8059                 2.9012
 Frc consts  --      0.0162                 0.0165                 0.0278
 IR Inten    --      0.4985                 2.0930                 0.9651

                      7                      8                      9
                      A                      A                      A
 Frequencies --    132.8384               150.4899               181.7014
 Red. masses --      1.2173                 4.9846                 4.9774
 Frc consts  --      0.0127                 0.0665                 0.0968
 IR Inten    --      0.1137                 1.4654                 4.8012

                     10                     11                     12
                      A                      A                      A
 Frequencies --    193.9997               209.4717               261.3291
 Red. masses --      5.3682                 3.6880                 3.3411
 Frc consts  --      0.1190                 0.0953                 0.1344
 IR Inten    --      0.6038                 5.6178                 1.2107

                     13                     14                     15
                      A                      A                      A
 Frequencies --    277.0008               340.2454               360.1430
 Red. masses --      5.9358                 3.2850                 2.7584
 Frc consts  --      0.2683                 0.2241                 0.2108
 IR Inten    --      7.1479                21.1627                 9.3507

                     16                     17                     18
                      A                      A                      A
 Frequencies --    377.5013               388.7403               397.9441
 Red. masses --      5.6875                 3.0067                 1.5612
 Frc consts  --      0.4775                 0.2677                 0.1457
 IR Inten    --      1.2131                 8.0194                21.4548

                     19                     20                     21
                      A                      A                      A
 Frequencies --    426.7132               436.5972               518.4050
 Red. masses --      3.4550                 4.1951                 4.1019
 Frc consts  --      0.3707                 0.4711                 0.6495
 IR Inten    --     14.8334                17.9112                28.0302

                     22                     23                     24
                      A                      A                      A
 Frequencies --    521.1737               538.0313               557.1752
 Red. masses --      4.3477                 1.9601                 3.9923
 Frc consts  --      0.6958                 0.3343                 0.7302
 IR Inten    --     28.6738                82.7462                77.9769

                     25                     26                     27
                      A                      A                      A
 Frequencies --    561.1389               569.4006               604.3932
 Red. masses --      2.2591                 2.3174                 2.0961
 Frc consts  --      0.4191                 0.4427                 0.4511
 IR Inten    --    154.6831                74.4583                89.4868

                     28                     29                     30
                      A                      A                      A
 Frequencies --    620.7105               647.7502               656.5877
 Red. masses --      1.7566                 4.9748                 4.2669
 Frc consts  --      0.3988                 1.2298                 1.0838
 IR Inten    --     17.9898                 1.1181                46.6961

                     31                     32                     33
                      A                      A                      A
 Frequencies --    674.3905               708.6929               738.3004
 Red. masses --      2.6110                 3.9879                 3.6028
 Frc consts  --      0.6997                 1.1801                 1.1571
 IR Inten    --     85.1550                10.3903                 3.7286

                     34                     35                     36
                      A                      A                      A
 Frequencies --    743.8490               782.2811               785.6963
 Red. masses --      1.3552                 5.8531                 5.2191
 Frc consts  --      0.4418                 2.1104                 1.8983
 IR Inten    --     28.4802                23.2232                18.4864

                     37                     38                     39
                      A                      A                      A
 Frequencies --    820.4601               846.7880               863.8335
 Red. masses --      1.6097                 4.1306                 4.2869
 Frc consts  --      0.6384                 1.7451                 1.8848
 IR Inten    --     33.9653                 0.5953                 8.9208

                     40                     41                     42
                      A                      A                      A
 Frequencies --    909.5581               927.2026               946.7372
 Red. masses --      1.4652                 1.3005                 4.4251
 Frc consts  --      0.7142                 0.6587                 2.3368
 IR Inten    --      8.8172                 1.9580                 5.0841

                     43                     44                     45
                      A                      A                      A
 Frequencies --    994.9346              1021.7489              1039.3366
 Red. masses --      4.0617                 1.6747                 1.6042
 Frc consts  --      2.3689                 1.0301                 1.0210
 IR Inten    --     15.5199                 4.1415                 4.8754

                     46                     47                     48
                      A                      A                      A
 Frequencies --   1079.8885              1089.2735              1112.7709
 Red. masses --      1.5059                 2.1247                 4.4432
 Frc consts  --      1.0347                 1.4853                 3.2416
 IR Inten    --      3.7717                 8.9913               286.4899

                     49                     50                     51
                      A                      A                      A
 Frequencies --   1125.9494              1169.4509              1187.6385
 Red. masses --      2.2908                 1.9360                 1.7041
 Frc consts  --      1.7111                 1.5600                 1.4162
 IR Inten    --     11.9694                13.8299                33.9509

                     52                     53                     54
                      A                      A                      A
 Frequencies --   1205.6782              1210.6377              1252.8574
 Red. masses --      2.1128                 1.3525                 1.0800
 Frc consts  --      1.8095                 1.1679                 0.9988
 IR Inten    --    128.2843                99.3517                20.9482

                     55                     56                     57
                      A                      A                      A
 Frequencies --   1285.5162              1338.7222              1342.6176
 Red. masses --      1.8365                 2.3861                 1.9949
 Frc consts  --      1.7881                 2.5195                 2.1187
 IR Inten    --     65.6837                 7.1368                21.3181

                     58                     59                     60
                      A                      A                      A
 Frequencies --   1349.7725              1355.2871              1384.7915
 Red. masses --      4.1032                 3.1681                 1.9590
 Frc consts  --      4.4045                 3.4286                 2.2134
 IR Inten    --     23.8308               152.6557                74.1793

                     61                     62                     63
                      A                      A                      A
 Frequencies --   1413.4242              1443.0902              1471.4029
 Red. masses --      2.8711                 1.2725                 2.7580
 Frc consts  --      3.3795                 1.5613                 3.5181
 IR Inten    --     20.4296                 1.7872                21.2471

                     64                     65                     66
                      A                      A                      A
 Frequencies --   1505.6535              1512.3314              1535.1540
 Red. masses --      1.0439                 1.1851                 1.3733
 Frc consts  --      1.3943                 1.5970                 1.9069
 IR Inten    --      6.2305                 6.7442                75.1858

                     67                     68                     69
                      A                      A                      A
 Frequencies --   1551.3410              1559.1641              1563.8442
 Red. masses --      1.6792                 2.9878                 2.9608
 Frc consts  --      2.3810                 4.2794                 4.2663
 IR Inten    --    280.3856               306.3531                10.3506

                     70                     71                     72
                      A                      A                      A
 Frequencies --   1601.1756              1627.5368              1683.0457
 Red. masses --      5.0430                 4.5058                 1.4637
 Frc consts  --      7.6176                 7.0321                 2.4428
 IR Inten    --     36.8194                15.9928               130.5434

                     73                     74                     75
                      A                      A                      A
 Frequencies --   1700.1536              1807.4488              2939.9957
 Red. masses --      3.1465                 9.1592                 1.0746
 Frc consts  --      5.3587                17.6296                 5.4724
 IR Inten    --      6.8088               337.1115                46.6889

                     76                     77                     78
                      A                      A                      A
 Frequencies --   3033.3433              3055.2515              3111.5814
 Red. masses --      1.0848                 1.0365                 1.1014
 Frc consts  --      5.8809                 5.7006                 6.2828
 IR Inten    --     28.1575                22.1335                13.7163

                     79                     80                     81
                      A                      A                      A
 Frequencies --   3142.0043              3175.6784              3208.7412
 Red. masses --      1.1020                 1.0882                 1.0919
 Frc consts  --      6.4099                 6.4660                 6.6235
 IR Inten    --     16.1199                25.3060                18.4006

                     82                     83                     84
                      A                      A                      A
 Frequencies --   3212.7482              3277.7511              3560.6703
 Red. masses --      1.0898                 1.0949                 1.0755
 Frc consts  --      6.6272                 6.9304                 8.0338
 IR Inten    --      5.0991                 1.4435                82.8701

                     85                     86                     87
                      A                      A                      A
 Frequencies --   3575.6174              3686.2543              3696.1732
 Red. masses --      1.0472                 1.0976                 1.0660
 Frc consts  --      7.8879                 8.7874                 8.5807
 IR Inten    --     42.2194                82.3677                44.7265

 - Thermochemistry -
 -------------------
 Temperature   298.150 Kelvin.  Pressure   1.00000 Atm.
 Atom     1 has atomic number  6 and mass  12.00000

 Molecular mass:   263.07285 amu.
 Principal axes and moments of inertia in atomic units:
                           1         2         3
     Eigenvalues --  2042.90646********************
           X            0.99986  -0.01672   0.00085
           Y            0.01672   0.99986  -0.00090
           Z           -0.00083   0.00092   1.00000
 This molecule is an asymmetric top.
 Rotational symmetry number  1.
 Warning -- assumption of classical behavior for rotation
           may cause significant error
 Rotational temperatures (Kelvin)      0.04240     0.00688     0.00596
 Rotational constants (GHZ):           0.88342     0.14341     0.12427
 Zero-point vibrational energy     635486.8 (Joules/Mol)
                                  151.88498 (Kcal/Mol)
 Warning -- explicit consideration of  28 degrees of freedom as
           vibrations may cause significant error
 Vibrational temperatures:     28.39    40.45    70.05    87.05   123.54
          (Kelvin)            183.40   191.12   216.52   261.43   279.12
                              301.38   375.99   398.54   489.54   518.17
                              543.14   559.31   572.55   613.95   628.17
                              745.87   749.85   774.11   801.65   807.35
                              819.24   869.59   893.06   931.97   944.68
                              970.30  1019.65  1062.25  1070.23  1125.53
                             1130.44  1180.46  1218.34  1242.86  1308.65
                             1334.04  1362.14  1431.49  1470.07  1495.37
                             1553.72  1567.22  1601.03  1619.99  1682.58
                             1708.75  1734.70  1741.84  1802.58  1849.57
                             1926.12  1931.73  1942.02  1949.96  1992.41
                             2033.60  2076.28  2117.02  2166.30  2175.91
                             2208.74  2232.03  2243.29  2250.02  2303.73
                             2341.66  2421.53  2446.14  2600.52  4230.00
                             4364.30  4395.83  4476.87  4520.64  4569.09
                             4616.66  4622.43  4715.95  5123.01  5144.52
                             5303.70  5317.97

 Zero-point correction=                           0.242044 (Hartree/Particle)
 Thermal correction to Energy=                    0.259016
 Thermal correction to Enthalpy=                  0.259960
 Thermal correction to Gibbs Free Energy=         0.195173
 Sum of electronic and zero-point Energies=          -1177.831871
 Sum of electronic and thermal Energies=             -1177.814899
 Sum of electronic and thermal Enthalpies=           -1177.813954
 Sum of electronic and thermal Free Energies=        -1177.878742

                     E (Thermal)             CV                S
                      KCal/Mol        Cal/Mol-Kelvin    Cal/Mol-Kelvin
 Total                  162.535             64.332            136.356
 Electronic               0.000              0.000              0.000
 Translational            0.889              2.981             42.601
 Rotational               0.889              2.981             34.278
 Vibrational            160.758             58.370             59.477
 Vibration     1          0.593              1.986              6.661
 Vibration     2          0.593              1.984              5.958
 Vibration     3          0.595              1.978              4.870
 Vibration     4          0.597              1.973              4.441
 Vibration     5          0.601              1.959              3.752
 Vibration     6          0.611              1.926              2.984
 Vibration     7          0.613              1.921              2.905
 Vibration     8          0.618              1.902              2.666
 Vibration     9          0.630              1.865              2.311
 Vibration    10          0.635              1.848              2.189
 Vibration    11          0.642              1.826              2.048
 Vibration    12          0.669              1.744              1.653
 Vibration    13          0.678              1.716              1.552
 Vibration    14          0.720              1.595              1.211
 Vibration    15          0.735              1.554              1.121
 Vibration    16          0.748              1.518              1.049
 Vibration    17          0.757              1.494              1.005
 Vibration    18          0.764              1.475              0.970
 Vibration    19          0.788              1.412              0.869
 Vibration    20          0.797              1.390              0.837
 Vibration    21          0.873              1.209              0.614
 Vibration    22          0.876              1.203              0.607
 Vibration    23          0.893              1.166              0.570
 Vibration    24          0.913              1.124              0.530
 Vibration    25          0.917              1.115              0.522
 Vibration    26          0.925              1.097              0.505
 Vibration    27          0.963              1.022              0.442
 Vibration    28          0.981              0.988              0.415

 Optimization completed on the basis of negligible forces.
    -- Stationary point found.
 Normal termination of Gaussian 16 at Fri Dec 11 21:17:25 2020.

 ----------------------------------------------------------------------
 # B3LYP/6-311++G(d,p) empiricaldispersion=gd3bj scf=xqc pop=npa geom=c
 heck
 ----------------------------------------------------------------------

 --------------------------------------
 CID_61507643_JID_8548_Energie_neutraal
 --------------------------------------
 Structure from the checkpoint file:  "JID_8548.chk"
 Charge =  0 Multiplicity = 1

 SCF Done:  E(RB3LYP) =  -1178.33016528     A.U. after   15 cycles
 Normal termination of Gaussian 16 at Fri Dec 11 21:22:32 2020.

 ----------------------------------------------------------------------
 # B3LYP/6-311++G(d,p) empiricaldispersion=gd3bj scf=xqc pop=npa geom=c
 heck
 ----------------------------------------------------------------------

 ------------------------------------
 CID_61507643_JID_8548_Energie_kation
 ------------------------------------
 Structure from the checkpoint file:  "JID_8548.chk"
 Charge =  1 Multiplicity = 2

 SCF Done:  E(UB3LYP) =  -1178.07865813     A.U. after   21 cycles
 Normal termination of Gaussian 16 at Fri Dec 11 21:32:21 2020.
 Gaussian 16:  ES64L-G16RevA.03 25-Dec-2016

 ----------------------------------------------------------------------
 # B3LYP/6-311++G(d,p) empiricaldispersion=gd3bj scf=xqc pop=npa geom=c
 heck
 ----------------------------------------------------------------------

 -----------------------------------
 CID_61507643_JID_8548_Energie_anion
 -----------------------------------
 Structure from the checkpoint file:  "JID_8548.chk"
 Charge = -1 Multiplicity = 2

                         Standard orientation:
 ---------------------------------------------------------------------
 Center     Atomic      Atomic             Coordinates (Angstroms)
 Number     Number       Type             X           Y           Z
 ---------------------------------------------------------------------
      1          6           0       -4.671200    2.626741    0.271342
      2          6           0       -4.331327    1.172375    0.156902
      3          6           0       -5.217924    0.135387    0.100374
      4         16           0       -4.378755   -1.380487   -0.046090
      5          6           0       -2.865326   -0.495234   -0.007752
      6          7           0       -3.000134    0.793076    0.097638
      7          6           0       -1.528998   -1.184203   -0.049375
      8          7           0       -0.521362   -0.254270   -0.511689
      9          6           0        0.828881   -0.521168   -0.270207
     10          6           0        1.760849    0.513275   -0.263047
     11          6           0        3.134668    0.291776   -0.065356
     12          6           0        3.618952   -1.029576    0.127713
     13          6           0        2.664945   -2.064604    0.124982
     14          6           0        1.312730   -1.827876   -0.064494
     15          7           0        4.960436   -1.359630    0.254356
     16          6           0        3.961065    1.515462   -0.057692
     17          8           0        3.552766    2.643744   -0.258773
     18          8           0        5.288436    1.311097    0.217896
     19          1           0       -4.226022    3.058101    1.175092
     20          1           0       -4.273861    3.184251   -0.584452
     21          1           0       -5.753394    2.777344    0.311369
     22          1           0       -6.297612    0.175278    0.128479
     23          1           0       -1.301431   -1.576096    0.960185
     24          1           0       -1.588669   -2.058785   -0.711882
     25          1           0       -0.798077    0.706983   -0.343779
     26          1           0        1.440288    1.539805   -0.408724
     27          1           0        3.009122   -3.086299    0.267246
     28          1           0        0.629331   -2.670967   -0.062803
     29          1           0        5.582780   -0.610242    0.519934
     30          1           0        5.142350   -2.238207    0.719679
     31          1           0        5.689189    2.199548    0.191624
 ---------------------------------------------------------------------

 SCF Done:  E(UB3LYP) =  -1178.33249194     A.U. after   33 cycles
 SCF Done:  E(UB3LYP) =  -1178.33249194     a.u. after    1 cycles

 The electronic state is 2-A.
 Alpha  occ. eigenvalues --  -88.76292 -19.04046 -18.96135 -14.19342 -14.19149
 Alpha  occ. eigenvalues --  -14.18729 -10.14866 -10.11140 -10.09872 -10.09723
 Alpha  occ. eigenvalues --  -10.08196 -10.08102 -10.07762 -10.06833 -10.03848
 Alpha  occ. eigenvalues --  -10.03334 -10.03170 -10.02032  -7.84956  -5.81237
 Alpha  occ. eigenvalues --   -5.80893  -5.80559  -0.97363  -0.87598  -0.85199
 Alpha  occ. eigenvalues --   -0.80427  -0.79505  -0.70224  -0.68241  -0.67398
 Alpha  occ. eigenvalues --   -0.62630  -0.62007  -0.57823  -0.54578  -0.52767
 Alpha  occ. eigenvalues --   -0.48317  -0.46970  -0.45744  -0.42520  -0.41356
 Alpha  occ. eigenvalues --   -0.39727  -0.38390  -0.37026  -0.35341  -0.34633
 Alpha  occ. eigenvalues --   -0.33799  -0.33366  -0.32968  -0.31924  -0.31428
 Alpha  occ. eigenvalues --   -0.30216  -0.29218  -0.28274  -0.27433  -0.27254
 Alpha  occ. eigenvalues --   -0.26832  -0.25795  -0.25064  -0.24334  -0.21299
 Alpha  occ. eigenvalues --   -0.20890  -0.19740  -0.17288  -0.16560  -0.14604
 Alpha  occ. eigenvalues --   -0.14011  -0.12938  -0.12369  -0.05685   0.04703
 Alpha virt. eigenvalues --    0.06745   0.07026   0.07803   0.08644   0.08874
 Alpha virt. eigenvalues --    0.09326   0.10482   0.10826   0.11196   0.12316
 Alpha virt. eigenvalues --    0.12583   0.13059   0.13336   0.13590   0.13822

  Beta  occ. eigenvalues --  -88.76266 -19.03976 -18.95932 -14.19332 -14.19093
  Beta  occ. eigenvalues --  -14.18732 -10.14617 -10.10848 -10.09865 -10.09742
  Beta  occ. eigenvalues --  -10.08165 -10.07954 -10.07763 -10.06911 -10.03780
  Beta  occ. eigenvalues --  -10.03286 -10.02967 -10.01786  -7.84933  -5.81230
  Beta  occ. eigenvalues --   -5.80886  -5.80464  -0.97110  -0.87273  -0.84966
  Beta  occ. eigenvalues --   -0.80396  -0.79455  -0.69983  -0.68044  -0.67230
  Beta  occ. eigenvalues --   -0.62225  -0.61870  -0.57580  -0.54430  -0.52287
  Beta  occ. eigenvalues --   -0.48160  -0.46781  -0.45548  -0.42380  -0.41184
  Beta  occ. eigenvalues --   -0.39644  -0.38262  -0.36857  -0.35081  -0.34459
  Beta  occ. eigenvalues --   -0.33608  -0.33225  -0.32884  -0.31332  -0.30913
  Beta  occ. eigenvalues --   -0.30066  -0.29106  -0.28144  -0.27220  -0.26862
  Beta  occ. eigenvalues --   -0.26682  -0.25490  -0.24902  -0.24069  -0.21145
  Beta  occ. eigenvalues --   -0.20568  -0.18900  -0.16655  -0.16449  -0.14402
  Beta  occ. eigenvalues --   -0.13597  -0.12107  -0.11210  -0.05072
  Beta virt. eigenvalues --    0.06735   0.07789   0.08595   0.08774   0.08830
  Beta virt. eigenvalues --    0.09313   0.09805   0.10466   0.10865   0.11156
  Beta virt. eigenvalues --    0.12386   0.12651   0.13226   0.13449   0.13621

 Mulliken charges and spin densities:
               1          2
     1  C   -0.645437  -0.019832
     2  C   -0.628983  -0.019985
     3  C    0.377795   0.131652
     4  S   -0.553008   0.059491
     5  C    0.102156   0.159762
     6  N    0.105653   0.025875
     7  C   -0.239052  -0.041101
     8  N    0.030940   0.011543
     9  C   -0.074518  -0.044294
    10  C   -0.983292   0.236384
    11  C    0.967634   0.048934
    12  C   -1.025988   0.000811
    13  C   -0.484814   0.006105
    14  C    0.567410   0.159591
    15  N   -0.350672   0.007939
    16  C    0.174078   0.133853
    17  O   -0.403134   0.075269
    18  O   -0.295199   0.010632
    19  H    0.150475   0.000020
    20  H    0.146902   0.000302
    21  H    0.124191   0.002149
    22  H    0.204198   0.000209
    23  H    0.126755   0.060266
    24  H    0.152931   0.027105
    25  H    0.310106   0.001608
    26  H    0.171866  -0.015484
    27  H    0.099060  -0.002247
    28  H    0.105409  -0.016605
    29  H    0.263613   0.000726
    30  H    0.212595   0.000632
    31  H    0.290333  -0.001309
 Sum of Mulliken charges =  -1.00000   1.00000

 Dipole moment (field-independent basis, Debye):
    X=             -2.5576    Y=             -1.7481    Z=              1.8806  Tot=              3.6241
 Quadrupole moment (field-independent basis, Debye-Ang):
   XX=           -162.7914   YY=           -131.2195   ZZ=           -125.4295
   XY=            -10.0443   XZ=              6.4995   YZ=             -0.3901

 Summary of Natural Population Analysis:

                                       Natural Population
                Natural  -----------------------------------------------
    Atom  No    Charge         Core      Valence    Rydberg      Total
 -----------------------------------------------------------------------
      C    1   -0.29210      0.99963     2.28790    0.00457     3.29210
      C    2    0.06112      0.99951     1.92719    0.01218     2.93888
      C    3   -0.19394      0.99945     2.18480    0.00969     3.19394
      S    4    0.17479      4.99944     2.80353    0.02223     7.82521
      C    5    0.08686      0.99964     1.89532    0.01817     2.91314
      N    6   -0.26092      0.99961     2.74873    0.01258     3.76092
      C    7   -0.08637      0.99958     2.07945    0.00734     3.08637
      N    8   -0.32801      0.99968     2.81232    0.01601     3.82801
      C    9    0.05535      0.99949     1.93506    0.01011     2.94465
      C   10   -0.04024      0.99952     2.03267    0.00805     3.04024
      C   11   -0.09348      0.99943     2.08502    0.00903     3.09348
      C   12    0.09203      0.99949     1.89817    0.01032     2.90797
      C   13   -0.12294      0.99955     2.11451    0.00888     3.12294
      C   14   -0.07612      0.99954     2.06804    0.00854     3.07612
      N   15   -0.40437      0.99971     2.89526    0.00941     3.90437
      C   16    0.42759      0.99966     1.54907    0.02368     2.57241
      O   17   -0.31295      0.99987     3.30602    0.00705     4.31295
      O   18   -0.36882      0.99987     3.36087    0.00808     4.36882
      H   19    0.10344      0.00000     0.39547    0.00109     0.39656
      H   20    0.10386      0.00000     0.39504    0.00110     0.39614
      H   21    0.09657      0.00000     0.40260    0.00083     0.40343
      H   22    0.10322      0.00000     0.39576    0.00102     0.39678
      H   23    0.09523      0.00000     0.40125    0.00352     0.40477
      H   24    0.09273      0.00000     0.40510    0.00216     0.40727
      H   25    0.19471      0.00000     0.30276    0.00252     0.30529
      H   26    0.10500      0.00000     0.39390    0.00110     0.39500
      H   27    0.08616      0.00000     0.41198    0.00186     0.41384
      H   28    0.09201      0.00000     0.40627    0.00172     0.40799
      H   29    0.19818      0.00000     0.30032    0.00150     0.30182
      H   30    0.17596      0.00000     0.32256    0.00148     0.32404
      H   31    0.23566      0.00000     0.26139    0.00295     0.26434
 =======================================================================
   * Total *    0.00020     21.99269    46.77835    0.22876    68.99980

 Normal termination of Gaussian 16 at Fri Dec 11 21:48:05 2020.
