 Gaussian 16, Revision A.03,

 -----------------------------------------------------------
 # opt freq B3LYP/6-31G(d) empiricaldispersion=gd3bj scf=xqc
 -----------------------------------------------------------

 --------------------------------
 CID_110615610_JID_10835_neutraal
 --------------------------------
 Symbolic Z-matrix:
 Charge =  0 Multiplicity = 1

 SCF Done:  E(RB3LYP) =  -1298.75374759     A.U. after   14 cycles
 SCF Done:  E(RB3LYP) =  -1298.76548035     A.U. after   12 cycles
 SCF Done:  E(RB3LYP) =  -1298.76821706     A.U. after   12 cycles
 SCF Done:  E(RB3LYP) =  -1298.76973865     A.U. after   13 cycles
 SCF Done:  E(RB3LYP) =  -1298.77028919     A.U. after   14 cycles
 SCF Done:  E(RB3LYP) =  -1298.77110619     A.U. after   12 cycles
 SCF Done:  E(RB3LYP) =  -1298.77117025     A.U. after   15 cycles
 SCF Done:  E(RB3LYP) =  -1298.77079832     A.U. after   15 cycles
 SCF Done:  E(RB3LYP) =  -1298.77203442     A.U. after   14 cycles
 SCF Done:  E(RB3LYP) =  -1298.77203480     A.U. after   11 cycles
 SCF Done:  E(RB3LYP) =  -1298.77314724     A.U. after   10 cycles
 SCF Done:  E(RB3LYP) =  -1298.77315026     A.U. after    9 cycles
 SCF Done:  E(RB3LYP) =  -1298.77315080     A.U. after    8 cycles
 SCF Done:  E(RB3LYP) =  -1298.77315086     A.U. after    7 cycles
 SCF Done:  E(RB3LYP) =  -1298.77315087     A.U. after    7 cycles
 Optimization completed.
    -- Stationary point found.
 Normal termination of Gaussian 16 at Sat Dec 12 17:13:21 2020.

 --------------------------------------------------------------------
 #N Geom=AllCheck Guess=TCheck SCRF=Check GenChk RB3LYP/6-31G(d) Freq
 --------------------------------------------------------------------

 Structure from the checkpoint file:  "JID_10835.chk"
 --------------------------------
 CID_110615610_JID_10835_neutraal
 --------------------------------
 Charge =  0 Multiplicity = 1

 SCF Done:  E(RB3LYP) =  -1298.77315087     A.U. after    1 cycles

  Exact polarizability: 218.801  22.687 146.111   2.131  -8.674 158.061
 Approx polarizability: 280.999  50.795 227.488   8.389 -20.805 277.801

                      1                      2                      3
                      A                      A                      A
 Frequencies --     16.2935                27.8307                42.6272
 Red. masses --      5.1426                 5.4996                 3.5167
 Frc consts  --      0.0008                 0.0025                 0.0038
 IR Inten    --      0.8048                 0.3985                 0.6279

                      4                      5                      6
                      A                      A                      A
 Frequencies --     55.8562                61.1685                81.8475
 Red. masses --      3.2577                 4.5950                 3.0634
 Frc consts  --      0.0060                 0.0101                 0.0121
 IR Inten    --      0.3984                 0.7685                 5.8619

                      7                      8                      9
                      A                      A                      A
 Frequencies --     87.0438               104.1357               137.4952
 Red. masses --      3.2568                 4.7816                 4.5830
 Frc consts  --      0.0145                 0.0306                 0.0510
 IR Inten    --      3.7723                 1.5107                 1.1169

                     10                     11                     12
                      A                      A                      A
 Frequencies --    184.1607               214.0405               245.3146
 Red. masses --      4.3646                 6.0187                 5.5345
 Frc consts  --      0.0872                 0.1625                 0.1962
 IR Inten    --      1.2941                 1.0371                 2.1609

                     13                     14                     15
                      A                      A                      A
 Frequencies --    270.5241               287.9610               307.6572
 Red. masses --      1.9031                 3.8597                 3.4711
 Frc consts  --      0.0821                 0.1886                 0.1936
 IR Inten    --      1.0830                 3.4864                 1.3638

                     16                     17                     18
                      A                      A                      A
 Frequencies --    310.5687               341.1656               370.0168
 Red. masses --      5.1172                 3.2871                 3.8939
 Frc consts  --      0.2908                 0.2254                 0.3141
 IR Inten    --      9.6818                 5.5223                 8.0622

                     19                     20                     21
                      A                      A                      A
 Frequencies --    420.8837               427.8063               429.8591
 Red. masses --      3.2825                 4.6212                 3.6234
 Frc consts  --      0.3426                 0.4983                 0.3945
 IR Inten    --     22.5434                 7.3688                 3.2018

                     22                     23                     24
                      A                      A                      A
 Frequencies --    455.0717               478.1692               507.3969
 Red. masses --      3.7331                 4.6565                 3.4174
 Frc consts  --      0.4555                 0.6273                 0.5184
 IR Inten    --      0.9974                 1.5406                 4.6103

                     25                     26                     27
                      A                      A                      A
 Frequencies --    524.2695               576.8331               606.6408
 Red. masses --      2.5264                 2.7470                 3.9260
 Frc consts  --      0.4091                 0.5385                 0.8513
 IR Inten    --      5.1107                26.4230                41.3476

                     28                     29                     30
                      A                      A                      A
 Frequencies --    615.2872               643.4695               652.5843
 Red. masses --      5.2140                 2.8735                 3.8034
 Frc consts  --      1.1630                 0.7010                 0.9543
 IR Inten    --      2.4832                26.7931                32.8941

                     31                     32                     33
                      A                      A                      A
 Frequencies --    717.1001               722.0102               733.2386
 Red. masses --      2.9923                 3.9540                 6.0089
 Frc consts  --      0.9066                 1.2144                 1.9034
 IR Inten    --      9.5424                10.7763                 7.6403

                     34                     35                     36
                      A                      A                      A
 Frequencies --    756.9310               819.1334               832.6108
 Red. masses --      4.8579                 1.6283                 3.2651
 Frc consts  --      1.6399                 0.6437                 1.3336
 IR Inten    --     33.0719               106.4778                33.9029

                     37                     38                     39
                      A                      A                      A
 Frequencies --    836.9107               844.0452               872.1896
 Red. masses --      1.8681                 1.7396                 1.4208
 Frc consts  --      0.7709                 0.7302                 0.6368
 IR Inten    --     25.4220                74.4988                34.3718

                     40                     41                     42
                      A                      A                      A
 Frequencies --    880.5355               899.0518               918.1334
 Red. masses --      2.0806                 2.6636                 2.8458
 Frc consts  --      0.9505                 1.2685                 1.4134
 IR Inten    --      0.6003                21.9773                 4.0424

                     43                     44                     45
                      A                      A                      A
 Frequencies --    926.2387               930.3431               938.4911
 Red. masses --      2.7147                 1.8425                 1.7492
 Frc consts  --      1.3722                 0.9396                 0.9077
 IR Inten    --      5.9064                 1.9108                39.1468

                     46                     47                     48
                      A                      A                      A
 Frequencies --    953.0024               955.8039               975.3689
 Red. masses --      1.6559                 1.7199                 8.4627
 Frc consts  --      0.8861                 0.9257                 4.7435
 IR Inten    --      5.4724                 9.1135                44.2902

                     49                     50                     51
                      A                      A                      A
 Frequencies --    989.5470              1040.8457              1048.5463
 Red. masses --      2.0835                 1.5826                 1.9382
 Frc consts  --      1.2021                 1.0102                 1.2555
 IR Inten    --     39.3467                 0.8754                 6.4704

                     52                     53                     54
                      A                      A                      A
 Frequencies --   1054.8833              1076.9615              1096.7752
 Red. masses --      1.6687                 4.4575                 3.5355
 Frc consts  --      1.0940                 3.0461                 2.5057
 IR Inten    --      1.7224               136.3455                49.4668

                     55                     56                     57
                      A                      A                      A
 Frequencies --   1105.2305              1110.9203              1129.3569
 Red. masses --      3.7001                 4.4279                 2.8675
 Frc consts  --      2.6630                 3.2197                 2.1548
 IR Inten    --     74.8150                76.7908                12.3946

                     58                     59                     60
                      A                      A                      A
 Frequencies --   1153.8268              1160.9093              1167.4635
 Red. masses --      1.5054                 1.5799                 1.2951
 Frc consts  --      1.1808                 1.2545                 1.0400
 IR Inten    --     12.2741                10.6113                 6.7163

                     61                     62                     63
                      A                      A                      A
 Frequencies --   1201.9732              1207.5010              1215.5342
 Red. masses --      1.4916                 1.2587                 1.1687
 Frc consts  --      1.2696                 1.0813                 1.0174
 IR Inten    --      0.6017                 1.1543                 6.0049

                     64                     65                     66
                      A                      A                      A
 Frequencies --   1230.5320              1245.5219              1262.1746
 Red. masses --      1.6514                 1.3980                 1.4211
 Frc consts  --      1.4733                 1.2778                 1.3338
 IR Inten    --     47.6051                 1.3765                17.8941

                     67                     68                     69
                      A                      A                      A
 Frequencies --   1271.5014              1297.9145              1301.4939
 Red. masses --      1.3213                 4.3208                 1.4189
 Frc consts  --      1.2586                 4.2885                 1.4160
 IR Inten    --      3.2614               272.9802                15.8694

                     70                     71                     72
                      A                      A                      A
 Frequencies --   1311.0673              1315.0835              1319.0623
 Red. masses --      1.3039                 2.6229                 1.5587
 Frc consts  --      1.3205                 2.6727                 1.5978
 IR Inten    --      3.1898               105.5855                26.7429

                     73                     74                     75
                      A                      A                      A
 Frequencies --   1340.9538              1368.8513              1369.7887
 Red. masses --      1.3753                 1.2991                 1.3129
 Frc consts  --      1.4571                 1.4342                 1.4514
 IR Inten    --      5.4542                 1.9454                 0.7759

                     76                     77                     78
                      A                      A                      A
 Frequencies --   1377.9665              1378.7490              1396.0536
 Red. masses --      1.4272                 1.4105                 1.3217
 Frc consts  --      1.5966                 1.5798                 1.5177
 IR Inten    --      8.2207                 0.4749                22.1257

                     79                     80                     81
                      A                      A                      A
 Frequencies --   1414.8074              1448.9097              1465.4443
 Red. masses --      3.6786                 1.3726                 1.2370
 Frc consts  --      4.3383                 1.6978                 1.5651
 IR Inten    --      9.3687                 4.1648                54.9183

                     82                     83                     84
                      A                      A                      A
 Frequencies --   1496.0824              1505.5431              1512.0815
 Red. masses --      3.0046                 1.1493                 1.0891
 Frc consts  --      3.9623                 1.5348                 1.4672
 IR Inten    --     84.4431                22.8039                 2.8946

                     85                     86                     87
                      A                      A                      A
 Frequencies --   1520.8450              1521.0458              1523.1298
 Red. masses --      1.0946                 1.0911                 1.0896
 Frc consts  --      1.4917                 1.4873                 1.4894
 IR Inten    --      5.9897                 2.9618                 5.6105

                     88                     89                     90
                      A                      A                      A
 Frequencies --   1542.2429              1544.6293              1574.5408
 Red. masses --      1.1131                 2.8686                 1.1580
 Frc consts  --      1.5598                 4.0324                 1.6915
 IR Inten    --      4.4490               212.1518                 0.2115

                     91                     92                     93
                      A                      A                      A
 Frequencies --   1668.7320              1681.8262              3028.8768
 Red. masses --      7.1455                 7.4614                 1.0666
 Frc consts  --     11.7235                12.4347                 5.7650
 IR Inten    --      6.0442                 0.0595               148.6017

                     94                     95                     96
                      A                      A                      A
 Frequencies --   3048.5308              3057.6712              3068.6986
 Red. masses --      1.0677                 1.0645                 1.0636
 Frc consts  --      5.8461                 5.8636                 5.9012
 IR Inten    --     34.4348                25.4749                20.8818

                     97                     98                     99
                      A                      A                      A
 Frequencies --   3070.5017              3071.7988              3085.5231
 Red. masses --      1.0687                 1.0667                 1.0649
 Frc consts  --      5.9366                 5.9303                 5.9734
 IR Inten    --     20.7572                17.0286                 9.8142

                    100                    101                    102
                      A                      A                      A
 Frequencies --   3100.9370              3108.7451              3114.5548
 Red. masses --      1.0855                 1.0942                 1.0988
 Frc consts  --      6.1501                 6.2303                 6.2799
 IR Inten    --     13.0783                21.9746                15.5044

                    103                    104                    105
                      A                      A                      A
 Frequencies --   3116.7982              3120.3371              3129.0221
 Red. masses --      1.1018                 1.1048                 1.1017
 Frc consts  --      6.3062                 6.3379                 6.3554
 IR Inten    --     32.9226                52.6328                21.0736

                    106                    107                    108
                      A                      A                      A
 Frequencies --   3138.5901              3149.4617              3208.9345
 Red. masses --      1.1035                 1.0984                 1.0898
 Frc consts  --      6.4048                 6.4191                 6.6117
 IR Inten    --     32.6351                 9.4701                 0.9633

                    109                    110                    111
                      A                      A                      A
 Frequencies --   3211.0187              3230.0492              3497.8356
 Red. masses --      1.0914                 1.0938                 1.0738
 Frc consts  --      6.6303                 6.7239                 7.7404
 IR Inten    --      5.3549                 3.5867                59.5098

 - Thermochemistry -
 -------------------
 Temperature   298.150 Kelvin.  Pressure   1.00000 Atm.
 Atom     1 has atomic number  6 and mass  12.00000

 Molecular mass:   297.10348 amu.
 Principal axes and moments of inertia in atomic units:
                           1         2         3
     Eigenvalues --  2697.69148********************
           X            0.99991  -0.01241  -0.00464
           Y            0.01221   0.99904  -0.04217
           Z            0.00516   0.04210   0.99910
 This molecule is an asymmetric top.
 Rotational symmetry number  1.
 Warning -- assumption of classical behavior for rotation
           may cause significant error
 Rotational temperatures (Kelvin)      0.03211     0.00692     0.00667
 Rotational constants (GHZ):           0.66899     0.14409     0.13896
 Zero-point vibrational energy     852458.0 (Joules/Mol)
                                  203.74236 (Kcal/Mol)
 Warning -- explicit consideration of  28 degrees of freedom as
           vibrations may cause significant error
 Vibrational temperatures:     23.44    40.04    61.33    80.36    88.01
          (Kelvin)            117.76   125.24   149.83   197.82   264.97
                              307.96   352.95   389.22   414.31   442.65
                              446.84   490.86   532.37   605.56   615.52
                              618.47   654.75   687.98   730.03   754.31
                              829.93   872.82   885.26   925.81   938.92
                             1031.75  1038.81  1054.97  1089.05  1178.55
                             1197.94  1204.13  1214.39  1254.89  1266.89
                             1293.54  1320.99  1332.65  1338.56  1350.28
                             1371.16  1375.19  1403.34  1423.74  1497.54
                             1508.62  1517.74  1549.51  1578.01  1590.18
                             1598.37  1624.89  1660.10  1670.29  1679.72
                             1729.37  1737.32  1748.88  1770.46  1792.03
                             1815.99  1829.41  1867.41  1872.56  1886.33
                             1892.11  1897.84  1929.33  1969.47  1970.82
                             1982.59  1983.71  2008.61  2035.59  2084.66
                             2108.45  2152.53  2166.14  2175.55  2188.16
                             2188.45  2191.44  2218.94  2222.38  2265.41
                             2400.93  2419.77  4357.88  4386.16  4399.31
                             4415.17  4417.77  4419.63  4439.38  4461.56
                             4472.79  4481.15  4484.38  4489.47  4501.96
                             4515.73  4531.37  4616.94  4619.94  4647.32
                             5032.61

 Zero-point correction=                           0.324684 (Hartree/Particle)
 Thermal correction to Energy=                    0.343042
 Thermal correction to Enthalpy=                  0.343986
 Thermal correction to Gibbs Free Energy=         0.275333
 Sum of electronic and zero-point Energies=          -1298.448467
 Sum of electronic and thermal Energies=             -1298.430109
 Sum of electronic and thermal Enthalpies=           -1298.429165
 Sum of electronic and thermal Free Energies=        -1298.497818

                     E (Thermal)             CV                S
                      KCal/Mol        Cal/Mol-Kelvin    Cal/Mol-Kelvin
 Total                  215.262             70.521            144.492
 Electronic               0.000              0.000              0.000
 Translational            0.889              2.981             42.964
 Rotational               0.889              2.981             34.439
 Vibrational            213.485             64.559             67.089
 Vibration     1          0.593              1.986              7.041
 Vibration     2          0.593              1.984              5.978
 Vibration     3          0.595              1.980              5.133
 Vibration     4          0.596              1.975              4.598
 Vibration     5          0.597              1.973              4.419
 Vibration     6          0.600              1.962              3.846
 Vibration     7          0.601              1.958              3.725
 Vibration     8          0.605              1.946              3.375
 Vibration     9          0.614              1.916              2.838
 Vibration    10          0.631              1.861              2.286
 Vibration    11          0.644              1.820              2.009
 Vibration    12          0.660              1.771              1.764
 Vibration    13          0.674              1.727              1.593
 Vibration    14          0.685              1.696              1.486
 Vibration    15          0.698              1.659              1.375
 Vibration    16          0.699              1.654              1.359
 Vibration    17          0.721              1.593              1.207
 Vibration    18          0.742              1.534              1.080
 Vibration    19          0.783              1.425              0.889
 Vibration    20          0.789              1.410              0.866
 Vibration    21          0.791              1.405              0.859
 Vibration    22          0.813              1.350              0.781
 Vibration    23          0.835              1.298              0.715
 Vibration    24          0.863              1.234              0.640
 Vibration    25          0.879              1.196              0.600
 Vibration    26          0.933              1.081              0.491
 Vibration    27          0.965              1.018              0.438
 Vibration    28          0.975              1.000              0.424

 Optimization completed.
    -- Stationary point found.
 Normal termination of Gaussian 16 at Sat Dec 12 17:31:38 2020.

 ----------------------------------------------------------------------
 # B3LYP/6-311++G(d,p) empiricaldispersion=gd3bj scf=xqc pop=npa geom=c
 heck
 ----------------------------------------------------------------------

 ----------------------------------------
 CID_110615610_JID_10835_Energie_neutraal
 ----------------------------------------
 Structure from the checkpoint file:  "JID_10835.chk"
 Charge =  0 Multiplicity = 1

 SCF Done:  E(RB3LYP) =  -1299.04981505     A.U. after   16 cycles
 Normal termination of Gaussian 16 at Sat Dec 12 17:39:44 2020.

 ----------------------------------------------------------------------
 # B3LYP/6-311++G(d,p) empiricaldispersion=gd3bj scf=xqc pop=npa geom=c
 heck
 ----------------------------------------------------------------------

 --------------------------------------
 CID_110615610_JID_10835_Energie_kation
 --------------------------------------
 Structure from the checkpoint file:  "JID_10835.chk"
 Charge =  1 Multiplicity = 2

 SCF Done:  E(UB3LYP) =  -1298.76406838     A.U. after   23 cycles
 Normal termination of Gaussian 16 at Sat Dec 12 17:54:53 2020.
 Gaussian 16:  ES64L-G16RevA.03 25-Dec-2016

 ----------------------------------------------------------------------
 # B3LYP/6-311++G(d,p) empiricaldispersion=gd3bj scf=xqc pop=npa geom=c
 heck
 ----------------------------------------------------------------------

 -------------------------------------
 CID_110615610_JID_10835_Energie_anion
 -------------------------------------
 Structure from the checkpoint file:  "JID_10835.chk"
 Charge = -1 Multiplicity = 2

                         Standard orientation:
 ---------------------------------------------------------------------
 Center     Atomic      Atomic             Coordinates (Angstroms)
 Number     Number       Type             X           Y           Z
 ---------------------------------------------------------------------
      1          6           0       -4.633853    1.648775    1.161099
      2          6           0       -3.477971    2.434875    0.525884
      3          6           0       -3.282585    1.740715   -0.831993
      4          6           0       -3.628868    0.250945   -0.570281
      5          6           0       -4.297302    0.184387    0.825089
      6         16           0       -2.173873   -0.826182   -0.672676
      7          8           0       -2.562751   -2.161916   -0.200041
      8          8           0       -1.571888   -0.642202   -2.003716
      9          7           0       -1.130245   -0.144835    0.481771
     10          6           0       -0.544418   -1.057112    1.477422
     11          6           0        0.582637   -1.952341    0.925578
     12          6           0        1.720782   -1.143994    0.347176
     13          6           0        2.761459   -0.699067    1.193266
     14          6           0        3.746695    0.086763    0.635080
     15          6           0        3.729981    0.448807   -0.710874
     16          6           0        2.723501    0.036348   -1.557868
     17          6           0        1.713506   -0.773089   -1.003022
     18          8           0        4.813824    1.250977   -0.986699
     19          6           0        5.620128    1.224538    0.195501
     20          8           0        4.841332    0.647571    1.250622
     21          1           0       -5.583924    1.937029    0.692590
     22          1           0       -4.733912    1.816642    2.238150
     23          1           0       -3.683675    3.505269    0.425770
     24          1           0       -2.573946    2.317021    1.133602
     25          1           0       -2.284509    1.875042   -1.256908
     26          1           0       -3.992414    2.135924   -1.566710
     27          1           0       -4.271580   -0.157704   -1.355610
     28          1           0       -3.586417   -0.203052    1.561342
     29          1           0       -5.163243   -0.481394    0.828190
     30          1           0       -0.405650    0.367000   -0.021762
     31          1           0       -0.162444   -0.424167    2.286121
     32          1           0       -1.350837   -1.673044    1.879200
     33          1           0        0.943835   -2.587235    1.744012
     34          1           0        0.155053   -2.615335    0.166910
     35          1           0        2.790471   -0.970791    2.243638
     36          1           0        2.712525    0.319517   -2.604382
     37          1           0        0.907643   -1.117513   -1.643806
     38          1           0        6.510690    0.605197    0.018354
     39          1           0        5.899710    2.245611    0.468040
 ---------------------------------------------------------------------

 SCF Done:  E(UB3LYP) =  -1299.03939142     A.U. after   33 cycles
 SCF Done:  E(UB3LYP) =  -1299.03939142     a.u. after    1 cycles

 The electronic state is 2-A.
 Alpha  occ. eigenvalues --  -88.97311 -19.09116 -19.09081 -19.03411 -19.03266
 Alpha  occ. eigenvalues --  -14.25835 -10.20977 -10.15948 -10.15781 -10.13208
 Alpha  occ. eigenvalues --  -10.12794 -10.10775 -10.10429 -10.10332 -10.09877
 Alpha  occ. eigenvalues --  -10.09457 -10.09260 -10.09149 -10.08138 -10.07943
 Alpha  occ. eigenvalues --   -8.03591  -5.99888  -5.99847  -5.99609  -1.05325
 Alpha  occ. eigenvalues --   -1.03270  -0.96199  -0.92422  -0.84524  -0.78913
 Alpha  occ. eigenvalues --   -0.76800  -0.71446  -0.68128  -0.66950  -0.65008
 Alpha  occ. eigenvalues --   -0.63551  -0.60363  -0.57520  -0.55185  -0.54559
 Alpha  occ. eigenvalues --   -0.52247  -0.49854  -0.49188  -0.44956  -0.44766
 Alpha  occ. eigenvalues --   -0.44275  -0.43736  -0.42661  -0.41499  -0.41051
 Alpha  occ. eigenvalues --   -0.39525  -0.37872  -0.37297  -0.36577  -0.36175
 Alpha  occ. eigenvalues --   -0.34980  -0.34715  -0.33927  -0.32208  -0.31642
 Alpha  occ. eigenvalues --   -0.31101  -0.30610  -0.29550  -0.29249  -0.28170
 Alpha  occ. eigenvalues --   -0.27984  -0.27134  -0.27040  -0.26692  -0.26109
 Alpha  occ. eigenvalues --   -0.25655  -0.24816  -0.23911  -0.23609  -0.22076
 Alpha  occ. eigenvalues --   -0.21545  -0.19215  -0.17329  -0.13492   0.03658
 Alpha virt. eigenvalues --    0.04795   0.05745   0.06000   0.06976   0.07155
 Alpha virt. eigenvalues --    0.07523   0.07630   0.07781   0.08741   0.09021
 Alpha virt. eigenvalues --    0.09446   0.09933   0.10200   0.10394   0.10904

  Beta  occ. eigenvalues --  -88.97309 -19.09113 -19.09079 -19.03408 -19.03263
  Beta  occ. eigenvalues --  -14.25824 -10.20936 -10.15946 -10.15779 -10.13194
  Beta  occ. eigenvalues --  -10.12786 -10.10777 -10.10427 -10.10325 -10.09873
  Beta  occ. eigenvalues --  -10.09449 -10.09243 -10.09134 -10.08107 -10.07922
  Beta  occ. eigenvalues --   -8.03589  -5.99886  -5.99845  -5.99608  -1.05317
  Beta  occ. eigenvalues --   -1.03262  -0.96193  -0.92415  -0.84506  -0.78904
  Beta  occ. eigenvalues --   -0.76772  -0.71430  -0.68112  -0.66921  -0.64975
  Beta  occ. eigenvalues --   -0.63505  -0.60316  -0.57496  -0.55167  -0.54538
  Beta  occ. eigenvalues --   -0.52228  -0.49805  -0.49126  -0.44929  -0.44749
  Beta  occ. eigenvalues --   -0.44250  -0.43713  -0.42645  -0.41470  -0.40998
  Beta  occ. eigenvalues --   -0.39485  -0.37857  -0.37279  -0.36547  -0.36159
  Beta  occ. eigenvalues --   -0.34954  -0.34704  -0.33894  -0.32196  -0.31619
  Beta  occ. eigenvalues --   -0.31090  -0.30578  -0.29537  -0.29239  -0.28144
  Beta  occ. eigenvalues --   -0.27972  -0.27121  -0.27028  -0.26659  -0.26074
  Beta  occ. eigenvalues --   -0.25614  -0.24776  -0.23900  -0.23589  -0.22066
  Beta  occ. eigenvalues --   -0.21531  -0.19201  -0.17317  -0.13475
  Beta virt. eigenvalues --    0.05613   0.05826   0.06061   0.06454   0.07328
  Beta virt. eigenvalues --    0.07503   0.07666   0.08123   0.08440   0.09082
  Beta virt. eigenvalues --    0.09157   0.09505   0.10163   0.10332   0.10627

 Mulliken charges and spin densities:
               1          2
     1  C    0.494061  -1.007313
     2  C    0.155887  -0.400142
     3  C    0.114137  -0.528143
     4  C   -0.567253   0.616834
     5  C    0.071013  -0.407098
     6  S    0.005728  -0.250962
     7  O   -0.131597   0.012617
     8  O   -0.061216   0.009973
     9  N   -0.139493  -0.015281
    10  C   -0.105278  -0.383192
    11  C   -0.406187  -0.055857
    12  C    0.953885  -0.320912
    13  C   -1.010052   0.483247
    14  C    0.499781  -0.548806
    15  C    0.338075  -0.347529
    16  C   -1.045449   0.863445
    17  C   -0.136021  -0.124944
    18  O   -0.200226   0.052915
    19  C    1.418840  -1.499204
    20  O   -0.204603   0.061139
    21  H   -0.152598   0.302044
    22  H   -0.331013   0.499622
    23  H   -0.237420   0.411877
    24  H   -0.008530   0.171907
    25  H    0.150546   0.046201
    26  H   -0.312306   0.494374
    27  H    0.011826   0.294712
    28  H    0.194505  -0.005893
    29  H   -0.125589   0.303773
    30  H    0.289842  -0.038736
    31  H   -0.125022   0.311683
    32  H    0.067708   0.107492
    33  H    0.094750   0.098325
    34  H    0.167505   0.039114
    35  H   -0.202916   0.388876
    36  H    0.039880   0.156124
    37  H    0.265150  -0.010468
    38  H   -0.389585   0.586560
    39  H   -0.440768   0.631625
 Sum of Mulliken charges =  -1.00000   1.00000

 Dipole moment (field-independent basis, Debye):
    X=              1.1372    Y=             -3.7537    Z=             -0.5934  Tot=              3.9668
 Quadrupole moment (field-independent basis, Debye-Ang):
   XX=           -265.5524   YY=           -175.1924   ZZ=           -164.1335
   XY=              0.5040   XZ=             -1.8548   YZ=             -5.7082

 Summary of Natural Population Analysis:

                                       Natural Population
                Natural  -----------------------------------------------
    Atom  No    Charge         Core      Valence    Rydberg      Total
 -----------------------------------------------------------------------
      C    1   -0.18934      0.99963     2.18151    0.00819     3.18934
      C    2   -0.19294      0.99963     2.18496    0.00835     3.19294
      C    3   -0.19775      0.99961     2.18850    0.00964     3.19775
      C    4   -0.19880      0.99955     2.18430    0.01495     3.19880
      C    5   -0.19702      0.99961     2.18778    0.00963     3.19702
      S    6    1.09643      4.99922     1.80658    0.09778     6.90357
      O    7   -0.46768      0.99991     3.46256    0.00521     4.46768
      O    8   -0.46940      0.99991     3.46414    0.00535     4.46940
      N    9   -0.44147      0.99976     2.92997    0.01174     3.94147
      C   10   -0.08838      0.99961     2.07647    0.01230     3.08838
      C   11   -0.20780      0.99959     2.19908    0.00913     3.20780
      C   12   -0.02518      0.99952     2.01568    0.00997     3.02518
      C   13   -0.12377      0.99947     2.11540    0.00890     3.12377
      C   14    0.13595      0.99933     1.85123    0.01349     2.86405
      C   15    0.12929      0.99932     1.85765    0.01374     2.87071
      C   16   -0.11972      0.99952     2.11150    0.00870     3.11972
      C   17   -0.11482      0.99952     2.10666    0.00864     3.11482
      O   18   -0.27137      0.99987     3.26373    0.00777     4.27137
      C   19    0.15594      0.99963     1.82875    0.01568     2.84406
      O   20   -0.27068      0.99987     3.26273    0.00808     4.27068
      H   21    0.09683      0.00000     0.40114    0.00203     0.40317
      H   22    0.10299      0.00000     0.39585    0.00117     0.39701
      H   23    0.10295      0.00000     0.39587    0.00118     0.39705
      H   24    0.09991      0.00000     0.39834    0.00175     0.40009
      H   25    0.10833      0.00000     0.39034    0.00133     0.39167
      H   26    0.10502      0.00000     0.39365    0.00132     0.39498
      H   27    0.11790      0.00000     0.38093    0.00116     0.38210
      H   28    0.10440      0.00000     0.39364    0.00196     0.39560
      H   29    0.10709      0.00000     0.39196    0.00096     0.39291
      H   30    0.20098      0.00000     0.29670    0.00232     0.29902
      H   31    0.09919      0.00000     0.39955    0.00127     0.40081
      H   32    0.10847      0.00000     0.39034    0.00119     0.39153
      H   33    0.10383      0.00000     0.39527    0.00090     0.39617
      H   34    0.10970      0.00000     0.38909    0.00121     0.39030
      H   35    0.10740      0.00000     0.39105    0.00155     0.39260
      H   36    0.10925      0.00000     0.38984    0.00091     0.39075
      H   37    0.11461      0.00000     0.38411    0.00127     0.38539
      H   38    0.07505      0.00000     0.42229    0.00266     0.42495
      H   39    0.08460      0.00000     0.41262    0.00278     0.41540
 =======================================================================
   * Total *    0.00000     23.99210    54.69176    0.31614    79.00000

 Normal termination of Gaussian 16 at Sat Dec 12 18:17:11 2020.
