 Gaussian 16, Revision A.03,

 -----------------------------------------------------------
 # opt freq B3LYP/6-31G(d) empiricaldispersion=gd3bj scf=xqc
 -----------------------------------------------------------

 -------------------------------
 CID_115393494_JID_6281_neutraal
 -------------------------------
 Symbolic Z-matrix:
 Charge =  0 Multiplicity = 1

 SCF Done:  E(RB3LYP) =  -669.921610883     A.U. after   15 cycles
 SCF Done:  E(RB3LYP) =  -669.924723762     A.U. after   12 cycles
 SCF Done:  E(RB3LYP) =  -669.926846541     A.U. after   14 cycles
 SCF Done:  E(RB3LYP) =  -669.928250626     A.U. after   12 cycles
 SCF Done:  E(RB3LYP) =  -669.929344704     A.U. after   12 cycles
 SCF Done:  E(RB3LYP) =  -669.930472679     A.U. after   12 cycles
 SCF Done:  E(RB3LYP) =  -669.930747615     A.U. after   11 cycles
 SCF Done:  E(RB3LYP) =  -669.930842743     A.U. after   11 cycles
 SCF Done:  E(RB3LYP) =  -669.930892056     A.U. after   10 cycles
 SCF Done:  E(RB3LYP) =  -669.930917401     A.U. after   10 cycles
 SCF Done:  E(RB3LYP) =  -669.931021781     A.U. after   11 cycles
 SCF Done:  E(RB3LYP) =  -669.931026796     A.U. after   10 cycles
 SCF Done:  E(RB3LYP) =  -669.931028068     A.U. after    9 cycles
 SCF Done:  E(RB3LYP) =  -669.931028440     A.U. after    8 cycles
 Optimization completed.
    -- Stationary point found.
 Normal termination of Gaussian 16 at Thu Dec 10 22:01:55 2020.

 --------------------------------------------------------------------
 #N Geom=AllCheck Guess=TCheck SCRF=Check GenChk RB3LYP/6-31G(d) Freq
 --------------------------------------------------------------------

 Structure from the checkpoint file:  "JID_6281.chk"
 -------------------------------
 CID_115393494_JID_6281_neutraal
 -------------------------------
 Charge =  0 Multiplicity = 1

 SCF Done:  E(RB3LYP) =  -669.931028440     A.U. after    1 cycles

  Exact polarizability: 163.981 -18.204 139.628   2.532   3.412 129.738
 Approx polarizability: 249.029 -43.316 209.973   4.534   8.246 210.724

                      1                      2                      3
                      A                      A                      A
 Frequencies --     14.3143                51.2392                65.6561
 Red. masses --      3.6225                 3.5413                 2.8717
 Frc consts  --      0.0004                 0.0055                 0.0073
 IR Inten    --      0.0395                 0.1598                 0.0475

                      4                      5                      6
                      A                      A                      A
 Frequencies --     75.2737                95.7562               109.8468
 Red. masses --      3.8424                 6.4414                 3.5510
 Frc consts  --      0.0128                 0.0348                 0.0252
 IR Inten    --      0.1816                 4.1744                 0.0787

                      7                      8                      9
                      A                      A                      A
 Frequencies --    190.5790               208.6676               226.6185
 Red. masses --      2.6743                 1.3151                 1.2228
 Frc consts  --      0.0572                 0.0337                 0.0370
 IR Inten    --      0.7753                 0.1853                 0.1944

                     10                     11                     12
                      A                      A                      A
 Frequencies --    236.9724               271.6151               311.9552
 Red. masses --      1.2253                 2.0918                 4.0554
 Frc consts  --      0.0405                 0.0909                 0.2325
 IR Inten    --      0.0306                 1.5311                 1.5214

                     13                     14                     15
                      A                      A                      A
 Frequencies --    314.1807               342.2706               363.3410
 Red. masses --      3.1382                 2.3970                 3.3300
 Frc consts  --      0.1825                 0.1654                 0.2590
 IR Inten    --      1.7926                 1.2751                 0.1357

                     16                     17                     18
                      A                      A                      A
 Frequencies --    402.1286               422.6878               433.9498
 Red. masses --      2.7254                 3.0292                 3.0988
 Frc consts  --      0.2597                 0.3189                 0.3438
 IR Inten    --      0.3149                 0.0395                 1.2712

                     19                     20                     21
                      A                      A                      A
 Frequencies --    471.0274               507.4799               551.9803
 Red. masses --      4.6856                 3.4251                 3.3447
 Frc consts  --      0.6125                 0.5197                 0.6004
 IR Inten    --      1.7725                 1.0882                17.2576

                     22                     23                     24
                      A                      A                      A
 Frequencies --    631.9384               680.5308               707.3495
 Red. masses --      6.3683                 6.0085                 2.9870
 Frc consts  --      1.4984                 1.6395                 0.8806
 IR Inten    --      0.5213                 4.1769                10.9602

                     25                     26                     27
                      A                      A                      A
 Frequencies --    710.4993               721.0593               744.7463
 Red. masses --      4.7071                 1.9692                 5.3067
 Frc consts  --      1.4000                 0.6032                 1.7342
 IR Inten    --     11.1424                22.7941                 4.1264

                     28                     29                     30
                      A                      A                      A
 Frequencies --    787.0818               812.5592               825.9616
 Red. masses --      1.8806                 1.4343                 2.2387
 Frc consts  --      0.6864                 0.5580                 0.8998
 IR Inten    --     18.4220                 6.1007                 0.3082

                     31                     32                     33
                      A                      A                      A
 Frequencies --    858.0425               929.3300               937.2204
 Red. masses --      1.2409                 2.1615                 1.4025
 Frc consts  --      0.5383                 1.0999                 0.7258
 IR Inten    --      0.1450                 1.5000                 3.7843

                     34                     35                     36
                      A                      A                      A
 Frequencies --    944.7251               973.5648               973.6751
 Red. masses --      1.1788                 2.6789                 1.9133
 Frc consts  --      0.6199                 1.4960                 1.0687
 IR Inten    --      0.6685                 5.4778                 3.6979

                     37                     38                     39
                      A                      A                      A
 Frequencies --    979.2079               997.1361              1002.4378
 Red. masses --      1.4406                 1.3484                 1.2641
 Frc consts  --      0.8138                 0.7899                 0.7484
 IR Inten    --      0.6306                 6.5597                 0.1788

                     40                     41                     42
                      A                      A                      A
 Frequencies --   1023.1845              1027.9565              1043.3104
 Red. masses --      4.2165                 4.5205                 4.9780
 Frc consts  --      2.6008                 2.8144                 3.1925
 IR Inten    --      4.1894                 1.0535                 9.3444

                     43                     44                     45
                      A                      A                      A
 Frequencies --   1058.6400              1069.1269              1098.8887
 Red. masses --      2.7063                 1.9299                 2.0123
 Frc consts  --      1.7870                 1.2997                 1.4317
 IR Inten    --      5.8588                 6.9199                13.1148

                     46                     47                     48
                      A                      A                      A
 Frequencies --   1109.3001              1153.1359              1195.4956
 Red. masses --      1.5215                 2.3087                 1.1019
 Frc consts  --      1.1031                 1.8088                 0.9278
 IR Inten    --      4.8468                 2.3781                 0.0050

                     49                     50                     51
                      A                      A                      A
 Frequencies --   1201.3734              1205.6275              1209.0355
 Red. masses --      1.8954                 1.1374                 1.8986
 Frc consts  --      1.6118                 0.9741                 1.6352
 IR Inten    --      2.5344                 0.2200                 3.3195

                     52                     53                     54
                      A                      A                      A
 Frequencies --   1221.2724              1264.7655              1308.7324
 Red. masses --      1.7777                 3.7004                 1.6407
 Frc consts  --      1.5622                 3.4875                 1.6557
 IR Inten    --     28.1140                 3.9046                 5.0157

                     55                     56                     57
                      A                      A                      A
 Frequencies --   1338.3201              1342.6557              1356.9364
 Red. masses --      2.4095                 2.1327                 1.7688
 Frc consts  --      2.5428                 2.2652                 1.9188
 IR Inten    --      4.5685                 0.2987                 6.9167

                     58                     59                     60
                      A                      A                      A
 Frequencies --   1362.9742              1378.2874              1397.1659
 Red. masses --      2.4172                 1.3907                 1.3683
 Frc consts  --      2.6457                 1.5565                 1.5737
 IR Inten    --      0.8345                 1.7989                 1.2322

                     61                     62                     63
                      A                      A                      A
 Frequencies --   1430.2235              1432.8369              1440.9336
 Red. masses --      1.4949                 2.1701                 1.4707
 Frc consts  --      1.8017                 2.6249                 1.7992
 IR Inten    --      6.3083                30.6814                10.0612

                     64                     65                     66
                      A                      A                      A
 Frequencies --   1452.4400              1500.3689              1516.2925
 Red. masses --      1.2359                 2.2188                 1.0639
 Frc consts  --      1.5361                 2.9428                 1.4412
 IR Inten    --      6.4605                 3.6579                 1.3490

                     67                     68                     69
                      A                      A                      A
 Frequencies --   1520.8836              1528.7812              1531.9176
 Red. masses --      1.0475                 1.4014                 1.0644
 Frc consts  --      1.4276                 1.9298                 1.4717
 IR Inten    --      1.3959                 1.6411                 4.7034

                     70                     71                     72
                      A                      A                      A
 Frequencies --   1534.6158              1536.3424              1546.5588
 Red. masses --      1.9815                 1.1825                 1.1319
 Frc consts  --      2.7495                 1.6445                 1.5951
 IR Inten    --     31.0965                20.5231                 0.2926

                     73                     74                     75
                      A                      A                      A
 Frequencies --   1553.8288              1556.4736              1648.8143
 Red. masses --      2.6525                 3.4085                 5.9102
 Frc consts  --      3.7732                 4.8652                 9.4666
 IR Inten    --     94.4621                12.0752                 3.5853

                     76                     77                     78
                      A                      A                      A
 Frequencies --   1662.8748              3039.8445              3044.1158
 Red. masses --      5.6928                 1.0772                 1.0417
 Frc consts  --      9.2746                 5.8646                 5.6873
 IR Inten    --     13.3186                 4.8231                21.9027

                     79                     80                     81
                      A                      A                      A
 Frequencies --   3049.4244              3060.9001              3063.1894
 Red. masses --      1.0388                 1.0655                 1.0515
 Frc consts  --      5.6913                 5.8817                 5.8130
 IR Inten    --     20.9220                14.7795                22.0862

                     82                     83                     84
                      A                      A                      A
 Frequencies --   3106.3875              3115.1822              3122.0993
 Red. masses --      1.1013                 1.1014                 1.1014
 Frc consts  --      6.2616                 6.2976                 6.3253
 IR Inten    --      5.8644                48.4485                24.3963

                     85                     86                     87
                      A                      A                      A
 Frequencies --   3124.8756              3131.0909              3140.5206
 Red. masses --      1.1013                 1.1023                 1.1009
 Frc consts  --      6.3362                 6.3669                 6.3973
 IR Inten    --     52.5316                25.5029                30.6008

                     88                     89                     90
                      A                      A                      A
 Frequencies --   3193.7986              3203.0557              3212.0673
 Red. masses --      1.0857                 1.0889                 1.0923
 Frc consts  --      6.5250                 6.5822                 6.6401
 IR Inten    --      0.1036                 6.1736                20.7184

                     91                     92                     93
                      A                      A                      A
 Frequencies --   3219.6052              3223.5436              3278.7336
 Red. masses --      1.0946                 1.0977                 1.0982
 Frc consts  --      6.6852                 6.7205                 6.9555
 IR Inten    --     10.5816                 3.3287                 0.7466

 - Thermochemistry -
 -------------------
 Temperature   298.150 Kelvin.  Pressure   1.00000 Atm.
 Atom     1 has atomic number  6 and mass  12.00000

 Molecular mass:   215.14225 amu.
 Principal axes and moments of inertia in atomic units:
                           1         2         3
     Eigenvalues --  2672.571373829.042384951.68630
           X            0.99722   0.07443   0.00456
           Y           -0.07445   0.99722   0.00409
           Z           -0.00424  -0.00442   0.99998
 This molecule is an asymmetric top.
 Rotational symmetry number  1.
 Warning -- assumption of classical behavior for rotation
           may cause significant error
 Rotational temperatures (Kelvin)      0.03241     0.02262     0.01749
 Rotational constants (GHZ):           0.67528     0.47133     0.36447
 Zero-point vibrational energy     741525.7 (Joules/Mol)
                                  177.22889 (Kcal/Mol)
 Warning -- explicit consideration of  21 degrees of freedom as
           vibrations may cause significant error
 Vibrational temperatures:     20.60    73.72    94.46   108.30   137.77
          (Kelvin)            158.05   274.20   300.23   326.05   340.95
                              390.79   448.83   452.04   492.45   522.77
                              578.57   608.15   624.36   677.70   730.15
                              794.18   909.22   979.13  1017.72  1022.25
                             1037.44  1071.52  1132.44  1169.09  1188.37
                             1234.53  1337.10  1348.45  1359.25  1400.74
                             1400.90  1408.86  1434.66  1442.28  1472.13
                             1479.00  1501.09  1523.15  1538.24  1581.06
                             1596.04  1659.11  1720.05  1728.51  1734.63
                             1739.53  1757.14  1819.72  1882.97  1925.54
                             1931.78  1952.33  1961.02  1983.05  2010.21
                             2057.77  2061.53  2073.18  2089.74  2158.70
                             2181.61  2188.21  2199.58  2204.09  2207.97
                             2210.45  2225.15  2235.61  2239.42  2372.28
                             2392.51  4373.66  4379.80  4387.44  4403.95
                             4407.25  4469.40  4482.05  4492.00  4496.00
                             4504.94  4518.51  4595.16  4608.48  4621.45
                             4632.29  4637.96  4717.37

 Zero-point correction=                           0.282432 (Hartree/Particle)
 Thermal correction to Energy=                    0.297475
 Thermal correction to Enthalpy=                  0.298419
 Thermal correction to Gibbs Free Energy=         0.238900
 Sum of electronic and zero-point Energies=           -669.648596
 Sum of electronic and thermal Energies=              -669.633553
 Sum of electronic and thermal Enthalpies=            -669.632609
 Sum of electronic and thermal Free Energies=         -669.692128

                     E (Thermal)             CV                S
                      KCal/Mol        Cal/Mol-Kelvin    Cal/Mol-Kelvin
 Total                  186.669             57.544            125.268
 Electronic               0.000              0.000              0.000
 Translational            0.889              2.981             42.002
 Rotational               0.889              2.981             32.294
 Vibrational            184.891             51.583             50.973
 Vibration     1          0.593              1.986              7.298
 Vibration     2          0.596              1.977              4.769
 Vibration     3          0.597              1.971              4.280
 Vibration     4          0.599              1.965              4.010
 Vibration     5          0.603              1.952              3.539
 Vibration     6          0.606              1.941              3.272
 Vibration     7          0.634              1.853              2.222
 Vibration     8          0.642              1.827              2.055
 Vibration     9          0.650              1.800              1.906
 Vibration    10          0.656              1.784              1.825
 Vibration    11          0.675              1.726              1.586
 Vibration    12          0.700              1.651              1.352
 Vibration    13          0.702              1.647              1.340
 Vibration    14          0.721              1.591              1.202
 Vibration    15          0.737              1.548              1.108
 Vibration    16          0.768              1.466              0.955
 Vibration    17          0.785              1.421              0.883
 Vibration    18          0.795              1.396              0.846
 Vibration    19          0.828              1.314              0.735
 Vibration    20          0.863              1.233              0.640
 Vibration    21          0.907              1.135              0.540

                           ! Non-Optimized Parameters !
 Normal termination of Gaussian 16 at Thu Dec 10 22:14:14 2020.

 ----------------------------------------------------------------------
 # B3LYP/6-311++G(d,p) empiricaldispersion=gd3bj scf=xqc pop=npa geom=c
 heck
 ----------------------------------------------------------------------

 ---------------------------------------
 CID_115393494_JID_6281_Energie_neutraal
 ---------------------------------------
 Structure from the checkpoint file:  "JID_6281.chk"
 Charge =  0 Multiplicity = 1

 SCF Done:  E(RB3LYP) =  -670.105498356     A.U. after   16 cycles
 Normal termination of Gaussian 16 at Thu Dec 10 22:19:43 2020.

 ----------------------------------------------------------------------
 # B3LYP/6-311++G(d,p) empiricaldispersion=gd3bj scf=xqc pop=npa geom=c
 heck
 ----------------------------------------------------------------------

 -------------------------------------
 CID_115393494_JID_6281_Energie_kation
 -------------------------------------
 Structure from the checkpoint file:  "JID_6281.chk"
 Charge =  1 Multiplicity = 2

 SCF Done:  E(UB3LYP) =  -669.778925294     A.U. after   33 cycles
 SCF Done:  E(UB3LYP) =  -669.778925294     a.u. after    1 cycles
 Normal termination of Gaussian 16 at Thu Dec 10 22:36:50 2020.
 Gaussian 16:  ES64L-G16RevA.03 25-Dec-2016

 ----------------------------------------------------------------------
 # B3LYP/6-311++G(d,p) empiricaldispersion=gd3bj scf=xqc pop=npa geom=c
 heck
 ----------------------------------------------------------------------

 ------------------------------------
 CID_115393494_JID_6281_Energie_anion
 ------------------------------------
 Structure from the checkpoint file:  "JID_6281.chk"
 Charge = -1 Multiplicity = 2

                         Standard orientation:
 ---------------------------------------------------------------------
 Center     Atomic      Atomic             Coordinates (Angstroms)
 Number     Number       Type             X           Y           Z
 ---------------------------------------------------------------------
      1          6           0       -2.180338   -2.842519    0.101823
      2          6           0       -1.521854   -1.527407   -0.335527
      3          6           0       -2.077050   -1.085570   -1.695453
      4          6           0       -1.711140   -0.421233    0.738167
      5          6           0       -1.097846   -0.794563    2.101737
      6          6           0       -1.245634    0.928499    0.272963
      7          7           0       -2.036732    1.968664    0.122145
      8          7           0       -1.276081    3.036855   -0.321987
      9          6           0       -0.045403    2.610774   -0.429211
     10          7           0        0.048312    1.285714   -0.067299
     11          6           0        1.245016    0.503453   -0.081172
     12          6           0        1.625611   -0.155109   -1.251838
     13          6           0        2.798139   -0.909576   -1.266333
     14          6           0        3.587431   -0.999551   -0.118280
     15          6           0        3.206909   -0.329382    1.045766
     16          6           0        2.035748    0.427331    1.066497
     17          1           0       -3.251684   -2.696876    0.290705
     18          1           0       -1.729345   -3.251603    1.010831
     19          1           0       -2.082068   -3.599321   -0.684437
     20          1           0       -0.444610   -1.710796   -0.444302
     21          1           0       -3.149822   -0.868921   -1.625801
     22          1           0       -1.588394   -0.178371   -2.064882
     23          1           0       -1.940021   -1.874732   -2.443319
     24          1           0       -2.790390   -0.281403    0.877732
     25          1           0       -0.045211   -1.078460    2.002726
     26          1           0       -1.161646    0.049772    2.795674
     27          1           0       -1.632836   -1.635565    2.551218
     28          1           0        0.812133    3.184658   -0.751166
     29          1           0        0.998159   -0.075669   -2.133551
     30          1           0        3.094225   -1.426127   -2.174334
     31          1           0        4.499433   -1.588820   -0.131601
     32          1           0        3.822051   -0.393103    1.938239
     33          1           0        1.723998    0.955817    1.961428
 ---------------------------------------------------------------------

 SCF Done:  E(UB3LYP) =  -670.097672936     A.U. after   33 cycles
 SCF Done:  E(UB3LYP) =  -670.098511319     a.u. after    8 cycles

 The electronic state is 2-A.
 Alpha  occ. eigenvalues --  -14.28352 -14.22579 -14.22139 -10.13768 -10.13446
 Alpha  occ. eigenvalues --  -10.11399 -10.09557 -10.08408 -10.08111 -10.07935
 Alpha  occ. eigenvalues --  -10.07728 -10.07513 -10.06949 -10.06789 -10.06779
 Alpha  occ. eigenvalues --  -10.06479  -0.96353  -0.83441  -0.75363  -0.74690
 Alpha  occ. eigenvalues --   -0.70285  -0.65450  -0.65307  -0.64723  -0.59502
 Alpha  occ. eigenvalues --   -0.55586  -0.54075  -0.52559  -0.51667  -0.49165
 Alpha  occ. eigenvalues --   -0.46336  -0.44207  -0.40183  -0.38521  -0.38064
 Alpha  occ. eigenvalues --   -0.36758  -0.35861  -0.34676  -0.34236  -0.33408
 Alpha  occ. eigenvalues --   -0.32745  -0.32104  -0.29767  -0.29538  -0.28628
 Alpha  occ. eigenvalues --   -0.28007  -0.26637  -0.26325  -0.25641  -0.24609
 Alpha  occ. eigenvalues --   -0.23943  -0.23249  -0.21147  -0.19661  -0.17751
 Alpha  occ. eigenvalues --   -0.16542  -0.15971  -0.15261   0.04222
 Alpha virt. eigenvalues --    0.06617   0.06796   0.06942   0.07753   0.08332
 Alpha virt. eigenvalues --    0.08653   0.09126   0.09342   0.10033   0.10439
 Alpha virt. eigenvalues --    0.10783   0.11526   0.11981   0.12215   0.12924

  Beta  occ. eigenvalues --  -14.28362 -14.22574 -14.22138 -10.13757 -10.13430
  Beta  occ. eigenvalues --  -10.11234 -10.09554 -10.08404 -10.08104 -10.07885
  Beta  occ. eigenvalues --  -10.07729 -10.07475 -10.06931 -10.06757 -10.06619
  Beta  occ. eigenvalues --  -10.06465  -0.96330  -0.83349  -0.75225  -0.74657
  Beta  occ. eigenvalues --   -0.70269  -0.65325  -0.65084  -0.64657  -0.59467
  Beta  occ. eigenvalues --   -0.55530  -0.53909  -0.52473  -0.51596  -0.49102
  Beta  occ. eigenvalues --   -0.46232  -0.44161  -0.40079  -0.38465  -0.37991
  Beta  occ. eigenvalues --   -0.36716  -0.35820  -0.34625  -0.34143  -0.33362
  Beta  occ. eigenvalues --   -0.32702  -0.32080  -0.29742  -0.29514  -0.28538
  Beta  occ. eigenvalues --   -0.27681  -0.26537  -0.26255  -0.25554  -0.24583
  Beta  occ. eigenvalues --   -0.23916  -0.23197  -0.21134  -0.19658  -0.17416
  Beta  occ. eigenvalues --   -0.16412  -0.15768  -0.14754
  Beta virt. eigenvalues --    0.06524   0.07321   0.07565   0.07815   0.08073
  Beta virt. eigenvalues --    0.08616   0.09168   0.09357   0.09494   0.10246
  Beta virt. eigenvalues --    0.10594   0.11056   0.11739   0.12116   0.12306

 Mulliken charges and spin densities:
               1          2
     1  C    0.202876  -0.779415
     2  C   -0.499802   0.603575
     3  C   -0.452067  -0.242887
     4  C    0.026008   0.383677
     5  C   -0.137710  -0.675174
     6  C   -0.250562  -0.405962
     7  N    0.069872   0.017724
     8  N   -0.168693   0.018502
     9  C    0.438070  -0.198687
    10  N    0.425867  -0.121257
    11  C   -0.766381  -0.178405
    12  C   -0.739690   1.057048
    13  C   -0.008717  -0.195427
    14  C    2.294782  -2.652659
    15  C    0.277202  -0.474637
    16  C   -0.752695   1.040676
    17  H   -0.015309   0.148851
    18  H   -0.088935   0.235972
    19  H   -0.109839   0.254468
    20  H    0.498806  -0.293409
    21  H    0.099074   0.030324
    22  H    0.171449   0.002111
    23  H   -0.146728   0.309309
    24  H    0.250293  -0.004980
    25  H    0.130226   0.074514
    26  H    0.058840   0.099325
    27  H   -0.018183   0.144881
    28  H    0.142859   0.025596
    29  H    0.044565   0.100115
    30  H   -0.801265   0.995511
    31  H   -0.456191   0.609419
    32  H   -0.718279   0.912700
    33  H    0.000257   0.158600
 Sum of Mulliken charges =  -1.00000   1.00000

 Dipole moment (field-independent basis, Debye):
    X=             -3.8549    Y=              2.2636    Z=              0.4070  Tot=              4.4888
 Quadrupole moment (field-independent basis, Debye-Ang):
   XX=           -170.2015   YY=           -147.8891   ZZ=           -131.6668
   XY=             19.5284   XZ=             -1.4930   YZ=             -3.7807

 Summary of Natural Population Analysis:

                                       Natural Population
                Natural  -----------------------------------------------
    Atom  No    Charge         Core      Valence    Rydberg      Total
 -----------------------------------------------------------------------
      C    1   -0.28391      0.99965     2.27822    0.00604     3.28391
      C    2   -0.11540      0.99960     2.10608    0.00973     3.11540
      C    3   -0.28444      0.99965     2.27855    0.00623     3.28444
      C    4   -0.13168      0.99954     2.12096    0.01117     3.13168
      C    5   -0.28407      0.99964     2.27866    0.00576     3.28407
      C    6    0.20452      0.99956     1.77739    0.01852     2.79548
      N    7   -0.17102      0.99968     2.65883    0.01251     3.67102
      N    8   -0.16328      0.99972     2.65050    0.01305     3.66328
      C    9    0.09954      0.99964     1.88515    0.01568     2.90046
      N   10   -0.21935      0.99959     2.70846    0.01130     3.71935
      C   11    0.08020      0.99945     1.90822    0.01213     2.91980
      C   12   -0.10161      0.99951     2.09275    0.00935     3.10161
      C   13   -0.09347      0.99956     2.08311    0.01079     3.09347
      C   14   -0.06928      0.99956     2.05949    0.01023     3.06928
      C   15   -0.10070      0.99956     2.09052    0.01061     3.10070
      C   16   -0.09450      0.99951     2.08552    0.00947     3.09450
      H   17    0.09380      0.00000     0.40536    0.00084     0.40620
      H   18    0.10115      0.00000     0.39803    0.00082     0.39885
      H   19    0.10170      0.00000     0.39747    0.00083     0.39830
      H   20    0.10313      0.00000     0.39426    0.00261     0.39687
      H   21    0.09705      0.00000     0.40211    0.00084     0.40295
      H   22    0.10113      0.00000     0.39784    0.00103     0.39887
      H   23    0.10023      0.00000     0.39902    0.00075     0.39977
      H   24    0.10862      0.00000     0.38936    0.00203     0.39138
      H   25    0.10649      0.00000     0.39221    0.00130     0.39351
      H   26    0.10094      0.00000     0.39816    0.00091     0.39906
      H   27    0.10008      0.00000     0.39918    0.00073     0.39992
      H   28    0.09787      0.00000     0.40075    0.00138     0.40213
      H   29    0.10417      0.00000     0.39422    0.00161     0.39583
      H   30    0.10332      0.00000     0.39502    0.00166     0.39668
      H   31    0.10173      0.00000     0.39616    0.00211     0.39827
      H   32    0.10301      0.00000     0.39543    0.00157     0.39699
      H   33    0.10403      0.00000     0.39490    0.00106     0.39597
 =======================================================================
   * Total *    0.00000     15.99342    41.81190    0.19469    58.00000

 Normal termination of Gaussian 16 at Fri Dec 11 00:29:57 2020.
