 Gaussian 16, Revision A.03,

 -----------------------------------------------------------
 # opt freq B3LYP/6-31G(d) empiricaldispersion=gd3bj scf=xqc
 -----------------------------------------------------------

 -------------------------------
 CID_117367946_JID_8794_neutraal
 -------------------------------
 Symbolic Z-matrix:
 Charge =  0 Multiplicity = 1

 SCF Done:  E(RB3LYP) =  -808.112474671     A.U. after   15 cycles
 SCF Done:  E(RB3LYP) =  -808.121324422     A.U. after   13 cycles
 SCF Done:  E(RB3LYP) =  -808.122425143     A.U. after   12 cycles
 SCF Done:  E(RB3LYP) =  -808.122352478     A.U. after   12 cycles
 SCF Done:  E(RB3LYP) =  -808.122988094     A.U. after   12 cycles
 SCF Done:  E(RB3LYP) =  -808.123050954     A.U. after   11 cycles
 SCF Done:  E(RB3LYP) =  -808.123068881     A.U. after   10 cycles
 SCF Done:  E(RB3LYP) =  -808.123073648     A.U. after   10 cycles
 SCF Done:  E(RB3LYP) =  -808.123082700     A.U. after    9 cycles
 SCF Done:  E(RB3LYP) =  -808.123086252     A.U. after    9 cycles
 SCF Done:  E(RB3LYP) =  -808.123087889     A.U. after    9 cycles
 SCF Done:  E(RB3LYP) =  -808.123089769     A.U. after   10 cycles
 SCF Done:  E(RB3LYP) =  -808.123090353     A.U. after    9 cycles
 SCF Done:  E(RB3LYP) =  -808.123090434     A.U. after    7 cycles
 Optimization completed.
    -- Stationary point found.
 Normal termination of Gaussian 16 at Fri Dec 11 21:09:15 2020.

 --------------------------------------------------------------------
 #N Geom=AllCheck Guess=TCheck SCRF=Check GenChk RB3LYP/6-31G(d) Freq
 --------------------------------------------------------------------

 Structure from the checkpoint file:  "JID_8794.chk"
 -------------------------------
 CID_117367946_JID_8794_neutraal
 -------------------------------
 Charge =  0 Multiplicity = 1

 SCF Done:  E(RB3LYP) =  -808.123090434     A.U. after    1 cycles

  Exact polarizability: 191.513   4.208 164.278  -8.423   7.960 114.243
 Approx polarizability: 249.464   6.210 264.308 -26.448  24.799 186.476

                      1                      2                      3
                      A                      A                      A
 Frequencies --     25.6950                29.3694                36.3711
 Red. masses --      6.6721                 5.3369                 5.1210
 Frc consts  --      0.0026                 0.0027                 0.0040
 IR Inten    --      1.4063                 0.5565                 0.1205

                      4                      5                      6
                      A                      A                      A
 Frequencies --     60.2639                73.2377               106.9405
 Red. masses --      2.6115                 5.6334                 4.5436
 Frc consts  --      0.0056                 0.0178                 0.0306
 IR Inten    --      0.2696                 0.9738                 0.8787

                      7                      8                      9
                      A                      A                      A
 Frequencies --    127.2040               163.2365               174.6185
 Red. masses --      4.3284                 3.2432                 3.2881
 Frc consts  --      0.0413                 0.0509                 0.0591
 IR Inten    --      0.0933                 0.6061                 0.3677

                     10                     11                     12
                      A                      A                      A
 Frequencies --    196.3828               267.4409               293.2254
 Red. masses --      3.2884                 3.6079                 3.9249
 Frc consts  --      0.0747                 0.1520                 0.1988
 IR Inten    --      0.1085                 0.8928                 1.2259

                     13                     14                     15
                      A                      A                      A
 Frequencies --    311.4163               333.2889               385.4314
 Red. masses --      3.4009                 2.4370                 3.6602
 Frc consts  --      0.1943                 0.1595                 0.3204
 IR Inten    --      0.0987                 0.2793                 1.8426

                     16                     17                     18
                      A                      A                      A
 Frequencies --    395.3722               421.4603               464.4181
 Red. masses --      3.8507                 5.1698                 2.8946
 Frc consts  --      0.3547                 0.5410                 0.3678
 IR Inten    --      1.1985                 1.4439                 6.4419

                     19                     20                     21
                      A                      A                      A
 Frequencies --    481.7457               487.9604               505.7619
 Red. masses --      4.2034                 2.3097                 3.1759
 Frc consts  --      0.5748                 0.3240                 0.4786
 IR Inten    --      4.7517                 0.5107                 4.7443

                     22                     23                     24
                      A                      A                      A
 Frequencies --    561.2734               580.3042               610.8729
 Red. masses --      4.0757                 2.9076                 3.0021
 Frc consts  --      0.7565                 0.5769                 0.6601
 IR Inten    --      0.3625                43.4837                 1.0037

                     25                     26                     27
                      A                      A                      A
 Frequencies --    631.8228               693.5568               698.3812
 Red. masses --      1.7643                 3.9951                 3.9250
 Frc consts  --      0.4150                 1.1322                 1.1279
 IR Inten    --     63.8779                12.4387                27.9974

                     28                     29                     30
                      A                      A                      A
 Frequencies --    724.0859               739.1931               768.5743
 Red. masses --      2.0706                 2.4322                 1.5212
 Frc consts  --      0.6396                 0.7830                 0.5294
 IR Inten    --     29.7347                31.2026                 1.1658

                     31                     32                     33
                      A                      A                      A
 Frequencies --    798.7330               803.3769               814.5701
 Red. masses --      1.1800                 1.1920                 1.5595
 Frc consts  --      0.4436                 0.4533                 0.6097
 IR Inten    --      1.9980                 0.2460                28.3728

                     34                     35                     36
                      A                      A                      A
 Frequencies --    838.6413               876.0013               902.1644
 Red. masses --      2.7115                 3.6451                 1.6554
 Frc consts  --      1.1236                 1.6480                 0.7938
 IR Inten    --      3.5408                 8.4045                 6.9021

                     37                     38                     39
                      A                      A                      A
 Frequencies --    914.1055               919.1578               924.8769
 Red. masses --      1.6511                 2.2657                 2.5745
 Frc consts  --      0.8129                 1.1278                 1.2975
 IR Inten    --      1.0576                 4.6074                 0.1399

                     40                     41                     42
                      A                      A                      A
 Frequencies --    931.8488               940.7336               956.1606
 Red. masses --      2.3040                 3.0232                 1.8276
 Frc consts  --      1.1787                 1.5764                 0.9845
 IR Inten    --     21.3829                 9.6600                 1.8535

                     43                     44                     45
                      A                      A                      A
 Frequencies --    960.9982               974.9845               979.7482
 Red. masses --      1.3241                 1.2505                 1.2962
 Frc consts  --      0.7205                 0.7004                 0.7331
 IR Inten    --      6.4069                 3.6562                 0.1848

                     46                     47                     48
                      A                      A                      A
 Frequencies --    989.9145              1018.8473              1023.8020
 Red. masses --      3.0569                 2.3737                 5.0171
 Frc consts  --      1.7649                 1.4517                 3.0984
 IR Inten    --     47.5225                17.1121                 3.1509

                     49                     50                     51
                      A                      A                      A
 Frequencies --   1052.3770              1071.3260              1087.0786
 Red. masses --      1.8965                 1.4557                 1.3737
 Frc consts  --      1.2375                 0.9844                 0.9565
 IR Inten    --      4.1543                 4.5244                 0.9656

                     52                     53                     54
                      A                      A                      A
 Frequencies --   1113.7515              1118.2698              1136.9231
 Red. masses --      4.2112                 1.7430                 1.6317
 Frc consts  --      3.0778                 1.2842                 1.2426
 IR Inten    --    129.6173                 8.6258                10.7695

                     55                     56                     57
                      A                      A                      A
 Frequencies --   1175.2919              1179.3928              1200.4328
 Red. masses --      2.0742                 1.9054                 1.3571
 Frc consts  --      1.6881                 1.5616                 1.1523
 IR Inten    --     29.3664               153.6166                 0.2787

                     58                     59                     60
                      A                      A                      A
 Frequencies --   1203.5717              1214.1172              1239.8825
 Red. masses --      1.3312                 1.2641                 1.9149
 Frc consts  --      1.1361                 1.0979                 1.7345
 IR Inten    --      2.0769                19.0630                49.6783

                     61                     62                     63
                      A                      A                      A
 Frequencies --   1261.3159              1264.5464              1265.7843
 Red. masses --      1.5898                 1.5212                 1.3020
 Frc consts  --      1.4902                 1.4332                 1.2291
 IR Inten    --     54.6715                50.2505                 1.4034

                     64                     65                     66
                      A                      A                      A
 Frequencies --   1270.2093              1292.5844              1300.7228
 Red. masses --      1.1750                 2.5031                 1.6444
 Frc consts  --      1.1170                 2.4640                 1.6392
 IR Inten    --      1.6814                 2.5579               112.2640

                     67                     68                     69
                      A                      A                      A
 Frequencies --   1317.0033              1326.2832              1355.6161
 Red. masses --      1.3989                 1.7935                 1.7246
 Frc consts  --      1.4296                 1.8587                 1.8672
 IR Inten    --      0.1537                23.5179                 2.7460

                     70                     71                     72
                      A                      A                      A
 Frequencies --   1369.7119              1371.6930              1401.3775
 Red. masses --      2.8003                 2.6252                 2.3508
 Frc consts  --      3.0954                 2.9102                 2.7200
 IR Inten    --      0.7523                42.6956                19.0929

                     73                     74                     75
                      A                      A                      A
 Frequencies --   1427.0756              1482.6634              1499.1057
 Red. masses --      1.2989                 2.8521                 1.0940
 Frc consts  --      1.5586                 3.6941                 1.4485
 IR Inten    --     18.4378                19.3903                12.0504

                     76                     77                     78
                      A                      A                      A
 Frequencies --   1507.5906              1508.5836              1518.7037
 Red. masses --      1.0972                 1.1148                 1.0844
 Frc consts  --      1.4692                 1.4948                 1.4737
 IR Inten    --      0.8283                12.9071                 1.5357

                     79                     80                     81
                      A                      A                      A
 Frequencies --   1533.5603              1543.7046              1546.2180
 Red. masses --      1.4413                 1.1445                 2.0177
 Frc consts  --      1.9971                 1.6069                 2.8421
 IR Inten    --      9.9955                 5.3365                39.6184

                     82                     83                     84
                      A                      A                      A
 Frequencies --   1640.5703              1664.2600              1841.9185
 Red. masses --      5.4179                 5.8154                 9.4573
 Frc consts  --      8.5915                 9.4901                18.9042
 IR Inten    --     33.3481                71.0191               237.6112

                     85                     86                     87
                      A                      A                      A
 Frequencies --   3068.7063              3078.5113              3079.7132
 Red. masses --      1.0647                 1.0570                 1.0577
 Frc consts  --      5.9072                 5.9022                 5.9106
 IR Inten    --     10.0969                39.6762                35.5962

                     88                     89                     90
                      A                      A                      A
 Frequencies --   3084.7884              3099.6405              3126.0177
 Red. masses --      1.0616                 1.0896                 1.1067
 Frc consts  --      5.9522                 6.1679                 6.3720
 IR Inten    --     12.3423                22.0416                14.1079

                     91                     92                     93
                      A                      A                      A
 Frequencies --   3129.6400              3133.7171              3145.9318
 Red. masses --      1.0990                 1.1093                 1.1069
 Frc consts  --      6.3420                 6.4184                 6.4542
 IR Inten    --      9.7057                19.4325                80.1544

                     94                     95                     96
                      A                      A                      A
 Frequencies --   3147.9171              3162.5473              3192.9159
 Red. masses --      1.0548                 1.0555                 1.0881
 Frc consts  --      6.1586                 6.2197                 6.5359
 IR Inten    --     15.1936                 8.7377                14.0218

                     97                     98                     99
                      A                      A                      A
 Frequencies --   3211.7457              3218.7464              3227.1407
 Red. masses --      1.0896                 1.0937                 1.1185
 Frc consts  --      6.6222                 6.6759                 6.8633
 IR Inten    --      5.8676                 9.2578                 4.2509

                    100                    101                    102
                      A                      A                      A
 Frequencies --   3238.8904              3244.8364              3683.8321
 Red. masses --      1.0917                 1.1164                 1.0640
 Frc consts  --      6.7477                 6.9255                 8.5071
 IR Inten    --      2.1901                14.1261                51.6049

 - Thermochemistry -
 -------------------
 Temperature   298.150 Kelvin.  Pressure   1.00000 Atm.
 Atom     1 has atomic number  6 and mass  12.00000

 Molecular mass:   246.12559 amu.
 Principal axes and moments of inertia in atomic units:
                           1         2         3
     Eigenvalues --  2023.280388216.247209189.51952
           X            0.99997   0.00437   0.00589
           Y           -0.00438   0.99999   0.00113
           Z           -0.00589  -0.00115   0.99998
 This molecule is an asymmetric top.
 Rotational symmetry number  1.
 Warning -- assumption of classical behavior for rotation
           may cause significant error
 Rotational temperatures (Kelvin)      0.04281     0.01054     0.00943
 Rotational constants (GHZ):           0.89199     0.21966     0.19639
 Zero-point vibrational energy     798483.6 (Joules/Mol)
                                  190.84215 (Kcal/Mol)
 Warning -- explicit consideration of  24 degrees of freedom as
           vibrations may cause significant error
 Vibrational temperatures:     36.97    42.26    52.33    86.71   105.37
          (Kelvin)            153.86   183.02   234.86   251.24   282.55
                              384.79   421.89   448.06   479.53   554.55
                              568.85   606.39   668.19   693.12   702.07
                              727.68   807.55   834.93   878.91   909.05
                              997.87  1004.81  1041.80  1063.53  1105.81
                             1149.20  1155.88  1171.98  1206.62  1260.37
                             1298.01  1315.19  1322.46  1330.69  1340.72
                             1353.51  1375.70  1382.66  1402.79  1409.64
                             1424.27  1465.89  1473.02  1514.14  1541.40
                             1564.06  1602.44  1608.94  1635.78  1690.98
                             1696.88  1727.15  1731.67  1746.84  1783.91
                             1814.75  1819.40  1821.18  1827.55  1859.74
                             1871.45  1894.87  1908.23  1950.43  1970.71
                             1973.56  2016.27  2053.24  2133.22  2156.88
                             2169.09  2170.52  2185.08  2206.45  2221.05
                             2224.66  2360.41  2394.50  2650.11  4415.18
                             4429.29  4431.02  4438.32  4459.69  4497.64
                             4502.85  4508.72  4526.29  4529.15  4550.20
                             4593.89  4620.99  4631.06  4643.14  4660.04
                             4668.60  5300.21

 Zero-point correction=                           0.304126 (Hartree/Particle)
 Thermal correction to Energy=                    0.320458
 Thermal correction to Enthalpy=                  0.321402
 Thermal correction to Gibbs Free Energy=         0.258125
 Sum of electronic and zero-point Energies=           -807.818964
 Sum of electronic and thermal Energies=              -807.802633
 Sum of electronic and thermal Enthalpies=            -807.801689
 Sum of electronic and thermal Free Energies=         -807.864965

                     E (Thermal)             CV                S
                      KCal/Mol        Cal/Mol-Kelvin    Cal/Mol-Kelvin
 Total                  201.090             63.651            133.176
 Electronic               0.000              0.000              0.000
 Translational            0.889              2.981             42.403
 Rotational               0.889              2.981             33.390
 Vibrational            199.313             57.689             57.383
 Vibration     1          0.593              1.985              6.137
 Vibration     2          0.593              1.984              5.872
 Vibration     3          0.594              1.982              5.448
 Vibration     4          0.597              1.973              4.449
 Vibration     5          0.599              1.967              4.064
 Vibration     6          0.606              1.944              3.324
 Vibration     7          0.611              1.926              2.988
 Vibration     8          0.623              1.888              2.512
 Vibration     9          0.627              1.874              2.385
 Vibration    10          0.636              1.845              2.167
 Vibration    11          0.673              1.733              1.613
 Vibration    12          0.688              1.686              1.455
 Vibration    13          0.700              1.652              1.355
 Vibration    14          0.715              1.609              1.244
 Vibration    15          0.754              1.501              1.018
 Vibration    16          0.762              1.480              0.980
 Vibration    17          0.784              1.424              0.887
 Vibration    18          0.822              1.329              0.753
 Vibration    19          0.838              1.291              0.705
 Vibration    20          0.844              1.277              0.689
 Vibration    21          0.861              1.237              0.644
 Vibration    22          0.917              1.115              0.521
 Vibration    23          0.937              1.074              0.485
 Vibration    24          0.970              1.009              0.431

 Optimization completed.
    -- Stationary point found.
 Normal termination of Gaussian 16 at Fri Dec 11 21:25:50 2020.

 ----------------------------------------------------------------------
 # B3LYP/6-311++G(d,p) empiricaldispersion=gd3bj scf=xqc pop=npa geom=c
 heck
 ----------------------------------------------------------------------

 ---------------------------------------
 CID_117367946_JID_8794_Energie_neutraal
 ---------------------------------------
 Structure from the checkpoint file:  "JID_8794.chk"
 Charge =  0 Multiplicity = 1

 SCF Done:  E(RB3LYP) =  -808.350223326     A.U. after   14 cycles
 Normal termination of Gaussian 16 at Fri Dec 11 21:32:50 2020.

 ----------------------------------------------------------------------
 # B3LYP/6-311++G(d,p) empiricaldispersion=gd3bj scf=xqc pop=npa geom=c
 heck
 ----------------------------------------------------------------------

 -------------------------------------
 CID_117367946_JID_8794_Energie_kation
 -------------------------------------
 Structure from the checkpoint file:  "JID_8794.chk"
 Charge =  1 Multiplicity = 2

 SCF Done:  E(UB3LYP) =  -808.049677560     A.U. after   26 cycles
 Normal termination of Gaussian 16 at Fri Dec 11 21:50:55 2020.
 Gaussian 16:  ES64L-G16RevA.03 25-Dec-2016

 ----------------------------------------------------------------------
 # B3LYP/6-311++G(d,p) empiricaldispersion=gd3bj scf=xqc pop=npa geom=c
 heck
 ----------------------------------------------------------------------

 ------------------------------------
 CID_117367946_JID_8794_Energie_anion
 ------------------------------------
 Structure from the checkpoint file:  "JID_8794.chk"
 Charge = -1 Multiplicity = 2

                         Standard orientation:
 ---------------------------------------------------------------------
 Center     Atomic      Atomic             Coordinates (Angstroms)
 Number     Number       Type             X           Y           Z
 ---------------------------------------------------------------------
      1          6           0       -4.621060    0.719457   -1.167247
      2          6           0       -4.295422   -0.649962   -0.511315
      3          6           0       -3.710636    0.144598    0.679876
      4          6           0       -3.545681    1.367481   -0.253248
      5          8           0       -2.616254   -0.360445    1.442535
      6          6           0       -1.468723   -0.694207    0.755831
      7          6           0       -1.286506   -1.999208    0.290961
      8          6           0       -0.095879   -2.320137   -0.353895
      9          6           0        0.901969   -1.360630   -0.538941
     10          6           0        0.733217   -0.050585   -0.066616
     11          6           0       -0.470446    0.262031    0.585698
     12          6           0        1.790373    0.999940   -0.260058
     13          6           0        1.330401    2.421927   -0.559985
     14          6           0        1.924340    2.099871    0.777837
     15          6           0        3.078046    0.569136   -0.953982
     16          6           0        3.921025   -0.421154   -0.174381
     17          8           0        4.270010   -1.513548   -0.565667
     18          8           0        4.280668    0.061463    1.040052
     19          1           0       -5.630220    1.063001   -0.919769
     20          1           0       -4.475314    0.803666   -2.247081
     21          1           0       -5.111372   -1.349991   -0.308749
     22          1           0       -3.504636   -1.166307   -1.063197
     23          1           0       -4.483148    0.336304    1.429300
     24          1           0       -2.566757    1.357338   -0.741406
     25          1           0       -3.731475    2.361004    0.165739
     26          1           0       -2.066375   -2.735738    0.453282
     27          1           0        0.065638   -3.330960   -0.717725
     28          1           0        1.817179   -1.656116   -1.036676
     29          1           0       -0.656871    1.253066    0.985149
     30          1           0        1.918627    3.004277   -1.264332
     31          1           0        0.259927    2.589470   -0.630217
     32          1           0        1.272235    2.050987    1.644014
     33          1           0        2.928074    2.447111    1.000752
     34          1           0        2.875098    0.125900   -1.932088
     35          1           0        3.696358    1.459400   -1.117084
     36          1           0        4.807533   -0.643515    1.461534
 ---------------------------------------------------------------------

 SCF Done:  E(UB3LYP) =  -808.338116446     A.U. after   33 cycles
 SCF Done:  E(UB3LYP) =  -808.338116446     a.u. after    1 cycles

 The electronic state is 2-A.
 Alpha  occ. eigenvalues --  -19.07831 -19.05011 -19.02509 -10.21462 -10.14119
 Alpha  occ. eigenvalues --  -10.13974 -10.11328 -10.10322 -10.09883 -10.09152
 Alpha  occ. eigenvalues --  -10.08821 -10.08598 -10.08535 -10.08465 -10.08375
 Alpha  occ. eigenvalues --  -10.08256 -10.08111 -10.07927  -1.01950  -0.96698
 Alpha  occ. eigenvalues --   -0.93018  -0.79933  -0.76628  -0.75395  -0.67604
 Alpha  occ. eigenvalues --   -0.66591  -0.65517  -0.57847  -0.57549  -0.55100
 Alpha  occ. eigenvalues --   -0.52737  -0.51635  -0.51476  -0.48911  -0.46062
 Alpha  occ. eigenvalues --   -0.44006  -0.41766  -0.40959  -0.40592  -0.39964
 Alpha  occ. eigenvalues --   -0.39431  -0.37997  -0.37178  -0.35859  -0.34361
 Alpha  occ. eigenvalues --   -0.34222  -0.32535  -0.31738  -0.31115  -0.30723
 Alpha  occ. eigenvalues --   -0.30208  -0.29858  -0.29079  -0.27432  -0.27360
 Alpha  occ. eigenvalues --   -0.26562  -0.25065  -0.23958  -0.23645  -0.23059
 Alpha  occ. eigenvalues --   -0.21888  -0.21277  -0.19065  -0.18253  -0.16042
 Alpha  occ. eigenvalues --   -0.14852   0.04001
 Alpha virt. eigenvalues --    0.05215   0.06364   0.06666   0.06940   0.07257
 Alpha virt. eigenvalues --    0.07433   0.07895   0.08597   0.08862   0.09277
 Alpha virt. eigenvalues --    0.09939   0.10315   0.10382   0.11110   0.11732

  Beta  occ. eigenvalues --  -19.07791 -19.05010 -19.02483 -10.21416 -10.14120
  Beta  occ. eigenvalues --  -10.13966 -10.11330 -10.10314 -10.09857 -10.09148
  Beta  occ. eigenvalues --  -10.08796 -10.08580 -10.08523 -10.08460 -10.08350
  Beta  occ. eigenvalues --  -10.08254 -10.08102 -10.07910  -1.01870  -0.96694
  Beta  occ. eigenvalues --   -0.92955  -0.79917  -0.76611  -0.75377  -0.67549
  Beta  occ. eigenvalues --   -0.66567  -0.65486  -0.57809  -0.57517  -0.55058
  Beta  occ. eigenvalues --   -0.52663  -0.51592  -0.51413  -0.48871  -0.46016
  Beta  occ. eigenvalues --   -0.43979  -0.41736  -0.40908  -0.40544  -0.39917
  Beta  occ. eigenvalues --   -0.39394  -0.37963  -0.37120  -0.35801  -0.34305
  Beta  occ. eigenvalues --   -0.34203  -0.32495  -0.31711  -0.31099  -0.30689
  Beta  occ. eigenvalues --   -0.30185  -0.29826  -0.29049  -0.27405  -0.27345
  Beta  occ. eigenvalues --   -0.26536  -0.25033  -0.23921  -0.23555  -0.23027
  Beta  occ. eigenvalues --   -0.21861  -0.21244  -0.19019  -0.18244  -0.16025
  Beta  occ. eigenvalues --   -0.14813
  Beta virt. eigenvalues --    0.05996   0.06441   0.06719   0.07086   0.07230
  Beta virt. eigenvalues --    0.07747   0.07838   0.08037   0.08875   0.09223
  Beta virt. eigenvalues --    0.09654   0.10066   0.10657   0.10751   0.11252

 Mulliken charges and spin densities:
               1          2
     1  C    0.553696  -0.974621
     2  C   -0.054665  -0.259025
     3  C   -0.579546   0.546489
     4  C    0.165048  -0.382416
     5  O   -0.066579  -0.003382
     6  C    0.661433  -1.197723
     7  C    0.639055  -0.365021
     8  C   -0.588849   0.149058
     9  C   -0.171084  -0.042641
    10  C    0.328933   0.391062
    11  C   -0.500146  -0.098117
    12  C    0.053934   0.290340
    13  C   -0.084545  -0.412271
    14  C   -0.322569  -0.178948
    15  C    0.831622  -0.917624
    16  C   -0.534500   0.295690
    17  O   -0.246300   0.014296
    18  O   -0.168695   0.028411
    19  H   -0.216819   0.369804
    20  H   -0.208199   0.347262
    21  H   -0.108881   0.261124
    22  H    0.152214  -0.018085
    23  H   -0.209403   0.429756
    24  H    0.358605  -0.258000
    25  H   -0.289700   0.444235
    26  H    0.130740   0.040792
    27  H    0.000857   0.170706
    28  H    0.317298  -0.141739
    29  H    0.481615  -0.279258
    30  H   -0.324146   0.507611
    31  H   -0.184414   0.329488
    32  H   -0.115386   0.275218
    33  H   -0.148886   0.360942
    34  H   -0.029191   0.249200
    35  H   -0.324139   0.536559
    36  H   -0.198410   0.490827
 Sum of Mulliken charges =  -1.00000   1.00000

 Dipole moment (field-independent basis, Debye):
    X=             -1.2447    Y=             -3.0589    Z=              0.1848  Tot=              3.3076
 Quadrupole moment (field-independent basis, Debye-Ang):
   XX=           -226.0402   YY=           -149.5097   ZZ=           -141.0159
   XY=              4.3723   XZ=             -0.9932   YZ=              3.6476

 Summary of Natural Population Analysis:

                                       Natural Population
                Natural  -----------------------------------------------
    Atom  No    Charge         Core      Valence    Rydberg      Total
 -----------------------------------------------------------------------
      C    1   -0.19025      0.99965     2.18256    0.00804     3.19025
      C    2   -0.20406      0.99962     2.19591    0.00853     3.20406
      C    3    0.06701      0.99949     1.91773    0.01577     2.93299
      C    4   -0.20309      0.99962     2.19513    0.00833     3.20309
      O    5   -0.29195      0.99985     3.28316    0.00894     4.29195
      C    6    0.15641      0.99936     1.83100    0.01323     2.84359
      C    7   -0.12603      0.99950     2.11809    0.00844     3.12603
      C    8   -0.09232      0.99957     2.08368    0.00907     3.09232
      C    9   -0.11195      0.99952     2.10514    0.00729     3.11195
      C   10   -0.00327      0.99948     1.99334    0.01044     3.00327
      C   11   -0.12276      0.99946     2.11512    0.00818     3.12276
      C   12   -0.04905      0.99952     2.03648    0.01305     3.04905
      C   13   -0.18620      0.99959     2.17727    0.00933     3.18620
      C   14   -0.18376      0.99959     2.17519    0.00899     3.18376
      C   15   -0.23616      0.99954     2.22591    0.01072     3.23616
      C   16    0.41532      0.99972     1.55941    0.02555     2.58468
      O   17   -0.30803      0.99987     3.30231    0.00585     4.30803
      O   18   -0.34357      0.99988     3.33701    0.00668     4.34357
      H   19    0.09825      0.00000     0.39980    0.00195     0.40175
      H   20    0.09804      0.00000     0.40103    0.00093     0.40196
      H   21    0.09778      0.00000     0.40110    0.00112     0.40222
      H   22    0.10222      0.00000     0.39612    0.00166     0.39778
      H   23    0.09240      0.00000     0.40614    0.00147     0.40760
      H   24    0.10236      0.00000     0.39588    0.00176     0.39764
      H   25    0.09959      0.00000     0.39907    0.00135     0.40041
      H   26    0.10475      0.00000     0.39402    0.00123     0.39525
      H   27    0.10016      0.00000     0.39909    0.00075     0.39984
      H   28    0.10992      0.00000     0.38831    0.00177     0.39008
      H   29    0.10650      0.00000     0.39172    0.00179     0.39350
      H   30    0.10608      0.00000     0.39249    0.00142     0.39392
      H   31    0.10438      0.00000     0.39429    0.00133     0.39562
      H   32    0.10423      0.00000     0.39475    0.00102     0.39577
      H   33    0.11105      0.00000     0.38749    0.00146     0.38895
      H   34    0.11288      0.00000     0.38600    0.00112     0.38712
      H   35    0.12098      0.00000     0.37639    0.00264     0.37902
      H   36    0.24217      0.00000     0.25084    0.00699     0.25783
 =======================================================================
   * Total *   -0.00000     17.99284    47.78897    0.21818    66.00000

 Normal termination of Gaussian 16 at Fri Dec 11 22:15:08 2020.
