 Gaussian 16, Revision A.03,

 -----------------------------------------------------------
 # opt freq B3LYP/6-31G(d) empiricaldispersion=gd3bj scf=xqc
 -----------------------------------------------------------

 -----------------------------
 CID_83671556_JID_991_neutraal
 -----------------------------
 Symbolic Z-matrix:
 Charge =  0 Multiplicity = 1

 SCF Done:  E(RB3LYP) =  -514.499055628     A.U. after   15 cycles
 SCF Done:  E(RB3LYP) =  -514.506057067     A.U. after   14 cycles
 SCF Done:  E(RB3LYP) =  -514.505846477     A.U. after   13 cycles
 SCF Done:  E(RB3LYP) =  -514.508682331     A.U. after   13 cycles
 SCF Done:  E(RB3LYP) =  -514.510276936     A.U. after   13 cycles
 SCF Done:  E(RB3LYP) =  -514.512379061     A.U. after   15 cycles
 SCF Done:  E(RB3LYP) =  -514.513130877     A.U. after   12 cycles
 SCF Done:  E(RB3LYP) =  -514.513409897     A.U. after   12 cycles
 SCF Done:  E(RB3LYP) =  -514.513546900     A.U. after   12 cycles
 SCF Done:  E(RB3LYP) =  -514.513574844     A.U. after   10 cycles
 SCF Done:  E(RB3LYP) =  -514.513650333     A.U. after   11 cycles
 SCF Done:  E(RB3LYP) =  -514.513677450     A.U. after   11 cycles
 SCF Done:  E(RB3LYP) =  -514.513680696     A.U. after    9 cycles
 SCF Done:  E(RB3LYP) =  -514.513681381     A.U. after    8 cycles
 Optimization completed.
    -- Stationary point found.
 Normal termination of Gaussian 16 at Tue Dec  8 13:36:06 2020.

 --------------------------------------------------------------------
 #N Geom=AllCheck Guess=TCheck SCRF=Check GenChk RB3LYP/6-31G(d) Freq
 --------------------------------------------------------------------

 Structure from the checkpoint file:  "JID_991.chk"
 -----------------------------
 CID_83671556_JID_991_neutraal
 -----------------------------
 Charge =  0 Multiplicity = 1

 SCF Done:  E(RB3LYP) =  -514.513681381     A.U. after    1 cycles

  Exact polarizability:  87.979   4.691  67.410   3.200   1.514  69.116
 Approx polarizability: 120.117   9.400  93.893   6.418   6.797 113.525

                      1                      2                      3
                      A                      A                      A
 Frequencies --     51.8430                75.7340               115.4829
 Red. masses --     10.5168                 3.3827                 5.9667
 Frc consts  --      0.0167                 0.0114                 0.0469
 IR Inten    --      0.9639                 0.8463                 0.1715

                      4                      5                      6
                      A                      A                      A
 Frequencies --    143.8272               178.3751               204.6916
 Red. masses --      1.1489                 3.4081                 1.2775
 Frc consts  --      0.0140                 0.0639                 0.0315
 IR Inten    --      0.1296                 7.3995                 0.9149

                      7                      8                      9
                      A                      A                      A
 Frequencies --    242.6567               247.5332               264.9592
 Red. masses --      2.7690                 2.2521                 3.5588
 Frc consts  --      0.0961                 0.0813                 0.1472
 IR Inten    --      3.0059                 2.3139                 1.6435

                     10                     11                     12
                      A                      A                      A
 Frequencies --    354.1055               436.7233               494.6086
 Red. masses --      2.6013                 6.8710                 3.3436
 Frc consts  --      0.1922                 0.7721                 0.4819
 IR Inten    --      2.3902                 8.1718                 7.8705

                     13                     14                     15
                      A                      A                      A
 Frequencies --    508.5014               611.3700               675.3423
 Red. masses --      3.9384                 1.4348                 3.4418
 Frc consts  --      0.6000                 0.3160                 0.9249
 IR Inten    --     30.4940                74.4395                25.2246

                     16                     17                     18
                      A                      A                      A
 Frequencies --    702.5214               742.3140               806.1335
 Red. masses --      4.4586                 4.9199                 5.0038
 Frc consts  --      1.2965                 1.5973                 1.9158
 IR Inten    --     21.1036                 9.3533                 2.3008

                     19                     20                     21
                      A                      A                      A
 Frequencies --    843.3987               930.8768               951.0004
 Red. masses --      3.8753                 2.2283                 2.5696
 Frc consts  --      1.6241                 1.1376                 1.3692
 IR Inten    --      8.9649                 5.4395                19.5535

                     22                     23                     24
                      A                      A                      A
 Frequencies --    996.3171              1057.8889              1133.9049
 Red. masses --      1.5354                 2.2852                 1.3125
 Frc consts  --      0.8980                 1.5068                 0.9942
 IR Inten    --     14.6155                58.8023                19.9248

                     25                     26                     27
                      A                      A                      A
 Frequencies --   1144.5262              1152.1328              1182.4377
 Red. masses --      2.3976                 2.0923                 1.3537
 Frc consts  --      1.8505                 1.6363                 1.1151
 IR Inten    --     46.5239               118.8574                32.8654

                     28                     29                     30
                      A                      A                      A
 Frequencies --   1210.0973              1260.3967              1282.6410
 Red. masses --      2.0844                 1.8525                 2.4213
 Frc consts  --      1.7984                 1.7339                 2.3470
 IR Inten    --     24.5176                36.5604                15.6979

                     31                     32                     33
                      A                      A                      A
 Frequencies --   1329.4633              1377.6799              1434.6548
 Red. masses --      3.2111                 2.7384                 1.6885
 Frc consts  --      3.3439                 3.0623                 2.0476
 IR Inten    --     11.6123                57.6054                35.0673

                     34                     35                     36
                      A                      A                      A
 Frequencies --   1449.8681              1469.6474              1510.8550
 Red. masses --      1.7749                 1.3287                 1.0433
 Frc consts  --      2.1983                 1.6909                 1.4031
 IR Inten    --     78.2410                24.1133                 9.1430

                     37                     38                     39
                      A                      A                      A
 Frequencies --   1517.3930              1521.5736              1535.0012
 Red. masses --      1.0472                 1.0568                 1.0781
 Frc consts  --      1.4206                 1.4415                 1.4967
 IR Inten    --      2.6962                 5.0725                16.1818

                     40                     41                     42
                      A                      A                      A
 Frequencies --   1552.7941              1843.2964              1892.9001
 Red. masses --      1.1408                10.1446                11.6293
 Frc consts  --      1.6206                20.3084                24.5504
 IR Inten    --     10.2178               279.0550               483.0425

                     43                     44                     45
                      A                      A                      A
 Frequencies --   3037.6592              3058.9576              3068.0551
 Red. masses --      1.0352                 1.0575                 1.0365
 Frc consts  --      5.6280                 5.8301                 5.7485
 IR Inten    --     54.6687                38.4684                21.4868

                     46                     47                     48
                      A                      A                      A
 Frequencies --   3090.4416              3116.6336              3137.6945
 Red. masses --      1.1056                 1.1084                 1.1037
 Frc consts  --      6.2217                 6.3433                 6.4020
 IR Inten    --     32.1895                21.1335                17.7101

                     49                     50                     51
                      A                      A                      A
 Frequencies --   3153.3520              3153.9277              3694.1797
 Red. masses --      1.0998                 1.1022                 1.0642
 Frc consts  --      6.4432                 6.4596                 8.5567
 IR Inten    --      3.5619                 9.4338                62.2149

 - Thermochemistry -
 -------------------
 Temperature   298.150 Kelvin.  Pressure   1.00000 Atm.
 Atom     1 has atomic number  6 and mass  12.00000

 Molecular mass:   143.05824 amu.
 Principal axes and moments of inertia in atomic units:
                           1         2         3
     Eigenvalues --   845.657701765.595261872.02841
           X            0.99946   0.03097   0.01104
           Y           -0.02971   0.99451  -0.10032
           Z           -0.01408   0.09994   0.99489
 This molecule is an asymmetric top.
 Rotational symmetry number  1.
 Warning -- assumption of classical behavior for rotation
           may cause significant error
 Rotational temperatures (Kelvin)      0.10242     0.04906     0.04627
 Rotational constants (GHZ):           2.13413     1.02217     0.96406
 Zero-point vibrational energy     400440.2 (Joules/Mol)
                                   95.70750 (Kcal/Mol)
 Warning -- explicit consideration of  14 degrees of freedom as
           vibrations may cause significant error
 Vibrational temperatures:     74.59   108.96   166.15   206.94   256.64
          (Kelvin)            294.51   349.13   356.15   381.22   509.48
                              628.35   711.63   731.62   879.63   971.67
                             1010.77  1068.02  1159.85  1213.46  1339.32
                             1368.28  1433.48  1522.07  1631.44  1646.72
                             1657.66  1701.26  1741.06  1813.43  1845.43
                             1912.80  1982.17  2064.15  2086.04  2114.49
                             2173.78  2183.19  2189.21  2208.52  2234.12
                             2652.09  2723.46  4370.51  4401.16  4414.25
                             4446.46  4484.14  4514.44  4536.97  4537.80
                             5315.10

 Zero-point correction=                           0.152520 (Hartree/Particle)
 Thermal correction to Energy=                    0.162975
 Thermal correction to Enthalpy=                  0.163919
 Thermal correction to Gibbs Free Energy=         0.116253
 Sum of electronic and zero-point Energies=           -514.361162
 Sum of electronic and thermal Energies=              -514.350707
 Sum of electronic and thermal Enthalpies=            -514.349762
 Sum of electronic and thermal Free Energies=         -514.397429

                     E (Thermal)             CV                S
                      KCal/Mol        Cal/Mol-Kelvin    Cal/Mol-Kelvin
 Total                  102.268             36.826            100.322
 Electronic               0.000              0.000              0.000
 Translational            0.889              2.981             40.785
 Rotational               0.889              2.981             29.415
 Vibrational            100.491             30.865             30.122
 Vibration     1          0.596              1.977              4.746
 Vibration     2          0.599              1.965              3.998
 Vibration     3          0.608              1.937              3.175
 Vibration     4          0.616              1.909              2.752
 Vibration     5          0.629              1.869              2.345
 Vibration     6          0.640              1.833              2.091
 Vibration     7          0.659              1.775              1.783
 Vibration     8          0.661              1.767              1.748
 Vibration     9          0.671              1.737              1.629
 Vibration    10          0.730              1.567              1.148
 Vibration    11          0.797              1.390              0.837
 Vibration    12          0.850              1.262              0.672
 Vibration    13          0.864              1.231              0.637
 Vibration    14          0.971              1.008              0.431

                           ! Non-Optimized Parameters !
 Normal termination of Gaussian 16 at Tue Dec  8 13:39:40 2020.

 ----------------------------------------------------------------------
 # B3LYP/6-311++G(d,p) empiricaldispersion=gd3bj scf=xqc pop=npa geom=c
 heck
 ----------------------------------------------------------------------

 -------------------------------------
 CID_83671556_JID_991_Energie_neutraal
 -------------------------------------
 Structure from the checkpoint file:  "JID_991.chk"
 Charge =  0 Multiplicity = 1

 SCF Done:  E(RB3LYP) =  -514.673770444     A.U. after   14 cycles
 Normal termination of Gaussian 16 at Tue Dec  8 13:41:56 2020.

 ----------------------------------------------------------------------
 # B3LYP/6-311++G(d,p) empiricaldispersion=gd3bj scf=xqc pop=npa geom=c
 heck
 ----------------------------------------------------------------------

 -----------------------------------
 CID_83671556_JID_991_Energie_kation
 -----------------------------------
 Structure from the checkpoint file:  "JID_991.chk"
 Charge =  1 Multiplicity = 2

 SCF Done:  E(UB3LYP) =  -514.331296879     A.U. after   28 cycles
 Normal termination of Gaussian 16 at Tue Dec  8 13:46:40 2020.
 Gaussian 16:  ES64L-G16RevA.03 25-Dec-2016

 ----------------------------------------------------------------------
 # B3LYP/6-311++G(d,p) empiricaldispersion=gd3bj scf=xqc pop=npa geom=c
 heck
 ----------------------------------------------------------------------

 ----------------------------------
 CID_83671556_JID_991_Energie_anion
 ----------------------------------
 Structure from the checkpoint file:  "JID_991.chk"
 Charge = -1 Multiplicity = 2

                         Standard orientation:
 ---------------------------------------------------------------------
 Center     Atomic      Atomic             Coordinates (Angstroms)
 Number     Number       Type             X           Y           Z
 ---------------------------------------------------------------------
      1          6           0       -0.962685   -1.899886    0.439571
      2          6           0       -0.460025   -0.471269    0.286382
      3          6           0        0.578592    0.027862    1.346529
      4          7           0        1.569439    0.089656    0.269651
      5          6           0        0.727463   -0.314141   -0.727524
      6          8           0        0.873066   -0.496515   -1.913427
      7          6           0        2.948832    0.503062    0.244539
      8          6           0       -1.591963    0.491628    0.003763
      9          8           0       -2.750311    0.182113   -0.159017
     10          8           0       -1.161095    1.776551   -0.073520
     11          1           0       -1.446660   -2.225978   -0.484239
     12          1           0       -1.694768   -1.973286    1.249152
     13          1           0       -0.126834   -2.573865    0.652090
     14          1           0        0.359212    0.998532    1.801142
     15          1           0        0.810916   -0.711011    2.122393
     16          1           0        3.055040    1.548141    0.561536
     17          1           0        3.565389   -0.128163    0.896420
     18          1           0        3.303335    0.405682   -0.784508
     19          1           0       -1.946263    2.311632   -0.293402
 ---------------------------------------------------------------------

 SCF Done:  E(UB3LYP) =  -514.662716515     A.U. after   31 cycles

 The electronic state is 2-A.
 Alpha  occ. eigenvalues --  -19.06801 -19.01711 -18.99723 -14.24352 -10.20704
 Alpha  occ. eigenvalues --  -10.17162 -10.11241 -10.10721 -10.09884 -10.07034
 Alpha  occ. eigenvalues --   -1.01070  -0.94532  -0.92251  -0.86562  -0.71371
 Alpha  occ. eigenvalues --   -0.63181  -0.57925  -0.56955  -0.49323  -0.44054
 Alpha  occ. eigenvalues --   -0.40979  -0.40024  -0.37935  -0.37364  -0.35130
 Alpha  occ. eigenvalues --   -0.34389  -0.32283  -0.31835  -0.30925  -0.29205
 Alpha  occ. eigenvalues --   -0.28339  -0.27386  -0.26820  -0.25076  -0.22794
 Alpha  occ. eigenvalues --   -0.18843  -0.15988  -0.14900   0.04529
 Alpha virt. eigenvalues --    0.06876   0.07758   0.08651   0.09205   0.09851
 Alpha virt. eigenvalues --    0.11234   0.11738   0.12194   0.12786   0.13289
 Alpha virt. eigenvalues --    0.14334   0.14972   0.15827   0.16929   0.17370

  Beta  occ. eigenvalues --  -19.06746 -19.01673 -18.99718 -14.24347 -10.20676
  Beta  occ. eigenvalues --  -10.17157 -10.11186 -10.10714 -10.09826 -10.07014
  Beta  occ. eigenvalues --   -1.00984  -0.94519  -0.92168  -0.86544  -0.71328
  Beta  occ. eigenvalues --   -0.63122  -0.57830  -0.56858  -0.49224  -0.43965
  Beta  occ. eigenvalues --   -0.40922  -0.39973  -0.37876  -0.37296  -0.35057
  Beta  occ. eigenvalues --   -0.34304  -0.32238  -0.31784  -0.30876  -0.29152
  Beta  occ. eigenvalues --   -0.28287  -0.27347  -0.26783  -0.25038  -0.22653
  Beta  occ. eigenvalues --   -0.18771  -0.15972  -0.14862
  Beta virt. eigenvalues --    0.07291   0.08260   0.08455   0.08913   0.10145
  Beta virt. eigenvalues --    0.10842   0.11535   0.12197   0.12631   0.13152
  Beta virt. eigenvalues --    0.13746   0.14556   0.15051   0.15835   0.17011

 Mulliken charges and spin densities:
               1          2
     1  C    0.623458  -1.114736
     2  C   -1.787312   2.067903
     3  C    2.494288  -3.010685
     4  N   -0.449433   0.441671
     5  C    0.161169  -0.104131
     6  O   -0.395485   0.003972
     7  C    1.205989  -1.481861
     8  C    0.083291   0.007575
     9  O   -0.312395   0.016992
    10  O   -0.177908   0.025610
    11  H    0.041643   0.133920
    12  H    0.048445   0.122736
    13  H   -0.057892   0.206949
    14  H   -0.349073   0.559340
    15  H   -0.687564   0.878670
    16  H   -0.374478   0.541350
    17  H   -0.627767   0.796515
    18  H   -0.118674   0.280398
    19  H   -0.320302   0.627813
 Sum of Mulliken charges =  -1.00000   1.00000

 Dipole moment (field-independent basis, Debye):
    X=             -2.9403    Y=             -1.7228    Z=             -1.8963  Tot=              3.9000
 Quadrupole moment (field-independent basis, Debye-Ang):
   XX=           -111.4693   YY=            -92.1430   ZZ=            -97.9679
   XY=              2.8321   XZ=             -8.5368   YZ=             -0.3493

 Summary of Natural Population Analysis:

                                       Natural Population
                Natural  -----------------------------------------------
    Atom  No    Charge         Core      Valence    Rydberg      Total
 -----------------------------------------------------------------------
      C    1   -0.28260      0.99964     2.27490    0.00806     3.28260
      C    2   -0.11865      0.99949     2.10388    0.01528     3.11865
      C    3   -0.06032      0.99961     2.04850    0.01221     3.06032
      N    4   -0.24849      0.99964     2.73584    0.01300     3.74849
      C    5    0.36283      0.99961     1.61206    0.02550     2.63717
      O    6   -0.31156      0.99987     3.30565    0.00604     4.31156
      C    7   -0.17873      0.99963     2.17058    0.00851     3.17873
      C    8    0.41565      0.99964     1.55902    0.02569     2.58435
      O    9   -0.30218      0.99987     3.29620    0.00611     4.30218
      O   10   -0.34233      0.99988     3.33554    0.00690     4.34233
      H   11    0.10948      0.00000     0.38965    0.00088     0.39052
      H   12    0.10567      0.00000     0.39342    0.00091     0.39433
      H   13    0.10229      0.00000     0.39664    0.00107     0.39771
      H   14    0.10198      0.00000     0.39462    0.00340     0.39802
      H   15    0.09698      0.00000     0.39921    0.00381     0.40302
      H   16    0.09869      0.00000     0.39957    0.00174     0.40131
      H   17    0.10068      0.00000     0.39609    0.00322     0.39932
      H   18    0.10759      0.00000     0.39119    0.00122     0.39241
      H   19    0.24302      0.00000     0.24802    0.00896     0.25698
 =======================================================================
   * Total *    0.00000      9.99688    27.85059    0.15253    38.00000

 Normal termination of Gaussian 16 at Tue Dec  8 13:53:01 2020.
