 Gaussian 16, Revision A.03,

 -----------------------------------------------------------
 # opt freq B3LYP/6-31G(d) empiricaldispersion=gd3bj scf=xqc
 -----------------------------------------------------------

 -------------------------------
 CID_105839280_JID_7249_neutraal
 -------------------------------
 Symbolic Z-matrix:
 Charge =  0 Multiplicity = 1

 SCF Done:  E(RB3LYP) =  -787.246599411     A.U. after   14 cycles
 SCF Done:  E(RB3LYP) =  -787.254689677     A.U. after   12 cycles
 SCF Done:  E(RB3LYP) =  -787.095994586     A.U. after   15 cycles
 SCF Done:  E(RB3LYP) =  -787.246888993     A.U. after   13 cycles
 SCF Done:  E(RB3LYP) =  -787.256170428     A.U. after   11 cycles
 SCF Done:  E(RB3LYP) =  -787.256931497     A.U. after   12 cycles
 SCF Done:  E(RB3LYP) =  -787.258004587     A.U. after   11 cycles
 SCF Done:  E(RB3LYP) =  -787.258327339     A.U. after   10 cycles
 SCF Done:  E(RB3LYP) =  -787.258346563     A.U. after   10 cycles
 SCF Done:  E(RB3LYP) =  -787.258398912     A.U. after   10 cycles
 SCF Done:  E(RB3LYP) =  -787.258442756     A.U. after    9 cycles
 SCF Done:  E(RB3LYP) =  -787.258446865     A.U. after    8 cycles
 SCF Done:  E(RB3LYP) =  -787.258447808     A.U. after    7 cycles
 SCF Done:  E(RB3LYP) =  -787.258447905     A.U. after    7 cycles
 SCF Done:  E(RB3LYP) =  -787.258447953     A.U. after    7 cycles
 Optimization completed.
    -- Stationary point found.
 Normal termination of Gaussian 16 at Mon Dec 14 13:21:52 2020.

 --------------------------------------------------------------------
 #N Geom=AllCheck Guess=TCheck SCRF=Check GenChk RB3LYP/6-31G(d) Freq
 --------------------------------------------------------------------

 Structure from the checkpoint file:  "JID_7249.chk"
 -------------------------------
 CID_105839280_JID_7249_neutraal
 -------------------------------
 Charge =  0 Multiplicity = 1

 SCF Done:  E(RB3LYP) =  -787.258447953     A.U. after    1 cycles

  Exact polarizability: 173.399   2.814 154.575 -15.646   1.038 113.450
 Approx polarizability: 238.121  -3.320 248.334 -33.675   6.632 168.150

                      1                      2                      3
                      A                      A                      A
 Frequencies --     29.7278                65.7929                75.2426
 Red. masses --      4.6105                 4.0397                 4.7586
 Frc consts  --      0.0024                 0.0103                 0.0159
 IR Inten    --      1.3143                 0.9928                 0.0078

                      4                      5                      6
                      A                      A                      A
 Frequencies --     99.6553               130.9939               143.5880
 Red. masses --      3.6310                 2.5659                 2.7808
 Frc consts  --      0.0212                 0.0259                 0.0338
 IR Inten    --      0.4066                 4.5093                 0.9242

                      7                      8                      9
                      A                      A                      A
 Frequencies --    183.2608               194.4288               207.2626
 Red. masses --      4.2281                 2.6932                 1.6090
 Frc consts  --      0.0837                 0.0600                 0.0407
 IR Inten    --      2.3522                 0.3714                 1.2555

                     10                     11                     12
                      A                      A                      A
 Frequencies --    221.9802               240.3524               244.5414
 Red. masses --      2.6368                 2.5526                 3.4121
 Frc consts  --      0.0766                 0.0869                 0.1202
 IR Inten    --      1.6715                 0.4330                 1.0651

                     13                     14                     15
                      A                      A                      A
 Frequencies --    259.7445               304.2051               331.9139
 Red. masses --      1.4673                 2.6454                 1.1321
 Frc consts  --      0.0583                 0.1442                 0.0735
 IR Inten    --      1.5055                 8.6509                95.8474

                     16                     17                     18
                      A                      A                      A
 Frequencies --    377.0062               380.8038               401.6140
 Red. masses --      4.7052                 3.2750                 2.7694
 Frc consts  --      0.3940                 0.2798                 0.2632
 IR Inten    --      7.5327                 2.6808                 2.2293

                     19                     20                     21
                      A                      A                      A
 Frequencies --    417.0058               436.7813               467.6122
 Red. masses --      3.7966                 2.8689                 2.9529
 Frc consts  --      0.3890                 0.3225                 0.3804
 IR Inten    --      1.4458                 3.5623                 5.7763

                     22                     23                     24
                      A                      A                      A
 Frequencies --    504.6709               526.5362               541.0421
 Red. masses --      3.7881                 3.3715                 4.3611
 Frc consts  --      0.5684                 0.5507                 0.7522
 IR Inten    --      4.0979                 2.4784                10.1790

                     25                     26                     27
                      A                      A                      A
 Frequencies --    578.7820               583.3585               587.3650
 Red. masses --      1.7691                 3.2464                 2.1325
 Frc consts  --      0.3492                 0.6509                 0.4335
 IR Inten    --     53.0366                10.2424                17.2009

                     28                     29                     30
                      A                      A                      A
 Frequencies --    621.6075               682.8904               720.2983
 Red. masses --      4.0964                 2.5271                 2.7463
 Frc consts  --      0.9326                 0.6943                 0.8395
 IR Inten    --      1.9444                22.9385                 7.6512

                     31                     32                     33
                      A                      A                      A
 Frequencies --    734.0134               751.6504               764.0372
 Red. masses --      1.8849                 1.5292                 1.9113
 Frc consts  --      0.5983                 0.5090                 0.6574
 IR Inten    --     22.2764                19.6444                33.5742

                     34                     35                     36
                      A                      A                      A
 Frequencies --    770.7575               823.0139               832.9243
 Red. masses --      3.0833                 3.5271                 2.3206
 Frc consts  --      1.0792                 1.4076                 0.9486
 IR Inten    --     41.2524                18.7852                14.6360

                     37                     38                     39
                      A                      A                      A
 Frequencies --    851.2487               870.5530               931.3798
 Red. masses --      1.4294                 3.6516                 1.8042
 Frc consts  --      0.6103                 1.6305                 0.9221
 IR Inten    --      3.2225                11.9384                 0.3559

                     40                     41                     42
                      A                      A                      A
 Frequencies --    947.3433               958.1980               995.4869
 Red. masses --      1.2340                 2.1329                 2.5295
 Frc consts  --      0.6525                 1.1538                 1.4769
 IR Inten    --      0.1827                 3.4245                22.4579

                     43                     44                     45
                      A                      A                      A
 Frequencies --   1010.6485              1022.4928              1067.2114
 Red. masses --      2.7260                 2.4351                 2.4070
 Frc consts  --      1.6405                 1.5000                 1.6152
 IR Inten    --     53.0330                 2.7078                58.8686

                     46                     47                     48
                      A                      A                      A
 Frequencies --   1076.0200              1089.9091              1104.6980
 Red. masses --      2.3017                 1.4762                 2.3701
 Frc consts  --      1.5702                 1.0332                 1.7041
 IR Inten    --     22.1399                29.8686                10.2025

                     49                     50                     51
                      A                      A                      A
 Frequencies --   1120.1207              1129.3997              1158.4226
 Red. masses --      1.9517                 3.5220                 1.9921
 Frc consts  --      1.4428                 2.6469                 1.5751
 IR Inten    --     30.9710                68.5732                26.1663

                     52                     53                     54
                      A                      A                      A
 Frequencies --   1181.2093              1189.8860              1192.4728
 Red. masses --      1.6958                 1.1902                 1.3379
 Frc consts  --      1.3941                 0.9929                 1.1209
 IR Inten    --     47.3031                 4.0767                19.4077

                     55                     56                     57
                      A                      A                      A
 Frequencies --   1197.1570              1218.9700              1230.8886
 Red. masses --      1.7123                 1.4213                 1.8651
 Frc consts  --      1.4459                 1.2443                 1.6649
 IR Inten    --     19.0951                 0.5526                44.7947

                     58                     59                     60
                      A                      A                      A
 Frequencies --   1239.1916              1262.1164              1269.5646
 Red. masses --      2.2127                 1.5425                 1.4300
 Frc consts  --      2.0020                 1.4477                 1.3580
 IR Inten    --     40.7403                14.3885                 3.2446

                     61                     62                     63
                      A                      A                      A
 Frequencies --   1288.7065              1290.9617              1304.2264
 Red. masses --      1.8335                 1.5381                 2.1543
 Frc consts  --      1.7941                 1.5103                 2.1590
 IR Inten    --    172.0361                26.7101                36.9472

                     64                     65                     66
                      A                      A                      A
 Frequencies --   1309.5213              1351.7200              1366.0515
 Red. masses --      1.8016                 4.7882                 1.2793
 Frc consts  --      1.8203                 5.1546                 1.4065
 IR Inten    --      0.1997                37.7280                 8.3244

                     67                     68                     69
                      A                      A                      A
 Frequencies --   1375.0531              1396.6762              1420.3139
 Red. masses --      1.3644                 1.3145                 1.3252
 Frc consts  --      1.5199                 1.5108                 1.5751
 IR Inten    --      9.1738                32.1977                27.2728

                     70                     71                     72
                      A                      A                      A
 Frequencies --   1427.9088              1438.3730              1488.5653
 Red. masses --      1.2779                 1.4100                 1.0960
 Frc consts  --      1.5351                 1.7187                 1.4308
 IR Inten    --     34.5483                15.4878                 4.9110

                     73                     74                     75
                      A                      A                      A
 Frequencies --   1500.9012              1507.5887              1513.6059
 Red. masses --      1.1416                 1.1824                 1.0659
 Frc consts  --      1.5152                 1.5833                 1.4388
 IR Inten    --      0.1290                23.0629                 4.7077

                     76                     77                     78
                      A                      A                      A
 Frequencies --   1516.0347              1519.0018              1528.8175
 Red. masses --      1.0574                 1.8878                 1.9507
 Frc consts  --      1.4318                 2.5665                 2.6863
 IR Inten    --      5.5786                85.3712                35.8145

                     79                     80                     81
                      A                      A                      A
 Frequencies --   1535.2072              1538.6106              1551.1681
 Red. masses --      1.3680                 1.0625                 1.3173
 Frc consts  --      1.8997                 1.4820                 1.8674
 IR Inten    --      1.4545                 5.6465                11.1651

                     82                     83                     84
                      A                      A                      A
 Frequencies --   1644.7472              1675.0195              3019.3554
 Red. masses --      5.7566                 6.1510                 1.0367
 Frc consts  --      9.1752                10.1679                 5.5682
 IR Inten    --     69.7529                52.2438                51.2415

                     85                     86                     87
                      A                      A                      A
 Frequencies --   3033.7993              3057.9207              3074.4278
 Red. masses --      1.0839                 1.0345                 1.0865
 Frc consts  --      5.8779                 5.6993                 6.0507
 IR Inten    --     85.5847                27.6299                32.3679

                     88                     89                     90
                      A                      A                      A
 Frequencies --   3076.5279              3080.2447              3091.5318
 Red. masses --      1.0935                 1.0688                 1.0698
 Frc consts  --      6.0979                 5.9750                 6.0240
 IR Inten    --     18.5492                47.2507                35.6689

                     91                     92                     93
                      A                      A                      A
 Frequencies --   3114.2616              3129.8625              3132.0988
 Red. masses --      1.0854                 1.1034                 1.1065
 Frc consts  --      6.2021                 6.3682                 6.3954
 IR Inten    --     12.9734                27.4677                34.0742

                     94                     95                     96
                      A                      A                      A
 Frequencies --   3145.1264              3151.7930              3155.9298
 Red. masses --      1.1006                 1.1001                 1.1016
 Frc consts  --      6.4143                 6.4387                 6.4645
 IR Inten    --     25.4744                16.5793                10.8735

                     97                     98                     99
                      A                      A                      A
 Frequencies --   3165.7425              3198.0831              3223.3497
 Red. masses --      1.0886                 1.0908                 1.0942
 Frc consts  --      6.4279                 6.5733                 6.6981
 IR Inten    --     16.6075                19.5760                11.3597

                    100                    101                    102
                      A                      A                      A
 Frequencies --   3498.0973              3553.3600              3756.3233
 Red. masses --      1.0675                 1.0740                 1.0660
 Frc consts  --      7.6965                 7.9899                 8.8618
 IR Inten    --    797.2532                20.3657                40.4535

 - Thermochemistry -
 -------------------
 Temperature   298.150 Kelvin.  Pressure   1.00000 Atm.
 Atom     1 has atomic number  6 and mass  12.00000

 Molecular mass:   237.13649 amu.
 Principal axes and moments of inertia in atomic units:
                           1         2         3
     Eigenvalues --  2562.157824791.347635883.67303
           X            0.99996  -0.00762  -0.00428
           Y            0.00758   0.99991  -0.01121
           Z            0.00437   0.01118   0.99993
 This molecule is an asymmetric top.
 Rotational symmetry number  1.
 Warning -- assumption of classical behavior for rotation
           may cause significant error
 Rotational temperatures (Kelvin)      0.03381     0.01808     0.01472
 Rotational constants (GHZ):           0.70438     0.37667     0.30674
 Zero-point vibrational energy     811652.3 (Joules/Mol)
                                  193.98955 (Kcal/Mol)
 Warning -- explicit consideration of  27 degrees of freedom as
           vibrations may cause significant error
 Vibrational temperatures:     42.77    94.66   108.26   143.38   188.47
          (Kelvin)            206.59   263.67   279.74   298.20   319.38
                              345.81   351.84   373.71   437.68   477.55
                              542.43   547.89   577.83   599.98   628.43
                              672.79   726.11   757.57   778.44   832.74
                              839.32   845.09   894.35   982.53  1036.35
                             1056.08  1081.46  1099.28  1108.95  1184.13
                             1198.39  1224.76  1252.53  1340.05  1363.02
                             1378.63  1432.28  1454.10  1471.14  1535.48
                             1548.15  1568.14  1589.41  1611.60  1624.95
                             1666.71  1699.50  1711.98  1715.70  1722.44
                             1753.83  1770.97  1782.92  1815.90  1826.62
                             1854.16  1857.41  1876.49  1884.11  1944.82
                             1965.44  1978.39  2009.51  2043.51  2054.44
                             2069.50  2141.71  2159.46  2169.08  2177.74
                             2181.24  2185.50  2199.63  2208.82  2213.72
                             2231.78  2366.42  2409.98  4344.18  4364.96
                             4399.67  4423.42  4426.44  4431.79  4448.02
                             4480.73  4503.17  4506.39  4525.14  4534.73
                             4540.68  4554.80  4601.33  4637.68  5032.98
                             5112.49  5404.51

 Zero-point correction=                           0.309142 (Hartree/Particle)
 Thermal correction to Energy=                    0.325631
 Thermal correction to Enthalpy=                  0.326575
 Thermal correction to Gibbs Free Energy=         0.265843
 Sum of electronic and zero-point Energies=           -786.949306
 Sum of electronic and thermal Energies=              -786.932817
 Sum of electronic and thermal Enthalpies=            -786.931873
 Sum of electronic and thermal Free Energies=         -786.992605

                     E (Thermal)             CV                S
                      KCal/Mol        Cal/Mol-Kelvin    Cal/Mol-Kelvin
 Total                  204.336             65.116            127.822
 Electronic               0.000              0.000              0.000
 Translational            0.889              2.981             42.292
 Rotational               0.889              2.981             32.646
 Vibrational            202.559             59.155             52.884
 Vibration     1          0.594              1.984              5.848
 Vibration     2          0.597              1.971              4.275
 Vibration     3          0.599              1.966              4.011
 Vibration     4          0.604              1.949              3.461
 Vibration     5          0.612              1.922              2.931
 Vibration     6          0.616              1.910              2.756
 Vibration     7          0.631              1.863              2.295
 Vibration     8          0.635              1.848              2.185
 Vibration     9          0.641              1.830              2.068
 Vibration    10          0.648              1.808              1.943
 Vibration    11          0.657              1.779              1.800
 Vibration    12          0.660              1.772              1.770
 Vibration    13          0.668              1.746              1.663
 Vibration    14          0.695              1.666              1.394
 Vibration    15          0.714              1.612              1.251
 Vibration    16          0.748              1.519              1.051
 Vibration    17          0.751              1.511              1.036
 Vibration    18          0.767              1.467              0.957
 Vibration    19          0.780              1.433              0.902
 Vibration    20          0.797              1.390              0.837
 Vibration    21          0.825              1.322              0.744
 Vibration    22          0.860              1.240              0.647
 Vibration    23          0.881              1.191              0.595
 Vibration    24          0.896              1.159              0.563
 Vibration    25          0.935              1.077              0.488
 Vibration    26          0.940              1.067              0.479
 Vibration    27          0.945              1.059              0.472

                           ! Non-Optimized Parameters !
 Normal termination of Gaussian 16 at Mon Dec 14 13:36:03 2020.

 ----------------------------------------------------------------------
 # B3LYP/6-311++G(d,p) empiricaldispersion=gd3bj scf=xqc pop=npa geom=c
 heck
 ----------------------------------------------------------------------

 ---------------------------------------
 CID_105839280_JID_7249_Energie_neutraal
 ---------------------------------------
 Structure from the checkpoint file:  "JID_7249.chk"
 Charge =  0 Multiplicity = 1

 SCF Done:  E(RB3LYP) =  -787.495306885     A.U. after   15 cycles
 Normal termination of Gaussian 16 at Mon Dec 14 13:42:57 2020.

 ----------------------------------------------------------------------
 # B3LYP/6-311++G(d,p) empiricaldispersion=gd3bj scf=xqc pop=npa geom=c
 heck
 ----------------------------------------------------------------------

 -------------------------------------
 CID_105839280_JID_7249_Energie_kation
 -------------------------------------
 Structure from the checkpoint file:  "JID_7249.chk"
 Charge =  1 Multiplicity = 2

 SCF Done:  E(UB3LYP) =  -787.218097327     A.U. after   26 cycles
 Normal termination of Gaussian 16 at Mon Dec 14 13:59:46 2020.
 Gaussian 16:  ES64L-G16RevA.03 25-Dec-2016

 ----------------------------------------------------------------------
 # B3LYP/6-311++G(d,p) empiricaldispersion=gd3bj scf=xqc pop=npa geom=c
 heck
 ----------------------------------------------------------------------

 ------------------------------------
 CID_105839280_JID_7249_Energie_anion
 ------------------------------------
 Structure from the checkpoint file:  "JID_7249.chk"
 Charge = -1 Multiplicity = 2

                         Standard orientation:
 ---------------------------------------------------------------------
 Center     Atomic      Atomic             Coordinates (Angstroms)
 Number     Number       Type             X           Y           Z
 ---------------------------------------------------------------------
      1          6           0        0.662934   -1.485628    2.268915
      2          6           0        0.122807   -0.902781    0.953047
      3          6           0        1.180519   -0.006980    0.304332
      4          6           0        1.082387    1.398576    0.333689
      5          6           0        2.118570    2.210569   -0.145875
      6          6           0        3.262161    1.632180   -0.681131
      7          6           0        3.378359    0.244547   -0.753237
      8          6           0        2.346581   -0.552423   -0.257921
      9          8           0        2.443024   -1.929416   -0.293677
     10          8           0       -0.001443    2.040048    0.865639
     11          7           0       -0.398010   -1.993403    0.117585
     12          6           0       -1.453071   -1.692723   -0.826098
     13          6           0       -2.800316   -1.237927   -0.188807
     14          6           0       -2.721217    0.105560   -0.960884
     15          6           0       -1.450209   -0.373571   -1.687826
     16          8           0       -2.436373    1.241702   -0.145754
     17          6           0       -3.538764    1.674367    0.635378
     18          1           0        1.510542   -2.149217    2.075396
     19          1           0       -0.122723   -2.064338    2.764580
     20          1           0        0.996557   -0.682903    2.935292
     21          1           0       -0.728798   -0.271207    1.212354
     22          1           0        1.992343    3.286434   -0.095136
     23          1           0        4.064240    2.259747   -1.058812
     24          1           0        4.263894   -0.219227   -1.183419
     25          1           0        3.304960   -2.167116   -0.667842
     26          1           0       -0.835223    1.628918    0.546780
     27          1           0        0.377063   -2.464850   -0.337202
     28          1           0       -1.571059   -2.583748   -1.450067
     29          1           0       -3.656508   -1.865883   -0.453298
     30          1           0       -2.768926   -1.138041    0.900045
     31          1           0       -3.584782    0.341789   -1.597371
     32          1           0       -0.589165    0.283250   -1.552650
     33          1           0       -1.593593   -0.540737   -2.759633
     34          1           0       -3.883793    0.888304    1.320599
     35          1           0       -3.199001    2.534931    1.215667
     36          1           0       -4.376065    1.976451   -0.009524
 ---------------------------------------------------------------------

 SCF Done:  E(UB3LYP) =  -787.485219449     A.U. after   33 cycles
 SCF Done:  E(UB3LYP) =  -787.485219449     a.u. after    1 cycles

 The electronic state is 2-A.
 Alpha  occ. eigenvalues --  -19.05778 -19.05610 -19.03592 -14.19468 -10.14194
 Alpha  occ. eigenvalues --  -10.13719 -10.13266 -10.13207 -10.11024 -10.10433
 Alpha  occ. eigenvalues --  -10.08485 -10.08051 -10.07384 -10.07090 -10.07034
 Alpha  occ. eigenvalues --  -10.06853 -10.06075  -0.96694  -0.96537  -0.94828
 Alpha  occ. eigenvalues --   -0.81587  -0.75534  -0.73267  -0.67582  -0.64023
 Alpha  occ. eigenvalues --   -0.63010  -0.61440  -0.57476  -0.54550  -0.53480
 Alpha  occ. eigenvalues --   -0.53073  -0.49271  -0.46814  -0.45218  -0.42806
 Alpha  occ. eigenvalues --   -0.40784  -0.40273  -0.40253  -0.38949  -0.37840
 Alpha  occ. eigenvalues --   -0.37135  -0.35695  -0.35205  -0.33497  -0.32888
 Alpha  occ. eigenvalues --   -0.31835  -0.30957  -0.30056  -0.29500  -0.28925
 Alpha  occ. eigenvalues --   -0.28381  -0.27929  -0.26974  -0.26141  -0.25683
 Alpha  occ. eigenvalues --   -0.24496  -0.23762  -0.23279  -0.21612  -0.21453
 Alpha  occ. eigenvalues --   -0.18129  -0.14353  -0.12920  -0.12169   0.03911
 Alpha virt. eigenvalues --    0.05229   0.06683   0.07446   0.07885   0.08263
 Alpha virt. eigenvalues --    0.08545   0.09109   0.09489   0.09682   0.10123
 Alpha virt. eigenvalues --    0.10552   0.11543   0.11839   0.12126   0.12392

  Beta  occ. eigenvalues --  -19.05721 -19.05605 -19.03591 -14.19463 -10.14193
  Beta  occ. eigenvalues --  -10.13719 -10.13250 -10.13178 -10.11022 -10.10425
  Beta  occ. eigenvalues --  -10.08482 -10.08046 -10.07356 -10.07074 -10.07033
  Beta  occ. eigenvalues --  -10.06843 -10.06069  -0.96605  -0.96511  -0.94825
  Beta  occ. eigenvalues --   -0.81572  -0.75512  -0.73243  -0.67564  -0.63994
  Beta  occ. eigenvalues --   -0.62988  -0.61399  -0.57442  -0.54530  -0.53445
  Beta  occ. eigenvalues --   -0.53004  -0.49246  -0.46778  -0.45187  -0.42760
  Beta  occ. eigenvalues --   -0.40746  -0.40225  -0.40210  -0.38920  -0.37813
  Beta  occ. eigenvalues --   -0.37098  -0.35670  -0.35182  -0.33475  -0.32871
  Beta  occ. eigenvalues --   -0.31808  -0.30936  -0.30030  -0.29479  -0.28904
  Beta  occ. eigenvalues --   -0.28356  -0.27897  -0.26956  -0.26115  -0.25662
  Beta  occ. eigenvalues --   -0.24473  -0.23747  -0.23253  -0.21596  -0.21428
  Beta  occ. eigenvalues --   -0.18104  -0.14342  -0.12903  -0.12159
  Beta virt. eigenvalues --    0.06168   0.06839   0.07255   0.07780   0.08211
  Beta virt. eigenvalues --    0.08536   0.08829   0.09313   0.09621   0.10016
  Beta virt. eigenvalues --    0.10440   0.10840   0.11558   0.12158   0.12237

 Mulliken charges and spin densities:
               1          2
     1  C   -0.272567  -0.438650
     2  C    0.490278  -1.381106
     3  C    1.394424   0.239816
     4  C   -1.107583   0.816076
     5  C   -0.574918   0.408345
     6  C    0.475870  -0.711934
     7  C   -0.714358   0.311486
     8  C    0.416179  -1.086900
     9  O   -0.253220   0.040956
    10  O   -0.258835  -0.002044
    11  N    0.140248  -0.013359
    12  C   -0.937138   1.046948
    13  C    0.747068  -1.323095
    14  C   -0.602432   0.713530
    15  C    0.716713  -1.415851
    16  O   -0.154254  -0.005649
    17  C    0.433433  -0.738672
    18  H    0.089870   0.085592
    19  H    0.118688   0.021510
    20  H    0.097425   0.041413
    21  H    0.301820  -0.150626
    22  H    0.087749   0.075557
    23  H    0.137080   0.013815
    24  H   -0.935206   1.095921
    25  H   -0.409420   0.692446
    26  H    0.382421   0.049362
    27  H    0.259700   0.046975
    28  H   -0.248072   0.454173
    29  H   -0.373935   0.535031
    30  H    0.252442  -0.094717
    31  H   -0.446360   0.649497
    32  H    0.352065  -0.182276
    33  H   -0.178828   0.353944
    34  H   -0.158772   0.301464
    35  H    0.009838   0.127737
    36  H   -0.277412   0.423286
 Sum of Mulliken charges =  -1.00000   1.00000

 Dipole moment (field-independent basis, Debye):
    X=             -0.3329    Y=              3.4442    Z=              3.2005  Tot=              4.7134
 Quadrupole moment (field-independent basis, Debye-Ang):
   XX=           -194.2660   YY=           -147.5242   ZZ=           -136.8065
   XY=             12.4567   XZ=             -1.5999   YZ=             -6.2572

 Summary of Natural Population Analysis:

                                       Natural Population
                Natural  -----------------------------------------------
    Atom  No    Charge         Core      Valence    Rydberg      Total
 -----------------------------------------------------------------------
      C    1   -0.28069      0.99964     2.27587    0.00517     3.28069
      C    2   -0.02430      0.99957     2.01067    0.01407     3.02430
      C    3   -0.07419      0.99940     2.06370    0.01108     3.07419
      C    4    0.16535      0.99935     1.82289    0.01241     2.83465
      C    5   -0.13739      0.99952     2.12878    0.00909     3.13739
      C    6   -0.09175      0.99957     2.08198    0.01020     3.09175
      C    7   -0.14712      0.99952     2.13695    0.01065     3.14712
      C    8    0.16629      0.99934     1.82081    0.01355     2.83371
      O    9   -0.35088      0.99988     3.34338    0.00763     4.35088
      O   10   -0.36663      0.99987     3.36022    0.00654     4.36663
      N   11   -0.34267      0.99971     2.83159    0.01138     3.84267
      C   12   -0.00341      0.99961     1.98917    0.01462     3.00341
      C   13   -0.21024      0.99961     2.20181    0.00881     3.21024
      C   14    0.06586      0.99954     1.91936    0.01524     2.93414
      C   15   -0.21094      0.99961     2.20271    0.00862     3.21094
      O   16   -0.31348      0.99987     3.30244    0.01116     4.31348
      C   17   -0.09869      0.99960     2.09036    0.00873     3.09869
      H   18    0.10488      0.00000     0.39395    0.00117     0.39512
      H   19    0.09917      0.00000     0.39991    0.00092     0.40083
      H   20    0.09698      0.00000     0.40230    0.00072     0.40302
      H   21    0.09804      0.00000     0.39884    0.00312     0.40196
      H   22    0.10414      0.00000     0.39496    0.00090     0.39586
      H   23    0.09890      0.00000     0.40037    0.00073     0.40110
      H   24    0.10461      0.00000     0.39331    0.00208     0.39539
      H   25    0.24460      0.00000     0.23772    0.01769     0.25540
      H   26    0.24984      0.00000     0.24645    0.00370     0.25016
      H   27    0.18968      0.00000     0.30709    0.00323     0.31032
      H   28    0.09600      0.00000     0.40288    0.00111     0.40400
      H   29    0.10581      0.00000     0.39251    0.00168     0.39419
      H   30    0.10258      0.00000     0.39610    0.00132     0.39742
      H   31    0.08603      0.00000     0.41155    0.00242     0.41397
      H   32    0.10941      0.00000     0.38848    0.00211     0.39059
      H   33    0.10450      0.00000     0.39428    0.00122     0.39550
      H   34    0.08261      0.00000     0.41609    0.00130     0.41739
      H   35    0.09202      0.00000     0.40721    0.00076     0.40798
      H   36    0.08506      0.00000     0.41339    0.00155     0.41494
 =======================================================================
   * Total *    0.00000     16.99322    46.78010    0.22669    64.00000

 Normal termination of Gaussian 16 at Mon Dec 14 14:21:12 2020.
