 Gaussian 16, Revision A.03,

 -----------------------------------------------------------
 # opt freq B3LYP/6-31G(d) empiricaldispersion=gd3bj scf=xqc
 -----------------------------------------------------------

 -------------------------------
 CID_127993188_JID_8846_neutraal
 -------------------------------
 Symbolic Z-matrix:
 Charge =  0 Multiplicity = 1

 SCF Done:  E(RB3LYP) =  -1181.68510308     A.U. after   15 cycles
 SCF Done:  E(RB3LYP) =  -1181.69688417     A.U. after   12 cycles
 SCF Done:  E(RB3LYP) =  -1181.69745095     A.U. after   12 cycles
 SCF Done:  E(RB3LYP) =  -1181.69784709     A.U. after   13 cycles
 SCF Done:  E(RB3LYP) =  -1181.69878341     A.U. after   12 cycles
 SCF Done:  E(RB3LYP) =  -1181.69899608     A.U. after   11 cycles
 SCF Done:  E(RB3LYP) =  -1181.69908415     A.U. after   11 cycles
 SCF Done:  E(RB3LYP) =  -1181.69915212     A.U. after   11 cycles
 SCF Done:  E(RB3LYP) =  -1181.69920905     A.U. after   11 cycles
 SCF Done:  E(RB3LYP) =  -1181.69924977     A.U. after   11 cycles
 SCF Done:  E(RB3LYP) =  -1181.69960711     A.U. after    8 cycles
 SCF Done:  E(RB3LYP) =  -1181.69960731     A.U. after    7 cycles
 SCF Done:  E(RB3LYP) =  -1181.69960738     A.U. after    7 cycles
 SCF Done:  E(RB3LYP) =  -1181.69960739     A.U. after    7 cycles
 SCF Done:  E(RB3LYP) =  -1181.69960741     A.U. after    6 cycles
 Optimization completed.
    -- Stationary point found.
 Normal termination of Gaussian 16 at Fri Dec 11 22:59:27 2020.

 --------------------------------------------------------------------
 #N Geom=AllCheck Guess=TCheck SCRF=Check GenChk RB3LYP/6-31G(d) Freq
 --------------------------------------------------------------------

 Structure from the checkpoint file:  "JID_8846.chk"
 -------------------------------
 CID_127993188_JID_8846_neutraal
 -------------------------------
 Charge =  0 Multiplicity = 1

 SCF Done:  E(RB3LYP) =  -1181.69960741     A.U. after    1 cycles

  Exact polarizability: 187.047 -20.596 164.339   7.981   5.828 135.752
 Approx polarizability: 250.317 -33.689 252.226  23.954  13.058 239.196

                      1                      2                      3
                      A                      A                      A
 Frequencies --     18.6935                35.3785                70.5719
 Red. masses --      5.6744                 3.5662                 5.6491
 Frc consts  --      0.0012                 0.0026                 0.0166
 IR Inten    --      0.3445                 0.1437                 0.2626

                      4                      5                      6
                      A                      A                      A
 Frequencies --     81.3334                98.7187               129.5049
 Red. masses --      5.6644                 5.3912                 2.6259
 Frc consts  --      0.0221                 0.0310                 0.0259
 IR Inten    --      2.4784                 1.0438                 1.1577

                      7                      8                      9
                      A                      A                      A
 Frequencies --    145.0668               160.1164               175.5830
 Red. masses --      1.4614                 2.4671                 3.0781
 Frc consts  --      0.0181                 0.0373                 0.0559
 IR Inten    --      0.1431                 0.5070                 4.2088

                     10                     11                     12
                      A                      A                      A
 Frequencies --    227.9164               236.1466               246.9229
 Red. masses --      1.3215                 2.3836                 2.5305
 Frc consts  --      0.0404                 0.0783                 0.0909
 IR Inten    --      1.0220                 4.7523                 3.1912

                     13                     14                     15
                      A                      A                      A
 Frequencies --    271.1935               274.9835               289.1562
 Red. masses --      1.2915                 2.6207                 2.6413
 Frc consts  --      0.0560                 0.1168                 0.1301
 IR Inten    --     15.8423                 1.6351                 1.1149

                     16                     17                     18
                      A                      A                      A
 Frequencies --    305.5468               321.5794               331.7460
 Red. masses --      2.7347                 3.9548                 2.5846
 Frc consts  --      0.1504                 0.2410                 0.1676
 IR Inten    --     28.2651                 7.8723                22.2593

                     19                     20                     21
                      A                      A                      A
 Frequencies --    346.7784               356.0272               372.8159
 Red. masses --      1.6725                 4.1913                 2.4480
 Frc consts  --      0.1185                 0.3130                 0.2005
 IR Inten    --     51.7931                 7.1976                 7.2191

                     22                     23                     24
                      A                      A                      A
 Frequencies --    390.8042               434.0477               467.0967
 Red. masses --      2.1058                 2.4839                 3.6267
 Frc consts  --      0.1895                 0.2757                 0.4662
 IR Inten    --      1.8781                12.1414                10.5506

                     25                     26                     27
                      A                      A                      A
 Frequencies --    501.4337               512.7664               520.3342
 Red. masses --      2.6922                 2.8303                 4.9009
 Frc consts  --      0.3988                 0.4385                 0.7818
 IR Inten    --     45.8851                 2.5464                 7.5494

                     28                     29                     30
                      A                      A                      A
 Frequencies --    527.4835               597.2417               605.3766
 Red. masses --      2.8140                 3.4406                 4.1547
 Frc consts  --      0.4613                 0.7231                 0.8971
 IR Inten    --      0.8145                 6.1690                13.6909

                     31                     32                     33
                      A                      A                      A
 Frequencies --    624.1248               672.8860               677.4096
 Red. masses --      4.9701                 5.6519                 4.5266
 Frc consts  --      1.1407                 1.5077                 1.2239
 IR Inten    --      6.1034                 3.9169                27.6294

                     34                     35                     36
                      A                      A                      A
 Frequencies --    721.6437               742.5827               770.9009
 Red. masses --      2.9782                 5.6616                 5.4435
 Frc consts  --      0.9138                 1.8394                 1.9060
 IR Inten    --      5.0235                46.4726                16.7299

                     37                     38                     39
                      A                      A                      A
 Frequencies --    805.8388               859.5044               868.8774
 Red. masses --      3.4598                 1.3561                 2.2121
 Frc consts  --      1.3237                 0.5903                 0.9840
 IR Inten    --      0.6917                11.4614                 1.8870

                     40                     41                     42
                      A                      A                      A
 Frequencies --    890.8437               905.1737               945.6355
 Red. masses --      3.8950                 2.2444                 1.8739
 Frc consts  --      1.8212                 1.0835                 0.9873
 IR Inten    --      5.0507                10.3655                 1.9556

                     43                     44                     45
                      A                      A                      A
 Frequencies --    966.1445               983.9907               999.9986
 Red. masses --      1.5155                 2.0645                 1.7022
 Frc consts  --      0.8335                 1.1777                 1.0029
 IR Inten    --      3.7084                 8.5475                 9.5092

                     46                     47                     48
                      A                      A                      A
 Frequencies --   1016.4355              1035.4142              1059.2073
 Red. masses --      1.5909                 1.5084                 2.0057
 Frc consts  --      0.9684                 0.9528                 1.3258
 IR Inten    --      1.1659                 8.2216                13.7279

                     49                     50                     51
                      A                      A                      A
 Frequencies --   1070.3416              1074.1951              1105.3865
 Red. masses --      2.1253                 1.3996                 2.7346
 Frc consts  --      1.4345                 0.9515                 1.9687
 IR Inten    --    104.3154                 0.6193                53.7665

                     52                     53                     54
                      A                      A                      A
 Frequencies --   1123.1952              1163.6023              1189.0625
 Red. masses --      2.5245                 2.3779                 2.2029
 Frc consts  --      1.8765                 1.8969                 1.8351
 IR Inten    --     21.0778               124.7519                19.1407

                     55                     56                     57
                      A                      A                      A
 Frequencies --   1193.5517              1204.3096              1226.7047
 Red. masses --      3.9858                 1.7670                 1.7137
 Frc consts  --      3.3454                 1.5100                 1.5194
 IR Inten    --      5.9962                16.1342                38.0103

                     58                     59                     60
                      A                      A                      A
 Frequencies --   1248.7481              1258.7908              1264.0029
 Red. masses --      2.3903                 3.1146                 2.5897
 Frc consts  --      2.1961                 2.9077                 2.4377
 IR Inten    --     66.6707                43.2098                35.8652

                     61                     62                     63
                      A                      A                      A
 Frequencies --   1299.3873              1309.9927              1326.3673
 Red. masses --      1.9099                 1.5238                 1.9527
 Frc consts  --      1.9000                 1.5407                 2.0240
 IR Inten    --     89.1874               149.1372                 8.6718

                     64                     65                     66
                      A                      A                      A
 Frequencies --   1340.7399              1367.0954              1395.8884
 Red. masses --      1.9127                 1.3559                 1.3842
 Frc consts  --      2.0257                 1.4931                 1.5891
 IR Inten    --    111.8914                 1.3418                11.9524

                     67                     68                     69
                      A                      A                      A
 Frequencies --   1402.7069              1423.6238              1426.1124
 Red. masses --      1.4041                 1.4508                 1.2860
 Frc consts  --      1.6277                 1.7324                 1.5410
 IR Inten    --      3.0986                23.9703                15.2287

                     70                     71                     72
                      A                      A                      A
 Frequencies --   1443.8308              1445.2571              1446.4211
 Red. masses --      1.8447                 1.2211                 1.2642
 Frc consts  --      2.2658                 1.5028                 1.5583
 IR Inten    --    264.7333                42.8615                10.2256

                     73                     74                     75
                      A                      A                      A
 Frequencies --   1456.6928              1468.4657              1506.5401
 Red. masses --      1.2612                 1.9347                 1.0426
 Frc consts  --      1.5767                 2.4580                 1.3942
 IR Inten    --     37.6968                43.9083                 8.2309

                     76                     77                     78
                      A                      A                      A
 Frequencies --   1511.0719              1517.1391              1517.9498
 Red. masses --      1.0716                 1.0794                 1.1639
 Frc consts  --      1.4416                 1.4637                 1.5800
 IR Inten    --      9.4046                 2.8323                 9.3533

                     79                     80                     81
                      A                      A                      A
 Frequencies --   1521.5024              1527.0457              1534.8448
 Red. masses --      1.0656                 1.0668                 1.0933
 Frc consts  --      1.4535                 1.4656                 1.5174
 IR Inten    --      4.7342                 2.2525                13.6222

                     82                     83                     84
                      A                      A                      A
 Frequencies --   1542.8261              1543.4445              1567.2014
 Red. masses --      1.0680                 1.0653                 4.9947
 Frc consts  --      1.4978                 1.4952                 7.2279
 IR Inten    --     30.7616                 7.1310                43.8060

                     85                     86                     87
                      A                      A                      A
 Frequencies --   1607.9851              1792.1809              2982.2695
 Red. masses --      5.9332                 8.4469                 1.0744
 Frc consts  --      9.0387                15.9850                 5.6299
 IR Inten    --     46.5552               466.3440                36.4226

                     88                     89                     90
                      A                      A                      A
 Frequencies --   2995.3163              3038.2986              3044.7383
 Red. masses --      1.0745                 1.0763                 1.0407
 Frc consts  --      5.6801                 5.8541                 5.6845
 IR Inten    --     53.5607                10.5613                17.3013

                     91                     92                     93
                      A                      A                      A
 Frequencies --   3047.7925              3051.3729              3054.9137
 Red. masses --      1.0360                 1.0655                 1.0418
 Frc consts  --      5.6697                 5.8451                 5.7282
 IR Inten    --     34.4205                50.2154                25.0688

                     94                     95                     96
                      A                      A                      A
 Frequencies --   3100.8437              3101.7675              3104.7232
 Red. masses --      1.1009                 1.1021                 1.1019
 Frc consts  --      6.2369                 6.2470                 6.2583
 IR Inten    --     29.8658                14.3693                39.3010

                     97                     98                     99
                      A                      A                      A
 Frequencies --   3114.3130              3129.5351              3139.1194
 Red. masses --      1.0991                 1.1013                 1.0997
 Frc consts  --      6.2807                 6.3550                 6.3844
 IR Inten    --     34.8173                10.7698                17.4015

                    100                    101                    102
                      A                      A                      A
 Frequencies --   3150.2062              3162.8913              3165.1567
 Red. masses --      1.0997                 1.0881                 1.0895
 Frc consts  --      6.4301                 6.4132                 6.4311
 IR Inten    --     12.6387                11.0494                 4.9334

                    103                    104                    105
                      A                      A                      A
 Frequencies --   3224.0615              3558.7959              3738.7816
 Red. masses --      1.0935                 1.0746                 1.0656
 Frc consts  --      6.6967                 8.0185                 8.7760
 IR Inten    --     10.1389                44.2042                 8.9862

 - Thermochemistry -
 -------------------
 Temperature   298.150 Kelvin.  Pressure   1.00000 Atm.
 Atom     1 has atomic number  6 and mass  12.00000

 Molecular mass:   269.11980 amu.
 Principal axes and moments of inertia in atomic units:
                           1         2         3
     Eigenvalues --  3112.355826613.568628421.38373
           X            0.99983  -0.01774  -0.00554
           Y            0.01774   0.99984  -0.00053
           Z            0.00555   0.00043   0.99998
 This molecule is an asymmetric top.
 Rotational symmetry number  1.
 Warning -- assumption of classical behavior for rotation
           may cause significant error
 Rotational temperatures (Kelvin)      0.02783     0.01310     0.01028
 Rotational constants (GHZ):           0.57986     0.27288     0.21430
 Zero-point vibrational energy     818652.9 (Joules/Mol)
                                  195.66274 (Kcal/Mol)
 Warning -- explicit consideration of  30 degrees of freedom as
           vibrations may cause significant error
 Vibrational temperatures:     26.90    50.90   101.54   117.02   142.03
          (Kelvin)            186.33   208.72   230.37   252.62   327.92
                              339.76   355.27   390.19   395.64   416.03
                              439.61   462.68   477.31   498.94   512.24
                              536.40   562.28   624.50   672.05   721.45
                              737.76   748.64   758.93   859.30   871.00
                              897.98   968.13   974.64  1038.28  1068.41
                             1109.15  1159.42  1236.64  1250.12  1281.73
                             1302.34  1360.56  1390.07  1415.74  1438.77
                             1462.42  1489.73  1523.96  1539.98  1545.53
                             1590.40  1616.03  1674.16  1710.80  1717.25
                             1732.73  1764.95  1796.67  1811.12  1818.62
                             1869.53  1884.79  1908.35  1929.03  1966.95
                             2008.37  2018.18  2048.28  2051.86  2077.35
                             2079.40  2081.08  2095.86  2112.79  2167.58
                             2174.10  2182.82  2183.99  2189.10  2197.08
                             2208.30  2219.78  2220.67  2254.85  2313.53
                             2578.55  4290.82  4309.59  4371.43  4380.70
                             4385.09  4390.25  4395.34  4461.42  4462.75
                             4467.00  4480.80  4502.70  4516.49  4532.44
                             4550.70  4553.95  4638.71  5120.31  5379.27

 Zero-point correction=                           0.311808 (Hartree/Particle)
 Thermal correction to Energy=                    0.330023
 Thermal correction to Enthalpy=                  0.330967
 Thermal correction to Gibbs Free Energy=         0.265296
 Sum of electronic and zero-point Energies=          -1181.387799
 Sum of electronic and thermal Energies=             -1181.369585
 Sum of electronic and thermal Enthalpies=           -1181.368641
 Sum of electronic and thermal Free Energies=        -1181.434312

                     E (Thermal)             CV                S
                      KCal/Mol        Cal/Mol-Kelvin    Cal/Mol-Kelvin
 Total                  207.092             69.954            138.217
 Electronic               0.000              0.000              0.000
 Translational            0.889              2.981             42.669
 Rotational               0.889              2.981             33.516
 Vibrational            205.315             63.992             62.032
 Vibration     1          0.593              1.986              6.768
 Vibration     2          0.594              1.982              5.502
 Vibration     3          0.598              1.968              4.137
 Vibration     4          0.600              1.962              3.858
 Vibration     5          0.604              1.950              3.479
 Vibration     6          0.612              1.924              2.953
 Vibration     7          0.616              1.908              2.736
 Vibration     8          0.622              1.891              2.548
 Vibration     9          0.628              1.872              2.375
 Vibration    10          0.651              1.798              1.895
 Vibration    11          0.655              1.785              1.832
 Vibration    12          0.661              1.768              1.752
 Vibration    13          0.675              1.726              1.589
 Vibration    14          0.677              1.720              1.565
 Vibration    15          0.686              1.694              1.479
 Vibration    16          0.696              1.663              1.386
 Vibration    17          0.707              1.632              1.302
 Vibration    18          0.714              1.612              1.252
 Vibration    19          0.725              1.582              1.181
 Vibration    20          0.732              1.563              1.139
 Vibration    21          0.744              1.528              1.068
 Vibration    22          0.758              1.490              0.997
 Vibration    23          0.795              1.396              0.846
 Vibration    24          0.824              1.323              0.746
 Vibration    25          0.857              1.247              0.655
 Vibration    26          0.868              1.222              0.627
 Vibration    27          0.875              1.205              0.609
 Vibration    28          0.882              1.189              0.593
 Vibration    29          0.955              1.038              0.454
 Vibration    30          0.964              1.020              0.441

 Optimization completed.
    -- Stationary point found.
 Normal termination of Gaussian 16 at Fri Dec 11 23:20:10 2020.

 ----------------------------------------------------------------------
 # B3LYP/6-311++G(d,p) empiricaldispersion=gd3bj scf=xqc pop=npa geom=c
 heck
 ----------------------------------------------------------------------

 ---------------------------------------
 CID_127993188_JID_8846_Energie_neutraal
 ---------------------------------------
 Structure from the checkpoint file:  "JID_8846.chk"
 Charge =  0 Multiplicity = 1

 SCF Done:  E(RB3LYP) =  -1181.95509376     A.U. after   15 cycles
 Normal termination of Gaussian 16 at Fri Dec 11 23:29:29 2020.

 ----------------------------------------------------------------------
 # B3LYP/6-311++G(d,p) empiricaldispersion=gd3bj scf=xqc pop=npa geom=c
 heck
 ----------------------------------------------------------------------

 -------------------------------------
 CID_127993188_JID_8846_Energie_kation
 -------------------------------------
 Structure from the checkpoint file:  "JID_8846.chk"
 Charge =  1 Multiplicity = 2

 SCF Done:  E(UB3LYP) =  -1181.65532870     A.U. after   29 cycles
 Normal termination of Gaussian 16 at Fri Dec 11 23:54:14 2020.
 Gaussian 16:  ES64L-G16RevA.03 25-Dec-2016

 ----------------------------------------------------------------------
 # B3LYP/6-311++G(d,p) empiricaldispersion=gd3bj scf=xqc pop=npa geom=c
 heck
 ----------------------------------------------------------------------

 ------------------------------------
 CID_127993188_JID_8846_Energie_anion
 ------------------------------------
 Structure from the checkpoint file:  "JID_8846.chk"
 Charge = -1 Multiplicity = 2

                         Standard orientation:
 ---------------------------------------------------------------------
 Center     Atomic      Atomic             Coordinates (Angstroms)
 Number     Number       Type             X           Y           Z
 ---------------------------------------------------------------------
      1          6           0        4.469195   -1.926075   -0.345701
      2          6           0        3.374316   -0.908024   -0.387286
      3          6           0        2.486487   -0.648602   -1.391864
      4          7           0        1.603360    0.392677   -1.200956
      5          6           0        1.783332    0.942736   -0.038977
      6         16           0        3.064011    0.203606    0.932176
      7          7           0        1.042892    1.997676    0.497471
      8          6           0       -0.284415    2.295949    0.087738
      9          8           0       -0.575539    3.444007   -0.216082
     10          7           0       -1.175955    1.253831    0.110684
     11          6           0       -2.549275    1.569383   -0.283371
     12          6           0       -3.221364    0.336994   -0.885916
     13          6           0       -3.139477   -0.865399    0.056319
     14          6           0       -1.678405   -1.171324    0.480780
     15          6           0       -1.068110    0.128495    1.042702
     16          6           0       -0.846038   -1.686055   -0.702926
     17          6           0       -1.688377   -2.225015    1.596740
     18          8           0       -3.808274   -2.002969   -0.481516
     19          1           0        4.348399   -2.625076    0.490177
     20          1           0        4.463897   -2.506297   -1.273694
     21          1           0        5.455886   -1.458545   -0.245611
     22          1           0        2.453528   -1.196314   -2.327348
     23          1           0        1.557860    2.866412    0.600830
     24          1           0       -3.116221    1.913835    0.597189
     25          1           0       -2.515804    2.397982   -0.989632
     26          1           0       -2.738459    0.093473   -1.841452
     27          1           0       -4.273765    0.555674   -1.097555
     28          1           0       -3.702281   -0.627442    0.968929
     29          1           0       -0.023675   -0.038733    1.302565
     30          1           0       -1.595688    0.393793    1.974587
     31          1           0        0.149266   -1.989072   -0.362048
     32          1           0       -1.315751   -2.568337   -1.153510
     33          1           0       -0.701229   -0.920691   -1.468886
     34          1           0       -2.239953   -1.868669    2.475373
     35          1           0       -2.174070   -3.139617    1.245746
     36          1           0       -0.667989   -2.471361    1.913449
     37          1           0       -3.436920   -2.164666   -1.362953
 ---------------------------------------------------------------------

 SCF Done:  E(UB3LYP) =  -1181.94989155     A.U. after   33 cycles
 SCF Done:  E(UB3LYP) =  -1181.94989155     a.u. after    1 cycles

 The electronic state is 2-A.
 Alpha  occ. eigenvalues --  -88.75416 -19.03129 -18.98320 -14.23622 -14.23289
 Alpha  occ. eigenvalues --  -14.18444 -10.18994 -10.13056 -10.12676 -10.10739
 Alpha  occ. eigenvalues --  -10.10462 -10.08628 -10.07970 -10.07835 -10.07657
 Alpha  occ. eigenvalues --  -10.07267 -10.05932 -10.05033  -7.84055  -5.80327
 Alpha  occ. eigenvalues --   -5.80004  -5.79648  -0.95067  -0.93456  -0.86036
 Alpha  occ. eigenvalues --   -0.84098  -0.79619  -0.72075  -0.69205  -0.68323
 Alpha  occ. eigenvalues --   -0.63317  -0.60032  -0.58784  -0.58520  -0.57378
 Alpha  occ. eigenvalues --   -0.53119  -0.49135  -0.46797  -0.46059  -0.44948
 Alpha  occ. eigenvalues --   -0.41301  -0.39992  -0.38530  -0.37697  -0.37048
 Alpha  occ. eigenvalues --   -0.35676  -0.35315  -0.34173  -0.32796  -0.32591
 Alpha  occ. eigenvalues --   -0.32451  -0.31591  -0.30075  -0.29826  -0.28995
 Alpha  occ. eigenvalues --   -0.28891  -0.28072  -0.27659  -0.27293  -0.26401
 Alpha  occ. eigenvalues --   -0.25723  -0.24311  -0.23915  -0.23657  -0.21754
 Alpha  occ. eigenvalues --   -0.19611  -0.17991  -0.16930  -0.16258  -0.15492
 Alpha  occ. eigenvalues --   -0.14396  -0.11333   0.04441
 Alpha virt. eigenvalues --    0.06698   0.06863   0.07308   0.08131   0.09063
 Alpha virt. eigenvalues --    0.09195   0.10067   0.10369   0.10507   0.10945
 Alpha virt. eigenvalues --    0.11259   0.11835   0.12501   0.12765   0.13051

  Beta  occ. eigenvalues --  -88.75395 -19.03113 -18.98272 -14.23624 -14.23329
  Beta  occ. eigenvalues --  -14.18377 -10.18924 -10.12729 -10.12669 -10.10736
  Beta  occ. eigenvalues --  -10.10453 -10.08628 -10.07824 -10.07749 -10.07662
  Beta  occ. eigenvalues --  -10.07260 -10.05913 -10.05003  -7.84035  -5.80321
  Beta  occ. eigenvalues --   -5.80000  -5.79572  -0.94967  -0.93422  -0.85780
  Beta  occ. eigenvalues --   -0.84045  -0.79517  -0.72054  -0.68927  -0.68298
  Beta  occ. eigenvalues --   -0.63107  -0.60001  -0.58741  -0.58381  -0.57312
  Beta  occ. eigenvalues --   -0.53060  -0.48935  -0.46656  -0.46021  -0.44732
  Beta  occ. eigenvalues --   -0.41179  -0.39918  -0.38370  -0.37637  -0.37021
  Beta  occ. eigenvalues --   -0.35637  -0.35239  -0.34072  -0.32645  -0.32409
  Beta  occ. eigenvalues --   -0.32331  -0.31398  -0.29982  -0.29727  -0.28907
  Beta  occ. eigenvalues --   -0.28811  -0.27975  -0.27561  -0.26965  -0.26320
  Beta  occ. eigenvalues --   -0.25612  -0.24282  -0.23885  -0.23479  -0.21729
  Beta  occ. eigenvalues --   -0.19419  -0.17967  -0.16769  -0.15783  -0.15326
  Beta  occ. eigenvalues --   -0.14265  -0.10468
  Beta virt. eigenvalues --    0.06657   0.07230   0.07604   0.08132   0.08532
  Beta virt. eigenvalues --    0.09303   0.09504   0.10154   0.10497   0.10723
  Beta virt. eigenvalues --    0.11259   0.11445   0.11963   0.12630   0.12838

 Mulliken charges and spin densities:
               1          2
     1  C    0.712656  -1.215285
     2  C   -0.426459   0.664688
     3  C   -0.576328   0.053746
     4  N   -0.015349   0.041642
     5  C   -0.139231   0.252223
     6  S    0.127329  -0.012472
     7  N   -0.256732  -0.008011
     8  C    0.231943   0.015309
     9  O   -0.354780   0.020819
    10  N    0.201325   0.054082
    11  C   -0.197791  -0.060608
    12  C   -0.181106  -0.055474
    13  C    0.030499  -0.461000
    14  C   -0.675187   1.420854
    15  C   -0.530776  -0.764590
    16  C    0.133206  -0.858114
    17  C    0.071148  -0.474035
    18  O   -0.155933  -0.000165
    19  H   -0.368201   0.541796
    20  H   -0.054400   0.201978
    21  H    0.129623   0.005216
    22  H    0.026580   0.107650
    23  H    0.284766   0.049397
    24  H    0.098898   0.039037
    25  H    0.170322   0.033161
    26  H    0.142956   0.028111
    27  H   -0.052534   0.236441
    28  H    0.073721   0.130105
    29  H    0.153205   0.008013
    30  H    0.120153   0.081980
    31  H    0.337196  -0.134883
    32  H   -0.210366   0.331276
    33  H    0.186467  -0.004682
    34  H   -0.020748   0.140072
    35  H    0.091229   0.091131
    36  H   -0.196644   0.348107
    37  H    0.089345   0.152491
 Sum of Mulliken charges =  -1.00000   1.00000

 Dipole moment (field-independent basis, Debye):
    X=             -1.3709    Y=              2.0195    Z=             -0.4678  Tot=              2.4853
 Quadrupole moment (field-independent basis, Debye-Ang):
   XX=           -173.3723   YY=           -170.1781   ZZ=           -140.0704
   XY=              4.4661   XZ=             -2.6615   YZ=              7.4318

 Summary of Natural Population Analysis:

                                       Natural Population
                Natural  -----------------------------------------------
    Atom  No    Charge         Core      Valence    Rydberg      Total
 -----------------------------------------------------------------------
      C    1   -0.29871      0.99961     2.29268    0.00642     3.29871
      C    2   -0.07673      0.99950     2.06634    0.01089     3.07673
      C    3   -0.03565      0.99945     2.02041    0.01579     3.03565
      N    4   -0.24841      0.99963     2.73835    0.01042     3.74841
      C    5    0.16245      0.99961     1.81749    0.02045     2.83755
      S    6    0.16976      4.99940     2.81184    0.01900     7.83024
      N    7   -0.34842      0.99963     2.83933    0.00945     3.84842
      C    8    0.43088      0.99967     1.54483    0.02463     2.56912
      O    9   -0.33061      0.99987     3.32595    0.00478     4.33061
      N   10   -0.26493      0.99962     2.75587    0.00944     3.76493
      C   11   -0.08126      0.99962     2.07255    0.00909     3.08126
      C   12   -0.20705      0.99960     2.19796    0.00949     3.20705
      C   13    0.06961      0.99947     1.91594    0.01499     2.93039
      C   14   -0.05693      0.99955     2.04448    0.01291     3.05693
      C   15   -0.08203      0.99955     2.07018    0.01231     3.08203
      C   16   -0.29704      0.99962     2.28821    0.00922     3.29704
      C   17   -0.28491      0.99963     2.27905    0.00624     3.28491
      O   18   -0.37165      0.99990     3.36506    0.00669     4.37165
      H   19    0.10936      0.00000     0.38777    0.00287     0.39064
      H   20    0.10449      0.00000     0.39466    0.00086     0.39551
      H   21    0.10013      0.00000     0.39899    0.00088     0.39987
      H   22    0.09485      0.00000     0.40410    0.00106     0.40515
      H   23    0.20040      0.00000     0.29800    0.00160     0.29960
      H   24    0.08644      0.00000     0.41236    0.00120     0.41356
      H   25    0.11457      0.00000     0.38439    0.00104     0.38543
      H   26    0.09908      0.00000     0.39964    0.00128     0.40092
      H   27    0.10295      0.00000     0.39608    0.00097     0.39705
      H   28    0.08512      0.00000     0.41314    0.00174     0.41488
      H   29    0.11521      0.00000     0.38313    0.00166     0.38479
      H   30    0.08898      0.00000     0.40989    0.00114     0.41102
      H   31    0.10954      0.00000     0.38913    0.00133     0.39046
      H   32    0.09422      0.00000     0.40461    0.00117     0.40578
      H   33    0.11213      0.00000     0.38644    0.00143     0.38787
      H   34    0.09673      0.00000     0.40234    0.00093     0.40327
      H   35    0.10758      0.00000     0.39136    0.00106     0.39242
      H   36    0.10260      0.00000     0.39634    0.00106     0.39740
      H   37    0.22727      0.00000     0.26974    0.00299     0.27273
 =======================================================================
   * Total *   -0.00000     21.99293    49.76863    0.23845    72.00000

 Normal termination of Gaussian 16 at Sat Dec 12 00:22:05 2020.
