 Gaussian 16, Revision A.03,

 -----------------------------------------------------------
 # opt freq B3LYP/6-31G(d) empiricaldispersion=gd3bj scf=xqc
 -----------------------------------------------------------

 -------------------------------
 CID_103872915_JID_7258_neutraal
 -------------------------------
 Symbolic Z-matrix:
 Charge =  0 Multiplicity = 1

 SCF Done:  E(RB3LYP) =  -748.761435261     A.U. after   15 cycles
 SCF Done:  E(RB3LYP) =  -748.764985119     A.U. after   12 cycles
 SCF Done:  E(RB3LYP) =  -748.765200004     A.U. after   13 cycles
 SCF Done:  E(RB3LYP) =  -748.765954467     A.U. after   12 cycles
 SCF Done:  E(RB3LYP) =  -748.766284412     A.U. after   12 cycles
 SCF Done:  E(RB3LYP) =  -748.766706103     A.U. after   13 cycles
 SCF Done:  E(RB3LYP) =  -748.766012154     A.U. after   13 cycles
 SCF Done:  E(RB3LYP) =  -748.767201102     A.U. after   13 cycles
 SCF Done:  E(RB3LYP) =  -748.767783405     A.U. after   12 cycles
 SCF Done:  E(RB3LYP) =  -748.768111948     A.U. after   11 cycles
 SCF Done:  E(RB3LYP) =  -748.768270040     A.U. after    7 cycles
 SCF Done:  E(RB3LYP) =  -748.768270166     A.U. after    7 cycles
 SCF Done:  E(RB3LYP) =  -748.768270246     A.U. after    6 cycles
 SCF Done:  E(RB3LYP) =  -748.768270250     A.U. after    6 cycles
 SCF Done:  E(RB3LYP) =  -748.768270254     A.U. after    6 cycles
 Optimization completed.
    -- Stationary point found.
 Normal termination of Gaussian 16 at Sun Dec 13 20:24:06 2020.

 --------------------------------------------------------------------
 #N Geom=AllCheck Guess=TCheck SCRF=Check GenChk RB3LYP/6-31G(d) Freq
 --------------------------------------------------------------------

 Structure from the checkpoint file:  "JID_7258.chk"
 -------------------------------
 CID_103872915_JID_7258_neutraal
 -------------------------------
 Charge =  0 Multiplicity = 1

 SCF Done:  E(RB3LYP) =  -748.768270254     A.U. after    1 cycles

  Exact polarizability: 145.051  -4.763 166.452  -3.410  -6.299 135.326
 Approx polarizability: 195.018  -6.086 229.327  -3.787  -6.087 228.932

                      1                      2                      3
                      A                      A                      A
 Frequencies --     19.7410                39.1246                55.4067
 Red. masses --      3.5653                 6.8495                 3.8647
 Frc consts  --      0.0008                 0.0062                 0.0070
 IR Inten    --      0.0411                 1.1399                 0.0753

                      4                      5                      6
                      A                      A                      A
 Frequencies --     60.7501               108.1324               118.7283
 Red. masses --      4.2589                 3.1526                 3.1918
 Frc consts  --      0.0093                 0.0217                 0.0265
 IR Inten    --      0.0680                 0.0334                 0.1947

                      7                      8                      9
                      A                      A                      A
 Frequencies --    134.5450               145.4315               188.8258
 Red. masses --      1.1290                 2.6117                 2.9011
 Frc consts  --      0.0120                 0.0325                 0.0609
 IR Inten    --      0.1493                 1.0408                 2.2829

                     10                     11                     12
                      A                      A                      A
 Frequencies --    227.8600               240.2013               250.6899
 Red. masses --      2.2826                 2.8627                 1.1449
 Frc consts  --      0.0698                 0.0973                 0.0424
 IR Inten    --      2.4554                 2.6953                 0.2448

                     13                     14                     15
                      A                      A                      A
 Frequencies --    270.3331               278.1722               304.1259
 Red. masses --      2.0197                 2.4808                 2.3069
 Frc consts  --      0.0870                 0.1131                 0.1257
 IR Inten    --      1.9015                 3.4432                 0.2359

                     16                     17                     18
                      A                      A                      A
 Frequencies --    321.8663               356.5326               372.9171
 Red. masses --      2.7796                 3.2746                 2.4178
 Frc consts  --      0.1697                 0.2452                 0.1981
 IR Inten    --      1.8020                 0.4981                 0.9776

                     19                     20                     21
                      A                      A                      A
 Frequencies --    403.1082               428.7662               439.0700
 Red. masses --      3.0196                 2.2646                 2.2550
 Frc consts  --      0.2891                 0.2453                 0.2561
 IR Inten    --      0.4646                 0.1883                 0.3731

                     22                     23                     24
                      A                      A                      A
 Frequencies --    476.5975               499.2575               540.8023
 Red. masses --      2.7751                 3.0778                 3.2021
 Frc consts  --      0.3714                 0.4520                 0.5518
 IR Inten    --      0.3962                 1.6674                 0.9607

                     25                     26                     27
                      A                      A                      A
 Frequencies --    640.8390               654.4800               662.3835
 Red. masses --      3.1796                 2.8134                 3.3750
 Frc consts  --      0.7693                 0.7100                 0.8725
 IR Inten    --      2.8796                 0.3929                 3.5286

                     28                     29                     30
                      A                      A                      A
 Frequencies --    707.4963               745.0360               780.5760
 Red. masses --      3.8539                 3.1959                 2.4911
 Frc consts  --      1.1366                 1.0452                 0.8943
 IR Inten    --      3.9287                13.7382                 0.8135

                     31                     32                     33
                      A                      A                      A
 Frequencies --    802.1858               810.8819               832.5686
 Red. masses --      1.5207                 2.0482                 1.6368
 Frc consts  --      0.5766                 0.7935                 0.6685
 IR Inten    --      3.2090                15.6879                74.9550

                     34                     35                     36
                      A                      A                      A
 Frequencies --    858.7654               887.7034               914.6429
 Red. masses --      2.3724                 2.2046                12.0145
 Frc consts  --      1.0308                 1.0236                 5.9219
 IR Inten    --      6.8670                 2.3877                 7.5547

                     37                     38                     39
                      A                      A                      A
 Frequencies --    941.9008               943.3243               960.7707
 Red. masses --      1.6264                 2.0465                 1.4145
 Frc consts  --      0.8502                 1.0730                 0.7693
 IR Inten    --      2.9579                13.4914                 2.6092

                     40                     41                     42
                      A                      A                      A
 Frequencies --    971.0937               988.6772               999.1178
 Red. masses --      1.9532                 2.1679                 1.7311
 Frc consts  --      1.0852                 1.2485                 1.0182
 IR Inten    --     12.3737                 4.9559                 1.0316

                     43                     44                     45
                      A                      A                      A
 Frequencies --   1003.3951              1010.7921              1040.0370
 Red. masses --      2.3400                 1.9250                 2.1354
 Frc consts  --      1.3881                 1.1588                 1.3609
 IR Inten    --      3.6265                 3.3851                 3.6684

                     46                     47                     48
                      A                      A                      A
 Frequencies --   1055.3076              1061.0766              1068.0248
 Red. masses --      2.4925                 1.8927                 3.9574
 Frc consts  --      1.6355                 1.2555                 2.6596
 IR Inten    --      4.2373                 3.8375                 2.4869

                     49                     50                     51
                      A                      A                      A
 Frequencies --   1085.2601              1096.1968              1111.6443
 Red. masses --      1.5562                 2.1787                 1.8323
 Frc consts  --      1.0799                 1.5425                 1.3341
 IR Inten    --      6.2762                 1.9180                 1.2293

                     52                     53                     54
                      A                      A                      A
 Frequencies --   1121.9331              1135.1529              1165.6510
 Red. masses --      1.6722                 1.3942                 2.3357
 Frc consts  --      1.2402                 1.0585                 1.8699
 IR Inten    --      4.7979                 0.8209                43.8189

                     55                     56                     57
                      A                      A                      A
 Frequencies --   1181.9707              1191.8297              1232.5345
 Red. masses --      1.8849                 2.1096                 1.9093
 Frc consts  --      1.5515                 1.7655                 1.7089
 IR Inten    --     16.0684                 1.0561                12.6335

                     58                     59                     60
                      A                      A                      A
 Frequencies --   1241.9239              1251.2492              1273.5946
 Red. masses --      1.5098                 1.3020                 1.6476
 Frc consts  --      1.3720                 1.2010                 1.5746
 IR Inten    --      0.6347                 3.2245                 0.9352

                     61                     62                     63
                      A                      A                      A
 Frequencies --   1290.8488              1304.5839              1329.8505
 Red. masses --      1.4599                 1.2665                 1.3576
 Frc consts  --      1.4332                 1.2700                 1.4146
 IR Inten    --      5.4268                 2.4188                 1.3802

                     64                     65                     66
                      A                      A                      A
 Frequencies --   1344.6775              1350.6248              1358.4355
 Red. masses --      1.4145                 1.2795                 1.3719
 Frc consts  --      1.5069                 1.3752                 1.4916
 IR Inten    --      3.9994                 4.4249                 1.2395

                     67                     68                     69
                      A                      A                      A
 Frequencies --   1371.1836              1381.6072              1399.1980
 Red. masses --      2.3408                 1.4417                 1.4493
 Frc consts  --      2.5930                 1.6214                 1.6717
 IR Inten    --     61.3749                 7.5117                 2.7032

                     70                     71                     72
                      A                      A                      A
 Frequencies --   1401.2129              1402.0401              1407.9703
 Red. masses --      1.3405                 1.3937                 1.4419
 Frc consts  --      1.5507                 1.6141                 1.6842
 IR Inten    --      9.8741                 4.2662                13.1788

                     73                     74                     75
                      A                      A                      A
 Frequencies --   1413.3054              1424.3469              1443.3449
 Red. masses --      1.5818                 1.5761                 1.2397
 Frc consts  --      1.8616                 1.8840                 1.5217
 IR Inten    --      8.3816                 0.9074                 5.0848

                     76                     77                     78
                      A                      A                      A
 Frequencies --   1447.6841              1450.4105              1499.8862
 Red. masses --      1.5053                 1.4348                 1.1584
 Frc consts  --      1.8587                 1.7784                 1.5354
 IR Inten    --     26.4076                11.3150                24.0986

                     79                     80                     81
                      A                      A                      A
 Frequencies --   1501.3878              1504.6678              1511.1910
 Red. masses --      1.1331                 1.0543                 1.0995
 Frc consts  --      1.5049                 1.4063                 1.4793
 IR Inten    --      1.6780                10.2367                 0.5850

                     82                     83                     84
                      A                      A                      A
 Frequencies --   1514.0836              1520.5682              1524.8572
 Red. masses --      1.1023                 1.0977                 1.1068
 Frc consts  --      1.4889                 1.4954                 1.5163
 IR Inten    --      6.1559                 0.8792                13.4245

                     85                     86                     87
                      A                      A                      A
 Frequencies --   1528.4629              1533.2613              1535.3692
 Red. masses --      1.0608                 1.0964                 1.0587
 Frc consts  --      1.4601                 1.5186                 1.4705
 IR Inten    --     16.6065                 5.9515                 5.4713

                     88                     89                     90
                      A                      A                      A
 Frequencies --   1548.0582              1554.4848              1580.3552
 Red. masses --      1.0894                 1.1231                 5.5702
 Frc consts  --      1.5382                 1.5989                 8.1966
 IR Inten    --      4.4993                14.6043                 4.2719

                     91                     92                     93
                      A                      A                      A
 Frequencies --   1632.0685              2979.7547              2994.4398
 Red. masses --      7.2655                 1.0684                 1.0825
 Frc consts  --     11.4024                 5.5893                 5.7186
 IR Inten    --     69.7540                39.5177                19.3849

                     94                     95                     96
                      A                      A                      A
 Frequencies --   3026.5338              3029.9172              3033.0208
 Red. masses --      1.0622                 1.0693                 1.0593
 Frc consts  --      5.7325                 5.7836                 5.7412
 IR Inten    --     21.4617                 9.5830                28.9596

                     97                     98                     99
                      A                      A                      A
 Frequencies --   3035.2467              3038.5536              3042.6099
 Red. masses --      1.0527                 1.0681                 1.0678
 Frc consts  --      5.7139                 5.8103                 5.8242
 IR Inten    --     23.2772                29.0350                46.9193

                    100                    101                    102
                      A                      A                      A
 Frequencies --   3051.8489              3055.4649              3060.9692
 Red. masses --      1.0655                 1.0877                 1.0671
 Frc consts  --      5.8470                 5.9829                 5.8907
 IR Inten    --     15.9704                88.7699                34.8592

                    103                    104                    105
                      A                      A                      A
 Frequencies --   3062.2432              3069.0585              3072.7428
 Red. masses --      1.0979                 1.0367                 1.1032
 Frc consts  --      6.0661                 5.7530                 6.1369
 IR Inten    --     61.8158                 7.1845                47.2556

                    106                    107                    108
                      A                      A                      A
 Frequencies --   3076.8355              3085.8664              3103.0404
 Red. masses --      1.0942                 1.0979                 1.1020
 Frc consts  --      6.1030                 6.1599                 6.2517
 IR Inten    --     28.6239                67.5938                40.3265

                    109                    110                    111
                      A                      A                      A
 Frequencies --   3104.3633              3107.3840              3122.8058
 Red. masses --      1.0991                 1.1023                 1.0983
 Frc consts  --      6.2407                 6.2709                 6.3102
 IR Inten    --      2.9663                51.5254                24.3284

                    112                    113                    114
                      A                      A                      A
 Frequencies --   3129.9274              3166.1401              3515.2529
 Red. masses --      1.1014                 1.1025                 1.0729
 Frc consts  --      6.3569                 6.5119                 7.8112
 IR Inten    --      8.0224                 4.8107                 1.1892

 - Thermochemistry -
 -------------------
 Temperature   298.150 Kelvin.  Pressure   1.00000 Atm.
 Atom     1 has atomic number  6 and mass  12.00000

 Molecular mass:   237.18411 amu.
 Principal axes and moments of inertia in atomic units:
                           1         2         3
     Eigenvalues --  3227.673484321.011516001.85522
           X            0.99897  -0.04289  -0.01450
           Y            0.04255   0.99884  -0.02273
           Z            0.01546   0.02209   0.99964
 This molecule is an asymmetric top.
 Rotational symmetry number  1.
 Warning -- assumption of classical behavior for rotation
           may cause significant error
 Rotational temperatures (Kelvin)      0.02683     0.02004     0.01443
 Rotational constants (GHZ):           0.55915     0.41767     0.30070
 Zero-point vibrational energy     943166.0 (Joules/Mol)
                                  225.42210 (Kcal/Mol)
 Warning -- explicit consideration of  24 degrees of freedom as
           vibrations may cause significant error
 Vibrational temperatures:     28.40    56.29    79.72    87.41   155.58
          (Kelvin)            170.82   193.58   209.24   271.68   327.84
                              345.60   360.69   388.95   400.23   437.57
                              463.09   512.97   536.54   579.98   616.90
                              631.72   685.72   718.32   778.09   922.02
                              941.65   953.02  1017.93  1071.94  1123.07
                             1154.17  1166.68  1197.88  1235.57  1277.21
                             1315.97  1355.19  1357.23  1382.33  1397.19
                             1422.49  1437.51  1443.66  1454.30  1496.38
                             1518.35  1526.65  1536.65  1561.45  1577.18
                             1599.41  1614.21  1633.23  1677.11  1700.59
                             1714.78  1773.34  1786.85  1800.27  1832.42
                             1857.24  1877.01  1913.36  1934.69  1943.25
                             1954.49  1972.83  1987.82  2013.13  2016.03
                             2017.22  2025.76  2033.43  2049.32  2076.65
                             2082.89  2086.82  2158.00  2160.16  2164.88
                             2174.27  2178.43  2187.76  2193.93  2199.12
                             2206.02  2209.05  2227.31  2236.56  2273.78
                             2348.18  4287.20  4308.33  4354.51  4359.38
                             4363.84  4367.04  4371.80  4377.64  4390.93
                             4396.13  4404.05  4405.88  4415.69  4420.99
                             4426.88  4439.87  4464.58  4466.49  4470.83
                             4493.02  4503.27  4555.37  5057.66

 Zero-point correction=                           0.359233 (Hartree/Particle)
 Thermal correction to Energy=                    0.376165
 Thermal correction to Enthalpy=                  0.377109
 Thermal correction to Gibbs Free Energy=         0.313681
 Sum of electronic and zero-point Energies=           -748.409037
 Sum of electronic and thermal Energies=              -748.392105
 Sum of electronic and thermal Enthalpies=            -748.391161
 Sum of electronic and thermal Free Energies=         -748.454590

                     E (Thermal)             CV                S
                      KCal/Mol        Cal/Mol-Kelvin    Cal/Mol-Kelvin
 Total                  236.047             65.102            133.496
 Electronic               0.000              0.000              0.000
 Translational            0.889              2.981             42.292
 Rotational               0.889              2.981             32.793
 Vibrational            234.270             59.140             58.411
 Vibration     1          0.593              1.986              6.660
 Vibration     2          0.594              1.981              5.303
 Vibration     3          0.596              1.975              4.614
 Vibration     4          0.597              1.973              4.433
 Vibration     5          0.606              1.943              3.302
 Vibration     6          0.609              1.934              3.121
 Vibration     7          0.613              1.919              2.880
 Vibration     8          0.617              1.908              2.731
 Vibration     9          0.633              1.855              2.239
 Vibration    10          0.651              1.799              1.896
 Vibration    11          0.657              1.779              1.801
 Vibration    12          0.663              1.762              1.726
 Vibration    13          0.674              1.728              1.594
 Vibration    14          0.679              1.714              1.545
 Vibration    15          0.695              1.666              1.394
 Vibration    16          0.707              1.632              1.301
 Vibration    17          0.732              1.562              1.137
 Vibration    18          0.744              1.528              1.068
 Vibration    19          0.769              1.463              0.951
 Vibration    20          0.790              1.408              0.863
 Vibration    21          0.799              1.385              0.830
 Vibration    22          0.833              1.302              0.719
 Vibration    23          0.855              1.252              0.660
 Vibration    24          0.896              1.160              0.564

 Optimization completed.
    -- Stationary point found.
 Normal termination of Gaussian 16 at Sun Dec 13 20:42:13 2020.

 ----------------------------------------------------------------------
 # B3LYP/6-311++G(d,p) empiricaldispersion=gd3bj scf=xqc pop=npa geom=c
 heck
 ----------------------------------------------------------------------

 ---------------------------------------
 CID_103872915_JID_7258_Energie_neutraal
 ---------------------------------------
 Structure from the checkpoint file:  "JID_7258.chk"
 Charge =  0 Multiplicity = 1

 SCF Done:  E(RB3LYP) =  -748.971368813     A.U. after   14 cycles
 Normal termination of Gaussian 16 at Sun Dec 13 20:51:24 2020.

 ----------------------------------------------------------------------
 # B3LYP/6-311++G(d,p) empiricaldispersion=gd3bj scf=xqc pop=npa geom=c
 heck
 ----------------------------------------------------------------------

 -------------------------------------
 CID_103872915_JID_7258_Energie_kation
 -------------------------------------
 Structure from the checkpoint file:  "JID_7258.chk"
 Charge =  1 Multiplicity = 2

 SCF Done:  E(UB3LYP) =  -748.662754764     A.U. after   25 cycles
 Normal termination of Gaussian 16 at Sun Dec 13 21:14:51 2020.
 Gaussian 16:  ES64L-G16RevA.03 25-Dec-2016

 ----------------------------------------------------------------------
 # B3LYP/6-311++G(d,p) empiricaldispersion=gd3bj scf=xqc pop=npa geom=c
 heck
 ----------------------------------------------------------------------

 ------------------------------------
 CID_103872915_JID_7258_Energie_anion
 ------------------------------------
 Structure from the checkpoint file:  "JID_7258.chk"
 Charge = -1 Multiplicity = 2

                         Standard orientation:
 ---------------------------------------------------------------------
 Center     Atomic      Atomic             Coordinates (Angstroms)
 Number     Number       Type             X           Y           Z
 ---------------------------------------------------------------------
      1          6           0        1.966868   -2.711286   -0.668143
      2          6           0        2.430200   -1.374063   -0.084160
      3          6           0        2.601759   -0.310873   -1.182551
      4          6           0        2.971119    1.072654   -0.619771
      5          6           0        1.988579    1.561770    0.463574
      6          6           0        1.875400    0.487158    1.561231
      7          6           0        1.460519   -0.877088    0.999723
      8          6           0        0.637941    1.939854   -0.168772
      9          7           0       -0.382221    2.254997    0.828091
     10          6           0       -1.650431    2.695076    0.268430
     11          6           0       -2.266976    1.808705   -0.852995
     12          6           0       -2.210770    0.356922   -0.525307
     13          7           0       -2.284450   -0.218509    0.642954
     14          6           0       -2.111652   -1.556486    0.335718
     15          7           0       -1.938340   -1.800859   -0.939804
     16          8           0       -2.002101   -0.517249   -1.526445
     17          6           0       -2.087552   -2.632413    1.365421
     18          1           0        0.972200   -2.612110   -1.120746
     19          1           0        2.655872   -3.070598   -1.441747
     20          1           0        1.903180   -3.482213    0.109473
     21          1           0        3.412342   -1.520631    0.393545
     22          1           0        3.373159   -0.636857   -1.892300
     23          1           0        1.668387   -0.248476   -1.758636
     24          1           0        3.029249    1.804803   -1.436364
     25          1           0        3.976059    1.019263   -0.178793
     26          1           0        2.391178    2.471731    0.926505
     27          1           0        1.185969    0.813557    2.348494
     28          1           0        2.857765    0.388676    2.044038
     29          1           0        0.453499   -0.813331    0.568327
     30          1           0        1.401673   -1.615878    1.810395
     31          1           0        0.784570    2.831551   -0.793829
     32          1           0        0.319228    1.137665   -0.855172
     33          1           0       -0.566229    1.425093    1.387127
     34          1           0       -2.365374    2.765939    1.093607
     35          1           0       -1.529040    3.703793   -0.145822
     36          1           0       -3.311653    2.107593   -1.008822
     37          1           0       -1.753484    1.956643   -1.807554
     38          1           0       -1.260696   -2.461099    2.062703
     39          1           0       -3.017537   -2.628659    1.942691
     40          1           0       -1.958455   -3.607436    0.891376
 ---------------------------------------------------------------------

 SCF Done:  E(UB3LYP) =  -748.959915497     A.U. after   33 cycles
 SCF Done:  E(UB3LYP) =  -748.959915497     a.u. after    1 cycles

 The electronic state is 2-A.
 Alpha  occ. eigenvalues --  -19.10373 -14.25320 -14.21063 -14.19370 -10.16188
 Alpha  occ. eigenvalues --  -10.13700 -10.09731 -10.08761 -10.08650 -10.08626
 Alpha  occ. eigenvalues --  -10.07175 -10.07141 -10.06785 -10.06473 -10.06405
 Alpha  occ. eigenvalues --  -10.06137 -10.05662  -1.05269  -0.83238  -0.81011
 Alpha  occ. eigenvalues --   -0.77078  -0.73893  -0.68050  -0.65800  -0.64424
 Alpha  occ. eigenvalues --   -0.64094  -0.59740  -0.56130  -0.53209  -0.51323
 Alpha  occ. eigenvalues --   -0.50306  -0.48412  -0.47588  -0.44230  -0.40465
 Alpha  occ. eigenvalues --   -0.39677  -0.39075  -0.38329  -0.35970  -0.34543
 Alpha  occ. eigenvalues --   -0.34343  -0.34046  -0.33107  -0.32718  -0.32559
 Alpha  occ. eigenvalues --   -0.31242  -0.30515  -0.30062  -0.29792  -0.28526
 Alpha  occ. eigenvalues --   -0.28005  -0.27463  -0.25815  -0.25655  -0.25076
 Alpha  occ. eigenvalues --   -0.23817  -0.23650  -0.22778  -0.22035  -0.21124
 Alpha  occ. eigenvalues --   -0.20178  -0.19765  -0.19500  -0.18109  -0.12772
 Alpha  occ. eigenvalues --    0.04347
 Alpha virt. eigenvalues --    0.06045   0.06669   0.07232   0.07763   0.08235
 Alpha virt. eigenvalues --    0.08678   0.09382   0.09590   0.10117   0.10589
 Alpha virt. eigenvalues --    0.10976   0.11478   0.12045   0.12459   0.12764

  Beta  occ. eigenvalues --  -19.10244 -14.25196 -14.21077 -14.19370 -10.15995
  Beta  occ. eigenvalues --  -10.13678 -10.09703 -10.08747 -10.08650 -10.08614
  Beta  occ. eigenvalues --  -10.07172 -10.07133 -10.06775 -10.06467 -10.06398
  Beta  occ. eigenvalues --  -10.06129 -10.05647  -1.05053  -0.83139  -0.80988
  Beta  occ. eigenvalues --   -0.76864  -0.73872  -0.68017  -0.65736  -0.64395
  Beta  occ. eigenvalues --   -0.64025  -0.59696  -0.56066  -0.53112  -0.51284
  Beta  occ. eigenvalues --   -0.50210  -0.48316  -0.47527  -0.44204  -0.40230
  Beta  occ. eigenvalues --   -0.39435  -0.38993  -0.38239  -0.35925  -0.34504
  Beta  occ. eigenvalues --   -0.34261  -0.33992  -0.33048  -0.32673  -0.32405
  Beta  occ. eigenvalues --   -0.31204  -0.30478  -0.30001  -0.29717  -0.28456
  Beta  occ. eigenvalues --   -0.27977  -0.27417  -0.25789  -0.25608  -0.25043
  Beta  occ. eigenvalues --   -0.23763  -0.23552  -0.22719  -0.21784  -0.21044
  Beta  occ. eigenvalues --   -0.20157  -0.19741  -0.19430  -0.17418  -0.12754
  Beta virt. eigenvalues --    0.06347   0.07105   0.07416   0.07939   0.08098
  Beta virt. eigenvalues --    0.08969   0.09099   0.09582   0.09757   0.10400
  Beta virt. eigenvalues --    0.10900   0.11262   0.11759   0.12220   0.12529

 Mulliken charges and spin densities:
               1          2
     1  C   -0.042172  -0.709878
     2  C    0.146025  -0.006377
     3  C   -0.478967   0.247263
     4  C    0.070207  -0.748135
     5  C    1.147177  -0.406049
     6  C   -0.917944   0.236552
     7  C    0.054809  -0.087618
     8  C   -1.019837   0.065660
     9  N   -0.017109   0.099678
    10  C    0.631390  -1.105625
    11  C   -0.443731   0.151432
    12  C   -0.406796  -0.193363
    13  N    0.092373  -0.006733
    14  C   -0.238320   0.921201
    15  N   -0.165284   0.010247
    16  O    0.238802   0.030810
    17  C    0.380926  -0.994052
    18  H    0.202223  -0.055542
    19  H   -0.019854   0.153801
    20  H   -0.098682   0.229224
    21  H   -0.211494   0.377955
    22  H   -0.078530   0.251813
    23  H   -0.039961   0.223646
    24  H   -0.054644   0.192722
    25  H    0.040455   0.106817
    26  H    0.086949   0.124052
    27  H    0.038501   0.143577
    28  H   -0.138087   0.288665
    29  H    0.436197  -0.655685
    30  H   -0.054762   0.224255
    31  H   -0.078067   0.265386
    32  H    0.582287  -0.506215
    33  H    0.249836  -0.030736
    34  H    0.046399   0.141550
    35  H   -0.426460   0.587009
    36  H   -0.730317   0.960520
    37  H    0.169849   0.019884
    38  H   -0.112524   0.285990
    39  H    0.022609   0.138107
    40  H    0.136527   0.028192
 Sum of Mulliken charges =  -1.00000   1.00000

 Dipole moment (field-independent basis, Debye):
    X=              1.2427    Y=             -2.2709    Z=              0.1240  Tot=              2.5917
 Quadrupole moment (field-independent basis, Debye-Ang):
   XX=           -169.4597   YY=           -164.9641   ZZ=           -139.2406
   XY=             14.9523   XZ=             -5.2825   YZ=              0.4421

 Summary of Natural Population Analysis:

                                       Natural Population
                Natural  -----------------------------------------------
    Atom  No    Charge         Core      Valence    Rydberg      Total
 -----------------------------------------------------------------------
      C    1   -0.28518      0.99965     2.27904    0.00649     3.28518
      C    2   -0.11039      0.99960     2.10106    0.00973     3.11039
      C    3   -0.19016      0.99961     2.18164    0.00891     3.19016
      C    4   -0.18731      0.99961     2.17890    0.00880     3.18731
      C    5   -0.11028      0.99959     2.09992    0.01077     3.11028
      C    6   -0.18994      0.99961     2.18140    0.00893     3.18994
      C    7   -0.19523      0.99960     2.18551    0.01011     3.19523
      C    8   -0.09024      0.99959     2.07970    0.01095     3.09024
      N    9   -0.34168      0.99974     2.83126    0.01068     3.84168
      C   10   -0.07977      0.99963     2.06739    0.01274     3.07977
      C   11   -0.23504      0.99958     2.22679    0.00867     3.23504
      C   12    0.31891      0.99962     1.66136    0.02012     2.68109
      N   13   -0.29129      0.99966     2.78266    0.00898     3.79129
      C   14    0.17395      0.99966     1.80887    0.01753     2.82605
      N   15   -0.08706      0.99966     2.57520    0.01221     3.58706
      O   16   -0.16286      0.99985     3.15558    0.00743     4.16286
      C   17   -0.30274      0.99961     2.29857    0.00456     3.30274
      H   18    0.10432      0.00000     0.39454    0.00114     0.39568
      H   19    0.09544      0.00000     0.40377    0.00079     0.40456
      H   20    0.09767      0.00000     0.40144    0.00089     0.40233
      H   21    0.08951      0.00000     0.40858    0.00191     0.41049
      H   22    0.09760      0.00000     0.40153    0.00087     0.40240
      H   23    0.09541      0.00000     0.40311    0.00148     0.40459
      H   24    0.09738      0.00000     0.40177    0.00085     0.40262
      H   25    0.09600      0.00000     0.40291    0.00109     0.40400
      H   26    0.09848      0.00000     0.39998    0.00153     0.40152
      H   27    0.10017      0.00000     0.39868    0.00116     0.39983
      H   28    0.09636      0.00000     0.40243    0.00121     0.40364
      H   29    0.09608      0.00000     0.40079    0.00313     0.40392
      H   30    0.09817      0.00000     0.40060    0.00123     0.40183
      H   31    0.09260      0.00000     0.40617    0.00122     0.40740
      H   32    0.08060      0.00000     0.41740    0.00201     0.41940
      H   33    0.17907      0.00000     0.31695    0.00398     0.32093
      H   34    0.09787      0.00000     0.40106    0.00107     0.40213
      H   35    0.09410      0.00000     0.40429    0.00161     0.40590
      H   36    0.12174      0.00000     0.37401    0.00425     0.37826
      H   37    0.10895      0.00000     0.38974    0.00131     0.39105
      H   38    0.11217      0.00000     0.38658    0.00125     0.38783
      H   39    0.10731      0.00000     0.39171    0.00098     0.39269
      H   40    0.10934      0.00000     0.38960    0.00106     0.39066
 =======================================================================
   * Total *    0.00000     16.99388    47.79249    0.21363    65.00000

 Normal termination of Gaussian 16 at Sun Dec 13 21:43:47 2020.
