 Gaussian 16, Revision A.03,

 -----------------------------------------------------------
 # opt freq B3LYP/6-31G(d) empiricaldispersion=gd3bj scf=xqc
 -----------------------------------------------------------

 ------------------------------
 CID_89402466_JID_6591_neutraal
 ------------------------------
 Symbolic Z-matrix:
 Charge =  0 Multiplicity = 1

 SCF Done:  E(RB3LYP) =  -636.615561767     A.U. after   14 cycles
 SCF Done:  E(RB3LYP) =  -636.618420663     A.U. after   12 cycles
 SCF Done:  E(RB3LYP) =  -636.619346318     A.U. after   12 cycles
 SCF Done:  E(RB3LYP) =  -636.619947241     A.U. after   12 cycles
 SCF Done:  E(RB3LYP) =  -636.620171329     A.U. after   12 cycles
 SCF Done:  E(RB3LYP) =  -636.620165436     A.U. after   11 cycles
 SCF Done:  E(RB3LYP) =  -636.620340215     A.U. after   12 cycles
 SCF Done:  E(RB3LYP) =  -636.620336070     A.U. after   11 cycles
 SCF Done:  E(RB3LYP) =  -636.620353215     A.U. after   11 cycles
 SCF Done:  E(RB3LYP) =  -636.620354980     A.U. after    8 cycles
 SCF Done:  E(RB3LYP) =  -636.620356077     A.U. after    8 cycles
 SCF Done:  E(RB3LYP) =  -636.620353956     A.U. after    9 cycles
 SCF Done:  E(RB3LYP) =  -636.620356873     A.U. after    9 cycles
 SCF Done:  E(RB3LYP) =  -636.620357326     A.U. after    7 cycles
 SCF Done:  E(RB3LYP) =  -636.620357709     A.U. after    7 cycles
 SCF Done:  E(RB3LYP) =  -636.620357750     A.U. after    7 cycles
 Optimization completed.
    -- Stationary point found.
 Normal termination of Gaussian 16 at Thu Dec 10 23:46:34 2020.

 --------------------------------------------------------------------
 #N Geom=AllCheck Guess=TCheck SCRF=Check GenChk RB3LYP/6-31G(d) Freq
 --------------------------------------------------------------------

 Structure from the checkpoint file:  "JID_6591.chk"
 ------------------------------
 CID_89402466_JID_6591_neutraal
 ------------------------------
 Charge =  0 Multiplicity = 1

 SCF Done:  E(RB3LYP) =  -636.620357750     A.U. after    1 cycles

  Exact polarizability: 312.629  -8.342 153.830   0.476   7.009  91.790
 Approx polarizability: 432.914 -21.000 255.781   0.628  13.304 146.057

                      1                      2                      3
                      A                      A                      A
 Frequencies --     29.6072                47.4400                74.7988
 Red. masses --      3.9215                 3.8481                 2.3637
 Frc consts  --      0.0020                 0.0051                 0.0078
 IR Inten    --      0.6932                 0.3653                 0.1628

                      4                      5                      6
                      A                      A                      A
 Frequencies --     94.9737               113.8729               121.7930
 Red. masses --      1.2390                 3.1568                 1.5023
 Frc consts  --      0.0066                 0.0241                 0.0131
 IR Inten    --      0.3334                 0.0768                 0.4880

                      7                      8                      9
                      A                      A                      A
 Frequencies --    125.3757               168.5389               196.4581
 Red. masses --      1.5454                 2.9014                 3.3777
 Frc consts  --      0.0143                 0.0486                 0.0768
 IR Inten    --      0.1466                 0.3658                 0.4437

                     10                     11                     12
                      A                      A                      A
 Frequencies --    217.2347               272.3199               288.5910
 Red. masses --      3.4421                 3.4609                 2.7131
 Frc consts  --      0.0957                 0.1512                 0.1331
 IR Inten    --      0.2991                 1.1522                 1.1347

                     13                     14                     15
                      A                      A                      A
 Frequencies --    304.3736               366.5276               401.9719
 Red. masses --      2.8729                 2.5942                 3.0990
 Frc consts  --      0.1568                 0.2053                 0.2950
 IR Inten    --      0.6109                 0.8610                 2.3453

                     16                     17                     18
                      A                      A                      A
 Frequencies --    428.7316               459.7505               480.9619
 Red. masses --      3.7419                 3.9293                 3.6597
 Frc consts  --      0.4052                 0.4893                 0.4988
 IR Inten    --      0.8198                 1.8815                 0.1259

                     19                     20                     21
                      A                      A                      A
 Frequencies --    499.4632               530.7136               553.7616
 Red. masses --      4.0274                 3.4153                 4.0189
 Frc consts  --      0.5919                 0.5668                 0.7261
 IR Inten    --      1.3938                 5.5295                12.1625

                     22                     23                     24
                      A                      A                      A
 Frequencies --    576.1685               617.4112               657.6588
 Red. masses --      3.2755                 2.5447                 3.7953
 Frc consts  --      0.6407                 0.5715                 0.9672
 IR Inten    --      8.2317                 9.3872                 3.3432

                     25                     26                     27
                      A                      A                      A
 Frequencies --    690.5192               721.6049               738.4935
 Red. masses --      2.8249                 1.9066                 2.1224
 Frc consts  --      0.7936                 0.5849                 0.6820
 IR Inten    --      4.1120                 1.9197                19.5601

                     28                     29                     30
                      A                      A                      A
 Frequencies --    762.2385               780.1678               824.6473
 Red. masses --      2.0489                 2.6490                 1.6239
 Frc consts  --      0.7014                 0.9500                 0.6507
 IR Inten    --     17.3433                15.6106                 5.2933

                     31                     32                     33
                      A                      A                      A
 Frequencies --    837.9470               868.4474               903.9971
 Red. masses --      3.0133                 3.6519                 2.7005
 Frc consts  --      1.2466                 1.6228                 1.3003
 IR Inten    --     13.5184                 3.1461                 1.9851

                     34                     35                     36
                      A                      A                      A
 Frequencies --    916.8309               943.2374               962.0006
 Red. masses --      2.4187                 2.5509                 1.4356
 Frc consts  --      1.1979                 1.3372                 0.7828
 IR Inten    --      6.5039                25.6422                21.4206

                     37                     38                     39
                      A                      A                      A
 Frequencies --    988.2828               999.9570              1023.9813
 Red. masses --      1.2845                 1.2606                 1.8041
 Frc consts  --      0.7392                 0.7427                 1.1145
 IR Inten    --      0.2915                 1.4449                 1.9453

                     40                     41                     42
                      A                      A                      A
 Frequencies --   1030.6494              1035.4083              1047.6606
 Red. masses --      1.3637                 1.6223                 1.9362
 Frc consts  --      0.8535                 1.0247                 1.2521
 IR Inten    --      0.3685                 3.7019                 2.3176

                     43                     44                     45
                      A                      A                      A
 Frequencies --   1069.8169              1070.2506              1082.3549
 Red. masses --      1.5125                 1.7271                 2.1231
 Frc consts  --      1.0199                 1.1655                 1.4654
 IR Inten    --      0.5788                 1.3757                 2.2574

                     46                     47                     48
                      A                      A                      A
 Frequencies --   1112.2084              1155.3836              1179.8734
 Red. masses --      2.4843                 1.9891                 1.1213
 Frc consts  --      1.8106                 1.5644                 0.9197
 IR Inten    --      5.8583                 0.2157                 2.2325

                     49                     50                     51
                      A                      A                      A
 Frequencies --   1207.3979              1236.5161              1249.3771
 Red. masses --      1.1525                 3.8200                 1.6487
 Frc consts  --      0.9899                 3.4412                 1.5162
 IR Inten    --      1.3973                 5.8232                 0.6481

                     52                     53                     54
                      A                      A                      A
 Frequencies --   1274.3469              1286.9877              1308.6262
 Red. masses --      1.3942                 1.7794                 1.4418
 Frc consts  --      1.3340                 1.7365                 1.4547
 IR Inten    --     11.5704                 1.2711                 0.0763

                     55                     56                     57
                      A                      A                      A
 Frequencies --   1315.8330              1329.2247              1375.4092
 Red. masses --      2.5238                 1.6351                 1.5833
 Frc consts  --      2.5746                 1.7022                 1.7648
 IR Inten    --      1.1547                 0.2065                 7.1727

                     58                     59                     60
                      A                      A                      A
 Frequencies --   1396.2226              1401.7681              1422.5979
 Red. masses --      1.5402                 1.3360                 2.5720
 Frc consts  --      1.7690                 1.5467                 3.0668
 IR Inten    --      0.8703                19.8434                13.1272

                     61                     62                     63
                      A                      A                      A
 Frequencies --   1437.9578              1445.8629              1451.5872
 Red. masses --      1.2685                 1.2662                 2.7920
 Frc consts  --      1.5454                 1.5595                 3.4662
 IR Inten    --      1.6721                 3.9774                 6.8802

                     64                     65                     66
                      A                      A                      A
 Frequencies --   1481.0682              1500.7133              1507.8234
 Red. masses --      1.8080                 1.1542                 1.2436
 Frc consts  --      2.3367                 1.5316                 1.6658
 IR Inten    --      5.7528                 2.0242                 2.1560

                     67                     68                     69
                      A                      A                      A
 Frequencies --   1510.8100              1511.7257              1517.6887
 Red. masses --      1.0785                 1.0962                 1.1959
 Frc consts  --      1.4504                 1.4760                 1.6229
 IR Inten    --      3.4069                 5.0508                19.4678

                     70                     71                     72
                      A                      A                      A
 Frequencies --   1521.5294              1535.0532              1592.3787
 Red. masses --      1.5379                 1.0945                 5.7696
 Frc consts  --      2.0976                 1.5195                 8.6197
 IR Inten    --     19.0173                 3.3000                18.5137

                     73                     74                     75
                      A                      A                      A
 Frequencies --   1624.5932              1667.6913              1710.6269
 Red. masses --      6.4497                 6.5747                 6.5325
 Frc consts  --     10.0295                10.7734                11.2627
 IR Inten    --     31.1770                 2.7471                 4.2531

                     76                     77                     78
                      A                      A                      A
 Frequencies --   1721.2538              2996.8104              3008.9201
 Red. masses --      5.4590                 1.0740                 1.0696
 Frc consts  --      9.5291                 5.6829                 5.7054
 IR Inten    --     20.9370                25.7972                41.5578

                     79                     80                     81
                      A                      A                      A
 Frequencies --   3034.1877              3044.7508              3075.5910
 Red. masses --      1.0407                 1.0457                 1.0996
 Frc consts  --      5.6448                 5.7117                 6.1285
 IR Inten    --     46.6502                16.8815                22.0694

                     82                     83                     84
                      A                      A                      A
 Frequencies --   3080.2308              3099.2729              3109.0117
 Red. masses --      1.0902                 1.0919                 1.0912
 Frc consts  --      6.0941                 6.1792                 6.2145
 IR Inten    --     41.7947                23.7779                16.1162

                     85                     86                     87
                      A                      A                      A
 Frequencies --   3134.8658              3147.5547              3156.8684
 Red. masses --      1.0944                 1.0950                 1.0889
 Frc consts  --      6.3369                 6.3917                 6.3939
 IR Inten    --      6.4133                 4.2096                11.7274

                     88                     89                     90
                      A                      A                      A
 Frequencies --   3157.6144              3179.8584              3181.3474
 Red. masses --      1.0874                 1.0915                 1.0872
 Frc consts  --      6.3876                 6.5027                 6.4833
 IR Inten    --     21.1897                 4.8851                12.5070

                     91                     92                     93
                      A                      A                      A
 Frequencies --   3182.7113              3190.6238              3210.5042
 Red. masses --      1.0904                 1.0909                 1.0961
 Frc consts  --      6.5080                 6.5430                 6.6563
 IR Inten    --     40.5031                24.2133                24.2860

 - Thermochemistry -
 -------------------
 Temperature   298.150 Kelvin.  Pressure   1.00000 Atm.
 Atom     1 has atomic number  6 and mass  12.00000

 Molecular mass:   211.13610 amu.
 Principal axes and moments of inertia in atomic units:
                           1         2         3
     Eigenvalues --  1330.715857302.191018283.66008
           X            0.99997  -0.00773   0.00132
           Y            0.00772   0.99996   0.00545
           Z           -0.00136  -0.00544   0.99998
 This molecule is an asymmetric top.
 Rotational symmetry number  1.
 Warning -- assumption of classical behavior for rotation
           may cause significant error
 Rotational temperatures (Kelvin)      0.06509     0.01186     0.01046
 Rotational constants (GHZ):           1.35622     0.24715     0.21787
 Zero-point vibrational energy     741133.5 (Joules/Mol)
                                  177.13517 (Kcal/Mol)
 Warning -- explicit consideration of  23 degrees of freedom as
           vibrations may cause significant error
 Vibrational temperatures:     42.60    68.26   107.62   136.65   163.84
          (Kelvin)            175.23   180.39   242.49   282.66   312.55
                              391.81   415.22   437.93   527.35   578.35
                              616.85   661.48   692.00   718.62   763.58
                              796.74   828.98   888.32   946.22   993.50
                             1038.23  1062.53  1096.69  1122.49  1186.48
                             1205.62  1249.50  1300.65  1319.12  1357.11
                             1384.10  1421.92  1438.72  1473.28  1482.87
                             1489.72  1507.35  1539.23  1539.85  1557.27
                             1600.22  1662.34  1697.57  1737.18  1779.07
                             1797.58  1833.50  1851.69  1882.82  1893.19
                             1912.46  1978.91  2008.85  2016.83  2046.80
                             2068.90  2080.27  2088.51  2130.93  2159.19
                             2169.42  2173.72  2175.04  2183.62  2189.14
                             2208.60  2291.08  2337.43  2399.44  2461.21
                             2476.50  4311.74  4329.16  4365.52  4380.72
                             4425.09  4431.77  4459.16  4473.17  4510.37
                             4528.63  4542.03  4543.10  4575.11  4577.25
                             4579.21  4590.60  4619.20

 Zero-point correction=                           0.282283 (Hartree/Particle)
 Thermal correction to Energy=                    0.297400
 Thermal correction to Enthalpy=                  0.298344
 Thermal correction to Gibbs Free Energy=         0.239167
 Sum of electronic and zero-point Energies=           -636.338075
 Sum of electronic and thermal Energies=              -636.322958
 Sum of electronic and thermal Enthalpies=            -636.322014
 Sum of electronic and thermal Free Energies=         -636.381191

                     E (Thermal)             CV                S
                      KCal/Mol        Cal/Mol-Kelvin    Cal/Mol-Kelvin
 Total                  186.621             57.786            124.549
 Electronic               0.000              0.000              0.000
 Translational            0.889              2.981             41.946
 Rotational               0.889              2.981             32.754
 Vibrational            184.844             51.824             49.850
 Vibration     1          0.593              1.984              5.856
 Vibration     2          0.595              1.979              4.921
 Vibration     3          0.599              1.966              4.023
 Vibration     4          0.603              1.953              3.555
 Vibration     5          0.607              1.938              3.202
 Vibration     6          0.609              1.931              3.072
 Vibration     7          0.610              1.928              3.016
 Vibration     8          0.625              1.881              2.452
 Vibration     9          0.636              1.845              2.166
 Vibration    10          0.646              1.815              1.982
 Vibration    11          0.675              1.724              1.581
 Vibration    12          0.685              1.695              1.482
 Vibration    13          0.695              1.665              1.393
 Vibration    14          0.739              1.541              1.094
 Vibration    15          0.768              1.466              0.955
 Vibration    16          0.790              1.408              0.863
 Vibration    17          0.818              1.339              0.767
 Vibration    18          0.837              1.292              0.707
 Vibration    19          0.855              1.251              0.659
 Vibration    20          0.886              1.182              0.586
 Vibration    21          0.909              1.131              0.536
 Vibration    22          0.933              1.083              0.493
 Vibration    23          0.977              0.995              0.421

                           ! Non-Optimized Parameters !
 Normal termination of Gaussian 16 at Thu Dec 10 23:56:15 2020.

 ----------------------------------------------------------------------
 # B3LYP/6-311++G(d,p) empiricaldispersion=gd3bj scf=xqc pop=npa geom=c
 heck
 ----------------------------------------------------------------------

 --------------------------------------
 CID_89402466_JID_6591_Energie_neutraal
 --------------------------------------
 Structure from the checkpoint file:  "JID_6591.chk"
 Charge =  0 Multiplicity = 1

 SCF Done:  E(RB3LYP) =  -636.783081709     A.U. after   15 cycles
 Normal termination of Gaussian 16 at Fri Dec 11 00:00:34 2020.

 ----------------------------------------------------------------------
 # B3LYP/6-311++G(d,p) empiricaldispersion=gd3bj scf=xqc pop=npa geom=c
 heck
 ----------------------------------------------------------------------

 ------------------------------------
 CID_89402466_JID_6591_Energie_kation
 ------------------------------------
 Structure from the checkpoint file:  "JID_6591.chk"
 Charge =  1 Multiplicity = 2

 SCF Done:  E(UB3LYP) =  -636.517518352     A.U. after   20 cycles
 Normal termination of Gaussian 16 at Fri Dec 11 00:08:10 2020.
 Gaussian 16:  ES64L-G16RevA.03 25-Dec-2016

 ----------------------------------------------------------------------
 # B3LYP/6-311++G(d,p) empiricaldispersion=gd3bj scf=xqc pop=npa geom=c
 heck
 ----------------------------------------------------------------------

 -----------------------------------
 CID_89402466_JID_6591_Energie_anion
 -----------------------------------
 Structure from the checkpoint file:  "JID_6591.chk"
 Charge = -1 Multiplicity = 2

                         Standard orientation:
 ---------------------------------------------------------------------
 Center     Atomic      Atomic             Coordinates (Angstroms)
 Number     Number       Type             X           Y           Z
 ---------------------------------------------------------------------
      1          6           0        5.875763   -0.410929   -0.196730
      2          6           0        4.569634   -0.901372   -0.746727
      3          6           0        3.334846   -0.436131   -0.474679
      4          6           0        3.013951    0.691022    0.383536
      5          6           0        1.775728    1.093439    0.748574
      6          6           0        0.505397    0.404195    0.476231
      7          6           0        0.393302   -0.982913    0.667294
      8          7           0       -0.720594   -1.687125    0.478343
      9          6           0       -1.823411   -1.013122    0.107396
     10          6           0       -3.050824   -1.791370   -0.077273
     11          6           0       -4.250858   -1.199502   -0.164093
     12          6           0       -4.381235    0.298303   -0.062061
     13          6           0       -3.128149    1.016172   -0.585862
     14          6           0       -1.840057    0.382382   -0.099179
     15          6           0       -0.654244    1.103927    0.067493
     16          6           0       -0.606535    2.586681   -0.214582
     17          1           0        5.762061    0.431357    0.490129
     18          1           0        6.548150   -0.099751   -1.007598
     19          1           0        6.392930   -1.214503    0.345125
     20          1           0        4.645857   -1.738278   -1.440176
     21          1           0        2.492662   -0.927744   -0.955403
     22          1           0        3.847370    1.297377    0.730761
     23          1           0        1.702433    2.016043    1.322024
     24          1           0        1.260837   -1.541470    1.011234
     25          1           0       -2.935484   -2.871137   -0.085876
     26          1           0       -5.155975   -1.796146   -0.249116
     27          1           0       -4.551122    0.568696    0.992930
     28          1           0       -5.261970    0.651553   -0.610210
     29          1           0       -3.172261    2.073899   -0.310935
     30          1           0       -3.135729    0.980796   -1.686980
     31          1           0       -1.143603    2.831967   -1.136380
     32          1           0       -1.073135    3.165760    0.593576
     33          1           0        0.421279    2.936771   -0.327525
 ---------------------------------------------------------------------

 SCF Done:  E(UB3LYP) =  -636.791112799     A.U. after   25 cycles

 The electronic state is 2-A.
 Alpha  occ. eigenvalues --  -14.15128 -10.05621 -10.05553 -10.05440 -10.05042
 Alpha  occ. eigenvalues --  -10.04850 -10.04653 -10.04411 -10.03967 -10.03110
 Alpha  occ. eigenvalues --  -10.03025 -10.02917 -10.02750 -10.02741 -10.02352
 Alpha  occ. eigenvalues --  -10.02050  -0.79293  -0.70497  -0.68951  -0.67111
 Alpha  occ. eigenvalues --   -0.63619  -0.61154  -0.59916  -0.57873  -0.55429
 Alpha  occ. eigenvalues --   -0.50839  -0.49318  -0.45303  -0.44410  -0.40087
 Alpha  occ. eigenvalues --   -0.38587  -0.37885  -0.34846  -0.34119  -0.33941
 Alpha  occ. eigenvalues --   -0.31551  -0.30796  -0.30279  -0.30167  -0.29114
 Alpha  occ. eigenvalues --   -0.27879  -0.27397  -0.26348  -0.25394  -0.24978
 Alpha  occ. eigenvalues --   -0.24793  -0.24435  -0.24243  -0.21623  -0.20231
 Alpha  occ. eigenvalues --   -0.19015  -0.18425  -0.15795  -0.13154  -0.11339
 Alpha  occ. eigenvalues --   -0.10296  -0.07326   0.04312
 Alpha virt. eigenvalues --    0.07765   0.07968   0.08962   0.09954   0.10239
 Alpha virt. eigenvalues --    0.10340   0.10458   0.11028   0.11396   0.11605
 Alpha virt. eigenvalues --    0.12004   0.12456   0.12932   0.13362   0.13943

  Beta  occ. eigenvalues --  -14.15044 -10.05644 -10.05541 -10.05457 -10.05033
  Beta  occ. eigenvalues --  -10.04854 -10.04385 -10.04263 -10.04014 -10.03095
  Beta  occ. eigenvalues --  -10.02806 -10.02797 -10.02605 -10.02590 -10.02233
  Beta  occ. eigenvalues --  -10.01823  -0.79008  -0.70312  -0.68560  -0.66774
  Beta  occ. eigenvalues --   -0.63255  -0.60969  -0.59616  -0.57738  -0.55288
  Beta  occ. eigenvalues --   -0.50769  -0.48789  -0.45080  -0.44058  -0.39788
  Beta  occ. eigenvalues --   -0.38394  -0.37733  -0.34669  -0.33985  -0.33808
  Beta  occ. eigenvalues --   -0.31408  -0.30600  -0.30074  -0.29947  -0.29026
  Beta  occ. eigenvalues --   -0.27746  -0.27242  -0.26177  -0.25207  -0.24881
  Beta  occ. eigenvalues --   -0.24609  -0.24218  -0.23780  -0.21488  -0.20057
  Beta  occ. eigenvalues --   -0.18812  -0.17438  -0.14852  -0.12373  -0.11012
  Beta  occ. eigenvalues --   -0.09361  -0.06058
  Beta virt. eigenvalues --    0.07726   0.07888   0.08912   0.09208   0.09932
  Beta virt. eigenvalues --    0.10298   0.10382   0.10987   0.11138   0.11606
  Beta virt. eigenvalues --    0.11949   0.12336   0.12520   0.12959   0.13320

 Mulliken charges and spin densities:
               1          2
     1  C   -0.630014  -0.037519
     2  C   -0.420553   0.229142
     3  C    0.387637  -0.028770
     4  C   -0.522861   0.151145
     5  C   -0.544354   0.068166
     6  C    0.724222   0.106090
     7  C   -0.336967   0.014491
     8  N    0.041209   0.031644
     9  C   -1.200225   0.173743
    10  C   -0.513547  -0.066181
    11  C   -0.068703   0.245937
    12  C   -0.717379   0.030654
    13  C   -0.339557  -0.008181
    14  C    0.697017  -0.040832
    15  C    0.901605   0.074992
    16  C   -0.617052  -0.014986
    17  H    0.106552   0.015811
    18  H    0.107274   0.004344
    19  H    0.104875   0.020445
    20  H    0.116383  -0.012185
    21  H    0.208716   0.000718
    22  H    0.053585  -0.009168
    23  H    0.142097   0.006770
    24  H    0.177962   0.002401
    25  H    0.136194   0.002364
    26  H    0.130626  -0.013450
    27  H    0.115038   0.017037
    28  H    0.112694   0.003298
    29  H    0.108163   0.000818
    30  H    0.140249  -0.000463
    31  H    0.141771   0.007660
    32  H    0.142173   0.008401
    33  H    0.115168   0.015662
 Sum of Mulliken charges =  -1.00000   1.00000

 Dipole moment (field-independent basis, Debye):
    X=             -1.4000    Y=              3.4156    Z=             -0.6014  Tot=              3.7400
 Quadrupole moment (field-independent basis, Debye-Ang):
   XX=           -150.0169   YY=           -113.9079   ZZ=           -108.6317
   XY=             -5.5865   XZ=              1.4304   YZ=              1.7556

 Summary of Natural Population Analysis:

                                       Natural Population
                Natural  -----------------------------------------------
    Atom  No    Charge         Core      Valence    Rydberg      Total
 -----------------------------------------------------------------------
      C    1   -0.30401      0.99966     2.29947    0.00488     3.30401
      C    2   -0.04404      0.99957     2.03475    0.00973     3.04404
      C    3   -0.12764      0.99952     2.11863    0.00949     3.12764
      C    4   -0.07257      0.99953     2.06386    0.00919     3.07257
      C    5   -0.07955      0.99955     2.07027    0.00973     3.07955
      C    6   -0.03680      0.99946     2.02661    0.01073     3.03680
      C    7    0.03303      0.99956     1.95286    0.01456     2.96697
      N    8   -0.24725      0.99971     2.73059    0.01695     3.74725
      C    9    0.18082      0.99948     1.80707    0.01263     2.81918
      C   10   -0.13826      0.99956     2.12116    0.01754     3.13826
      C   11   -0.03288      0.99956     2.02340    0.00993     3.03288
      C   12   -0.20415      0.99963     2.19703    0.00749     3.20415
      C   13   -0.19066      0.99962     2.18383    0.00721     3.19066
      C   14   -0.05994      0.99949     2.04463    0.01582     3.05994
      C   15    0.02852      0.99945     1.96476    0.00727     2.97148
      C   16   -0.29877      0.99965     2.29451    0.00462     3.29877
      H   17    0.09791      0.00000     0.40116    0.00093     0.40209
      H   18    0.09478      0.00000     0.40407    0.00115     0.40522
      H   19    0.09684      0.00000     0.40202    0.00115     0.40316
      H   20    0.08003      0.00000     0.41885    0.00112     0.41997
      H   21    0.09970      0.00000     0.39881    0.00149     0.40030
      H   22    0.08324      0.00000     0.41498    0.00178     0.41676
      H   23    0.08802      0.00000     0.41049    0.00148     0.41198
      H   24    0.08686      0.00000     0.41153    0.00161     0.41314
      H   25    0.09854      0.00000     0.40020    0.00126     0.40146
      H   26    0.08366      0.00000     0.41510    0.00124     0.41634
      H   27    0.09629      0.00000     0.40203    0.00168     0.40371
      H   28    0.09260      0.00000     0.40602    0.00139     0.40740
      H   29    0.09638      0.00000     0.40240    0.00121     0.40362
      H   30    0.09478      0.00000     0.40392    0.00129     0.40522
      H   31    0.09900      0.00000     0.40013    0.00087     0.40100
      H   32    0.09856      0.00000     0.40034    0.00110     0.40144
      H   33    0.10717      0.00000     0.39190    0.00093     0.39283
 =======================================================================
   * Total *    0.00018     15.99298    40.81737    0.18946    56.99982

 Normal termination of Gaussian 16 at Fri Dec 11 00:18:02 2020.
