 Gaussian 16, Revision A.03,

 -----------------------------------------------------------
 # opt freq B3LYP/6-31G(d) empiricaldispersion=gd3bj scf=xqc
 -----------------------------------------------------------

 ------------------------------
 CID_131101663_JID_426_neutraal
 ------------------------------
 Symbolic Z-matrix:
 Charge =  0 Multiplicity = 1

 SCF Done:  E(RB3LYP) =  -478.523741763     A.U. after   14 cycles
 SCF Done:  E(RB3LYP) =  -478.526662617     A.U. after   12 cycles
 SCF Done:  E(RB3LYP) =  -478.526930420     A.U. after   11 cycles
 SCF Done:  E(RB3LYP) =  -478.526976548     A.U. after   12 cycles
 SCF Done:  E(RB3LYP) =  -478.527143990     A.U. after   10 cycles
 SCF Done:  E(RB3LYP) =  -478.527182790     A.U. after   10 cycles
 SCF Done:  E(RB3LYP) =  -478.527185856     A.U. after    9 cycles
 SCF Done:  E(RB3LYP) =  -478.527186634     A.U. after    8 cycles
 SCF Done:  E(RB3LYP) =  -478.527187011     A.U. after    8 cycles
 SCF Done:  E(RB3LYP) =  -478.527187084     A.U. after    7 cycles
 Optimization completed.
    -- Stationary point found.
 Normal termination of Gaussian 16 at Tue Dec  8 10:32:27 2020.

 --------------------------------------------------------------------
 #N Geom=AllCheck Guess=TCheck SCRF=Check GenChk RB3LYP/6-31G(d) Freq
 --------------------------------------------------------------------

 Structure from the checkpoint file:  "JID_426.chk"
 ------------------------------
 CID_131101663_JID_426_neutraal
 ------------------------------
 Charge =  0 Multiplicity = 1

 SCF Done:  E(RB3LYP) =  -478.527187084     A.U. after    1 cycles

  Exact polarizability:  96.727  -0.442  79.076   5.817   2.710  69.816
 Approx polarizability: 122.161   2.538 125.101  12.861  -0.693 109.563

                      1                      2                      3
                      A                      A                      A
 Frequencies --     38.0691                71.6788               101.4964
 Red. masses --      4.1889                 3.0479                 2.8030
 Frc consts  --      0.0036                 0.0092                 0.0170
 IR Inten    --      1.0591                 0.1885                 2.0944

                      4                      5                      6
                      A                      A                      A
 Frequencies --    144.5320               190.8056               236.7653
 Red. masses --      3.4353                 4.8768                 4.1724
 Frc consts  --      0.0423                 0.1046                 0.1378
 IR Inten    --      1.0897                 7.1173                 3.5525

                      7                      8                      9
                      A                      A                      A
 Frequencies --    269.8520               350.5679               364.7652
 Red. masses --      3.3980                 1.6981                 1.5699
 Frc consts  --      0.1458                 0.1230                 0.1231
 IR Inten    --      1.7083                58.1669                13.1435

                     10                     11                     12
                      A                      A                      A
 Frequencies --    455.8047               515.1492               572.2950
 Red. masses --      2.4921                 1.9953                 5.1182
 Frc consts  --      0.3051                 0.3120                 0.9877
 IR Inten    --     12.1321                33.3587                22.0930

                     13                     14                     15
                      A                      A                      A
 Frequencies --    593.0445               687.4910               710.4067
 Red. masses --      3.1437                 2.9506                 1.5517
 Frc consts  --      0.6514                 0.8217                 0.4614
 IR Inten    --     11.0911                18.3986               205.4607

                     16                     17                     18
                      A                      A                      A
 Frequencies --    736.3350               794.3381               820.6575
 Red. masses --      1.4889                 5.1962                 1.7178
 Frc consts  --      0.4756                 1.9317                 0.6816
 IR Inten    --     31.6421                 2.5355                14.0412

                     19                     20                     21
                      A                      A                      A
 Frequencies --    864.5614               882.9425               929.7865
 Red. masses --      3.4489                 2.3271                 2.4529
 Frc consts  --      1.5189                 1.0689                 1.2494
 IR Inten    --      7.3456                 8.5006                 8.8952

                     22                     23                     24
                      A                      A                      A
 Frequencies --    954.5415               972.9585              1005.5235
 Red. masses --      1.7420                 1.3297                 2.5243
 Frc consts  --      0.9352                 0.7417                 1.5037
 IR Inten    --      1.4570                 0.8639                 1.5995

                     25                     26                     27
                      A                      A                      A
 Frequencies --   1015.3217              1085.7775              1089.9573
 Red. masses --      1.9608                 2.4752                 3.3364
 Frc consts  --      1.1909                 1.7193                 2.3353
 IR Inten    --      0.3175                 6.3458                36.3018

                     28                     29                     30
                      A                      A                      A
 Frequencies --   1103.7473              1143.2942              1179.7961
 Red. masses --      1.9677                 1.1396                 1.1756
 Frc consts  --      1.4124                 0.8777                 0.9641
 IR Inten    --      1.0022                 0.2280                 0.8961

                     31                     32                     33
                      A                      A                      A
 Frequencies --   1229.1287              1244.1863              1248.1542
 Red. masses --      1.3727                 1.3787                 1.5029
 Frc consts  --      1.2218                 1.2574                 1.3795
 IR Inten    --      7.8606                 0.2928                41.8109

                     34                     35                     36
                      A                      A                      A
 Frequencies --   1314.1279              1330.0359              1336.4123
 Red. masses --      1.5737                 1.2974                 1.7193
 Frc consts  --      1.6012                 1.3522                 1.8091
 IR Inten    --     15.4223                 0.2416                17.7389

                     37                     38                     39
                      A                      A                      A
 Frequencies --   1370.8231              1399.3384              1410.1198
 Red. masses --      1.3937                 1.6332                 1.5223
 Frc consts  --      1.5430                 1.8842                 1.7834
 IR Inten    --      2.1088                 4.6532                23.4363

                     40                     41                     42
                      A                      A                      A
 Frequencies --   1431.6504              1442.0859              1481.8473
 Red. masses --      1.8131                 1.1184                 1.0848
 Frc consts  --      2.1895                 1.3703                 1.4035
 IR Inten    --    103.0539                35.5729                12.2183

                     43                     44                     45
                      A                      A                      A
 Frequencies --   1514.7929              1532.6139              1703.6640
 Red. masses --      1.0843                 1.0975                 6.1210
 Frc consts  --      1.4659                 1.5189                10.4674
 IR Inten    --      0.7075                 1.9620                 1.0674

                     46                     47                     48
                      A                      A                      A
 Frequencies --   1799.3322              3019.3269              3044.0913
 Red. masses --      9.6507                 1.0698                 1.0656
 Frc consts  --     18.4090                 5.7464                 5.8176
 IR Inten    --    184.8179                41.9506                17.8679

                     49                     50                     51
                      A                      A                      A
 Frequencies --   3062.5897              3065.4576              3086.7010
 Red. masses --      1.0860                 1.0887                 1.0763
 Frc consts  --      6.0016                 6.0275                 6.0418
 IR Inten    --      9.5356                24.0375                30.5837

                     52                     53                     54
                      A                      A                      A
 Frequencies --   3090.3323              3130.2587              3183.9326
 Red. masses --      1.0849                 1.1034                 1.0850
 Frc consts  --      6.1046                 6.3703                 6.4806
 IR Inten    --     21.0739                30.4071                10.2883

                     55                     56                     57
                      A                      A                      A
 Frequencies --   3209.8682              3538.6516              3707.7661
 Red. masses --      1.1029                 1.0770                 1.0687
 Frc consts  --      6.6950                 7.9459                 8.6559
 IR Inten    --     31.9329                13.6005                33.3444

 - Thermochemistry -
 -------------------
 Temperature   298.150 Kelvin.  Pressure   1.00000 Atm.
 Atom     1 has atomic number  6 and mass  12.00000

 Molecular mass:   141.07898 amu.
 Principal axes and moments of inertia in atomic units:
                           1         2         3
     Eigenvalues --   677.077702503.514952739.97885
           X            0.99994   0.00691   0.00807
           Y           -0.00741   0.99794   0.06372
           Z           -0.00761  -0.06378   0.99793
 This molecule is an asymmetric top.
 Rotational symmetry number  1.
 Warning -- assumption of classical behavior for rotation
           may cause significant error
 Rotational temperatures (Kelvin)      0.12792     0.03460     0.03161
 Rotational constants (GHZ):           2.66549     0.72088     0.65867
 Zero-point vibrational energy     465404.5 (Joules/Mol)
                                  111.23434 (Kcal/Mol)
 Warning -- explicit consideration of  13 degrees of freedom as
           vibrations may cause significant error
 Vibrational temperatures:     54.77   103.13   146.03   207.95   274.53
          (Kelvin)            340.65   388.26   504.39   524.82   655.80
                              741.18   823.40   853.26   989.15  1022.12
                             1059.42  1142.88  1180.74  1243.91  1270.36
                             1337.76  1373.37  1399.87  1446.72  1460.82
                             1562.19  1568.21  1588.05  1644.95  1697.46
                             1768.44  1790.11  1795.82  1890.74  1913.63
                             1922.80  1972.31  2013.34  2028.85  2059.83
                             2074.84  2132.05  2179.45  2205.09  2451.19
                             2588.84  4344.14  4379.77  4406.38  4410.51
                             4441.07  4446.30  4503.74  4580.97  4618.28
                             5091.33  5334.65

 Zero-point correction=                           0.177263 (Hartree/Particle)
 Thermal correction to Energy=                    0.187232
 Thermal correction to Enthalpy=                  0.188176
 Thermal correction to Gibbs Free Energy=         0.141006
 Sum of electronic and zero-point Energies=           -478.349924
 Sum of electronic and thermal Energies=              -478.339955
 Sum of electronic and thermal Enthalpies=            -478.339011
 Sum of electronic and thermal Free Energies=         -478.386181

                     E (Thermal)             CV                S
                      KCal/Mol        Cal/Mol-Kelvin    Cal/Mol-Kelvin
 Total                  117.490             36.819             99.277
 Electronic               0.000              0.000              0.000
 Translational            0.889              2.981             40.744
 Rotational               0.889              2.981             29.919
 Vibrational            115.712             30.858             28.614
 Vibration     1          0.594              1.982              5.357
 Vibration     2          0.598              1.968              4.107
 Vibration     3          0.604              1.948              3.425
 Vibration     4          0.616              1.909              2.743
 Vibration     5          0.634              1.853              2.220
 Vibration     6          0.656              1.784              1.827
 Vibration     7          0.674              1.729              1.597
 Vibration     8          0.727              1.574              1.164
 Vibration     9          0.738              1.545              1.102
 Vibration    10          0.814              1.348              0.778
 Vibration    11          0.870              1.216              0.621
 Vibration    12          0.928              1.091              0.500
 Vibration    13          0.951              1.047              0.462

 Optimization completed.
    -- Stationary point found.
 Normal termination of Gaussian 16 at Tue Dec  8 10:36:56 2020.

 ----------------------------------------------------------------------
 # B3LYP/6-311++G(d,p) empiricaldispersion=gd3bj scf=xqc pop=npa geom=c
 heck
 ----------------------------------------------------------------------

 --------------------------------------
 CID_131101663_JID_426_Energie_neutraal
 --------------------------------------
 Structure from the checkpoint file:  "JID_426.chk"
 Charge =  0 Multiplicity = 1

 SCF Done:  E(RB3LYP) =  -478.678288387     A.U. after   15 cycles
 Normal termination of Gaussian 16 at Tue Dec  8 10:38:49 2020.

 ----------------------------------------------------------------------
 # B3LYP/6-311++G(d,p) empiricaldispersion=gd3bj scf=xqc pop=npa geom=c
 heck
 ----------------------------------------------------------------------

 ------------------------------------
 CID_131101663_JID_426_Energie_kation
 ------------------------------------
 Structure from the checkpoint file:  "JID_426.chk"
 Charge =  1 Multiplicity = 2

 SCF Done:  E(UB3LYP) =  -478.358338630     A.U. after   24 cycles
 Normal termination of Gaussian 16 at Tue Dec  8 10:44:25 2020.
 Gaussian 16:  ES64L-G16RevA.03 25-Dec-2016

 ----------------------------------------------------------------------
 # B3LYP/6-311++G(d,p) empiricaldispersion=gd3bj scf=xqc pop=npa geom=c
 heck
 ----------------------------------------------------------------------

 -----------------------------------
 CID_131101663_JID_426_Energie_anion
 -----------------------------------
 Structure from the checkpoint file:  "JID_426.chk"
 Charge = -1 Multiplicity = 2

                         Standard orientation:
 ---------------------------------------------------------------------
 Center     Atomic      Atomic             Coordinates (Angstroms)
 Number     Number       Type             X           Y           Z
 ---------------------------------------------------------------------
      1          6           0        2.612051    0.144554    1.086182
      2          6           0        1.500688    1.042758    0.483799
      3          6           0        0.897060    0.237498   -0.701364
      4          6           0        1.983372   -0.775312   -0.996188
      5          6           0        2.899790   -0.835068   -0.027709
      6          6           0       -0.421479   -0.466870   -0.347187
      7          6           0       -1.576195    0.506361   -0.205592
      8          8           0       -1.493574    1.713564   -0.361617
      9          7           0       -2.826469   -0.058656    0.040194
     10          8           0       -2.847973   -1.307763    0.703172
     11          1           0        3.496328    0.721797    1.383700
     12          1           0        2.275173   -0.384981    1.990077
     13          1           0        0.742366    1.337163    1.213550
     14          1           0        1.944326    1.965200    0.097050
     15          1           0        0.703461    0.896015   -1.555629
     16          1           0        1.964400   -1.406428   -1.881317
     17          1           0        3.744808   -1.518093   -0.008305
     18          1           0       -0.688479   -1.209437   -1.111813
     19          1           0       -0.320842   -1.035618    0.585204
     20          1           0       -3.481465    0.586099    0.475836
     21          1           0       -3.234145   -1.911060    0.046192
 ---------------------------------------------------------------------

 SCF Done:  E(UB3LYP) =  -478.667562309     A.U. after   32 cycles

 The electronic state is 2-A.
 Alpha  occ. eigenvalues --  -19.05080 -18.99146 -14.26682 -10.16729 -10.07138
 Alpha  occ. eigenvalues --  -10.06906 -10.06588 -10.06535 -10.06261 -10.06130
 Alpha  occ. eigenvalues --   -0.97799  -0.93044  -0.74636  -0.73456  -0.65570
 Alpha  occ. eigenvalues --   -0.60710  -0.57414  -0.48662  -0.45509  -0.43008
 Alpha  occ. eigenvalues --   -0.42610  -0.40175  -0.37452  -0.36724  -0.35558
 Alpha  occ. eigenvalues --   -0.32039  -0.31390  -0.28354  -0.27427  -0.26587
 Alpha  occ. eigenvalues --   -0.24640  -0.24135  -0.23753  -0.22326  -0.21127
 Alpha  occ. eigenvalues --   -0.16494  -0.15312  -0.14127   0.04813
 Alpha virt. eigenvalues --    0.06740   0.08387   0.08959   0.09490   0.09764
 Alpha virt. eigenvalues --    0.10675   0.11187   0.11359   0.11836   0.12603
 Alpha virt. eigenvalues --    0.13369   0.14275   0.16440   0.17235   0.17748

  Beta  occ. eigenvalues --  -19.04972 -18.99125 -14.26659 -10.16709 -10.07135
  Beta  occ. eigenvalues --  -10.06891 -10.06551 -10.06520 -10.06247 -10.06124
  Beta  occ. eigenvalues --   -0.97625  -0.92967  -0.74611  -0.73302  -0.65520
  Beta  occ. eigenvalues --   -0.60683  -0.57359  -0.48618  -0.45443  -0.42883
  Beta  occ. eigenvalues --   -0.42526  -0.40131  -0.37380  -0.36668  -0.35490
  Beta  occ. eigenvalues --   -0.31969  -0.31336  -0.28309  -0.27391  -0.26512
  Beta  occ. eigenvalues --   -0.24614  -0.24110  -0.23721  -0.22294  -0.21015
  Beta  occ. eigenvalues --   -0.16409  -0.15262  -0.14091
  Beta virt. eigenvalues --    0.06988   0.08485   0.08851   0.09231   0.09906
  Beta virt. eigenvalues --    0.10271   0.10891   0.11607   0.11630   0.11904
  Beta virt. eigenvalues --    0.13128   0.13880   0.14476   0.16587   0.17302

 Mulliken charges and spin densities:
               1          2
     1  C    0.385016  -1.033021
     2  C   -0.352810   0.011354
     3  C   -0.069341   0.335664
     4  C    0.061918  -0.246952
     5  C    0.156634  -0.235575
     6  C    1.143998  -1.568486
     7  C   -0.259474   0.246893
     8  O   -0.320575  -0.004219
     9  N   -0.117837  -0.129287
    10  O   -0.147219   0.035671
    11  H    0.022873   0.102424
    12  H   -0.097930   0.243322
    13  H    0.156944  -0.010424
    14  H    0.005076   0.139799
    15  H    0.172629   0.030226
    16  H   -0.372818   0.552866
    17  H   -0.343661   0.494785
    18  H   -0.669974   0.897729
    19  H    0.093986   0.117349
    20  H    0.011970   0.267807
    21  H   -0.459404   0.752076
 Sum of Mulliken charges =  -1.00000   1.00000

 Dipole moment (field-independent basis, Debye):
    X=              4.2001    Y=              5.0299    Z=              1.6765  Tot=              6.7640
 Quadrupole moment (field-independent basis, Debye-Ang):
   XX=           -118.9235   YY=           -100.8997   ZZ=            -85.1248
   XY=            -10.2838   XZ=             -2.2702   YZ=             -2.5272

 Summary of Natural Population Analysis:

                                       Natural Population
                Natural  -----------------------------------------------
    Atom  No    Charge         Core      Valence    Rydberg      Total
 -----------------------------------------------------------------------
      C    1   -0.20744      0.99963     2.20089    0.00691     3.20744
      C    2   -0.18272      0.99963     2.17583    0.00726     3.18272
      C    3   -0.12679      0.99960     2.11471    0.01248     3.12679
      C    4   -0.08989      0.99951     2.07933    0.01105     3.08989
      C    5   -0.09444      0.99952     2.08534    0.00958     3.09444
      C    6   -0.23836      0.99956     2.22889    0.00991     3.23836
      C    7    0.34656      0.99968     1.63120    0.02255     2.65344
      O    8   -0.31646      0.99987     3.31096    0.00562     4.31646
      N    9   -0.17311      0.99965     2.65776    0.01571     3.67311
      O   10   -0.28272      0.99990     3.27502    0.00779     4.28272
      H   11    0.09703      0.00000     0.40153    0.00144     0.40297
      H   12    0.09867      0.00000     0.39979    0.00154     0.40133
      H   13    0.10282      0.00000     0.39612    0.00105     0.39718
      H   14    0.09734      0.00000     0.40161    0.00105     0.40266
      H   15    0.10552      0.00000     0.39284    0.00165     0.39448
      H   16    0.10149      0.00000     0.39736    0.00115     0.39851
      H   17    0.09707      0.00000     0.40191    0.00103     0.40293
      H   18    0.12066      0.00000     0.37612    0.00322     0.37934
      H   19    0.11729      0.00000     0.38107    0.00165     0.38271
      H   20    0.18090      0.00000     0.31651    0.00258     0.31910
      H   21    0.24657      0.00000     0.19886    0.05457     0.25343
 =======================================================================
   * Total *    0.00000      9.99655    27.82366    0.17979    38.00000

 Normal termination of Gaussian 16 at Tue Dec  8 10:49:19 2020.
