 Gaussian 16, Revision A.03,

 -----------------------------------------------------------
 # opt freq B3LYP/6-31G(d) empiricaldispersion=gd3bj scf=xqc
 -----------------------------------------------------------

 -------------------------------
 CID_142935913_JID_2851_neutraal
 -------------------------------
 Symbolic Z-matrix:
 Charge =  0 Multiplicity = 1

 SCF Done:  E(RB3LYP) =  -610.300447965     A.U. after   14 cycles
 SCF Done:  E(RB3LYP) =  -610.306405838     A.U. after   12 cycles
 SCF Done:  E(RB3LYP) =  -610.307416336     A.U. after   12 cycles
 SCF Done:  E(RB3LYP) =  -610.307808794     A.U. after   12 cycles
 SCF Done:  E(RB3LYP) =  -610.307889357     A.U. after   11 cycles
 SCF Done:  E(RB3LYP) =  -610.307912591     A.U. after   10 cycles
 SCF Done:  E(RB3LYP) =  -610.307920465     A.U. after    9 cycles
 SCF Done:  E(RB3LYP) =  -610.307922585     A.U. after    8 cycles
 SCF Done:  E(RB3LYP) =  -610.307923034     A.U. after    7 cycles
 SCF Done:  E(RB3LYP) =  -610.307923087     A.U. after    7 cycles
 Optimization completed.
    -- Stationary point found.
 Normal termination of Gaussian 16 at Wed Dec  9 18:06:18 2020.

 --------------------------------------------------------------------
 #N Geom=AllCheck Guess=TCheck SCRF=Check GenChk RB3LYP/6-31G(d) Freq
 --------------------------------------------------------------------

 Structure from the checkpoint file:  "JID_2851.chk"
 -------------------------------
 CID_142935913_JID_2851_neutraal
 -------------------------------
 Charge =  0 Multiplicity = 1

 SCF Done:  E(RB3LYP) =  -610.307923087     A.U. after    1 cycles

  Exact polarizability: 108.518  -4.906  92.537  -6.869  -0.580  83.712
 Approx polarizability: 146.604 -14.393 134.040 -15.645   0.746 126.162

                      1                      2                      3
                      A                      A                      A
 Frequencies --     73.0757               117.7991               175.5872
 Red. masses --      4.8605                 3.6377                 2.7642
 Frc consts  --      0.0153                 0.0297                 0.0502
 IR Inten    --      1.0063                 0.8200                 3.6454

                      4                      5                      6
                      A                      A                      A
 Frequencies --    209.0529               217.6552               246.1603
 Red. masses --      3.9422                 1.0914                 3.4117
 Frc consts  --      0.1015                 0.0305                 0.1218
 IR Inten    --      0.7514                 0.2095                 0.5897

                      7                      8                      9
                      A                      A                      A
 Frequencies --    259.5928               264.9515               273.9254
 Red. masses --      3.5515                 2.0508                 1.3499
 Frc consts  --      0.1410                 0.0848                 0.0597
 IR Inten    --      1.7625                17.8898                18.7267

                     10                     11                     12
                      A                      A                      A
 Frequencies --    290.3450               316.8885               331.2659
 Red. masses --      1.3601                 2.9626                 2.5864
 Frc consts  --      0.0676                 0.1753                 0.1672
 IR Inten    --     36.8510                 6.5656                 4.6582

                     13                     14                     15
                      A                      A                      A
 Frequencies --    387.3137               401.7735               425.1341
 Red. masses --      2.1049                 1.9817                 1.7322
 Frc consts  --      0.1860                 0.1885                 0.1845
 IR Inten    --      9.4742                40.3003                52.9776

                     16                     17                     18
                      A                      A                      A
 Frequencies --    441.0258               462.0449               506.1340
 Red. masses --      2.7063                 3.2357                 4.6742
 Frc consts  --      0.3101                 0.4070                 0.7055
 IR Inten    --      0.6083                 1.8535                12.7120

                     19                     20                     21
                      A                      A                      A
 Frequencies --    556.3084               618.3935               685.7732
 Red. masses --      4.3842                 4.4981                 4.8380
 Frc consts  --      0.7994                 1.0135                 1.3405
 IR Inten    --     11.9882                 7.8779                16.8797

                     22                     23                     24
                      A                      A                      A
 Frequencies --    705.6716               740.5019               803.3703
 Red. masses --      4.3507                 4.0527                 2.8129
 Frc consts  --      1.2765                 1.3093                 1.0696
 IR Inten    --      2.8632                12.7553                33.4673

                     25                     26                     27
                      A                      A                      A
 Frequencies --    831.8090               885.9012               947.4022
 Red. masses --      3.2456                 2.5309                 1.5011
 Frc consts  --      1.3231                 1.1703                 0.7938
 IR Inten    --     12.0447                90.5795                 6.1413

                     28                     29                     30
                      A                      A                      A
 Frequencies --    951.7480               959.7116               967.8353
 Red. masses --      1.9386                 2.5336                 2.7237
 Frc consts  --      1.0346                 1.3749                 1.5032
 IR Inten    --     31.0504               141.7732                88.0160

                     31                     32                     33
                      A                      A                      A
 Frequencies --   1020.5220              1025.2511              1044.4466
 Red. masses --      1.9413                 1.4817                 1.8532
 Frc consts  --      1.1912                 0.9176                 1.1911
 IR Inten    --     10.3380                18.2997                44.3638

                     34                     35                     36
                      A                      A                      A
 Frequencies --   1097.7043              1128.3308              1134.6568
 Red. masses --      6.8787                 2.8954                 2.2763
 Frc consts  --      4.8835                 2.1718                 1.7266
 IR Inten    --     83.3058                43.0209                67.7172

                     37                     38                     39
                      A                      A                      A
 Frequencies --   1190.5914              1222.8795              1236.8034
 Red. masses --      1.9982                 1.8143                 2.4421
 Frc consts  --      1.6689                 1.5985                 2.2010
 IR Inten    --     72.3451                 4.8999                83.7288

                     40                     41                     42
                      A                      A                      A
 Frequencies --   1271.4601              1284.9903              1304.8828
 Red. masses --      1.5312                 1.7019                 1.4141
 Frc consts  --      1.4584                 1.6557                 1.4187
 IR Inten    --     42.3331                60.0949                 6.4454

                     43                     44                     45
                      A                      A                      A
 Frequencies --   1315.7091              1322.2741              1391.5288
 Red. masses --      2.0435                 1.3529                 1.2535
 Frc consts  --      2.0843                 1.3937                 1.4301
 IR Inten    --     21.2399                 9.0187                11.7981

                     46                     47                     48
                      A                      A                      A
 Frequencies --   1414.7278              1426.5642              1430.8930
 Red. masses --      1.2826                 1.5602                 1.3624
 Frc consts  --      1.5125                 1.8707                 1.6435
 IR Inten    --     14.2752                43.7687                21.4988

                     49                     50                     51
                      A                      A                      A
 Frequencies --   1443.9237              1450.1924              1508.1353
 Red. masses --      1.2511                 1.3489                 1.0583
 Frc consts  --      1.5368                 1.6714                 1.4182
 IR Inten    --     21.9545                19.0132                 1.9463

                     52                     53                     54
                      A                      A                      A
 Frequencies --   1510.7559              1515.8769              1524.7313
 Red. masses --      1.0604                 1.0568                 1.0788
 Frc consts  --      1.4260                 1.4308                 1.4777
 IR Inten    --      2.0879                 5.6419                 1.1153

                     55                     56                     57
                      A                      A                      A
 Frequencies --   1529.7877              1547.5712              1694.4128
 Red. masses --      1.0606                 1.0582                 1.0875
 Frc consts  --      1.4624                 1.4933                 1.8396
 IR Inten    --      1.9869                 0.3934                31.8577

                     58                     59                     60
                      A                      A                      A
 Frequencies --   1741.1052              3033.7567              3060.5212
 Red. masses --      7.5346                 1.0635                 1.0599
 Frc consts  --     13.4574                 5.7670                 5.8496
 IR Inten    --      1.6217                40.5257                30.0129

                     61                     62                     63
                      A                      A                      A
 Frequencies --   3074.1289              3079.1963              3096.4664
 Red. masses --      1.0360                 1.0364                 1.1009
 Frc consts  --      5.7682                 5.7899                 6.2192
 IR Inten    --      8.2489                14.1245                32.7214

                     64                     65                     66
                      A                      A                      A
 Frequencies --   3110.7450              3113.3329              3141.9924
 Red. masses --      1.1046                 1.0858                 1.1032
 Frc consts  --      6.2979                 6.2007                 6.4168
 IR Inten    --     12.9204                11.6756                 6.5054

                     67                     68                     69
                      A                      A                      A
 Frequencies --   3156.9696              3157.3907              3169.4773
 Red. masses --      1.1039                 1.1037                 1.0998
 Frc consts  --      6.4819                 6.4829                 6.5093
 IR Inten    --     22.7183                19.8759                11.1042

                     70                     71                     72
                      A                      A                      A
 Frequencies --   3473.5097              3560.3818              3762.7819
 Red. masses --      1.0493                 1.0926                 1.0677
 Frc consts  --      7.4591                 8.1599                 8.9069
 IR Inten    --      6.0768                 5.2587                73.6604

 - Thermochemistry -
 -------------------
 Temperature   298.150 Kelvin.  Pressure   1.00000 Atm.
 Atom     1 has atomic number  6 and mass  12.00000

 Molecular mass:   174.10044 amu.
 Principal axes and moments of inertia in atomic units:
                           1         2         3
     Eigenvalues --  1221.110612387.714072606.59152
           X            0.99973   0.02314  -0.00127
           Y           -0.02311   0.99953   0.02018
           Z            0.00174  -0.02015   0.99980
 This molecule is an asymmetric top.
 Rotational symmetry number  1.
 Warning -- assumption of classical behavior for rotation
           may cause significant error
 Rotational temperatures (Kelvin)      0.07093     0.03627     0.03323
 Rotational constants (GHZ):           1.47795     0.75584     0.69238
 Zero-point vibrational energy     584827.4 (Joules/Mol)
                                  139.77711 (Kcal/Mol)
 Warning -- explicit consideration of  20 degrees of freedom as
           vibrations may cause significant error
 Vibrational temperatures:    105.14   169.49   252.63   300.78   313.16
          (Kelvin)            354.17   373.50   381.21   394.12   417.74
                              455.93   476.62   557.26   578.06   611.67
                              634.54   664.78   728.21   800.40   889.73
                              986.67  1015.30  1065.42  1155.87  1196.79
                             1274.61  1363.10  1369.35  1380.81  1392.50
                             1468.30  1475.11  1502.73  1579.35  1623.42
                             1632.52  1713.00  1759.45  1779.48  1829.35
                             1848.81  1877.44  1893.01  1902.46  2002.10
                             2035.48  2052.51  2058.74  2077.48  2086.50
                             2169.87  2173.64  2181.01  2193.75  2201.02
                             2226.61  2437.88  2505.06  4364.90  4403.41
                             4422.99  4430.28  4455.12  4475.67  4479.39
                             4520.63  4542.18  4542.78  4560.17  4997.61
                             5122.60  5413.80

 Zero-point correction=                           0.222749 (Hartree/Particle)
 Thermal correction to Energy=                    0.234892
 Thermal correction to Enthalpy=                  0.235836
 Thermal correction to Gibbs Free Energy=         0.186046
 Sum of electronic and zero-point Energies=           -610.085174
 Sum of electronic and thermal Energies=              -610.073031
 Sum of electronic and thermal Enthalpies=            -610.072087
 Sum of electronic and thermal Free Energies=         -610.121877

                     E (Thermal)             CV                S
                      KCal/Mol        Cal/Mol-Kelvin    Cal/Mol-Kelvin
 Total                  147.397             47.868            104.792
 Electronic               0.000              0.000              0.000
 Translational            0.889              2.981             41.371
 Rotational               0.889              2.981             30.409
 Vibrational            145.619             41.906             33.013
 Vibration     1          0.599              1.967              4.069
 Vibration     2          0.608              1.935              3.136
 Vibration     3          0.628              1.872              2.375
 Vibration     4          0.642              1.827              2.052
 Vibration     5          0.646              1.814              1.979
 Vibration     6          0.661              1.769              1.758
 Vibration     7          0.668              1.747              1.665
 Vibration     8          0.671              1.737              1.629
 Vibration     9          0.676              1.721              1.571
 Vibration    10          0.686              1.692              1.472
 Vibration    11          0.704              1.641              1.326
 Vibration    12          0.714              1.613              1.254
 Vibration    13          0.756              1.497              1.010
 Vibration    14          0.767              1.466              0.956
 Vibration    15          0.787              1.416              0.875
 Vibration    16          0.801              1.381              0.823
 Vibration    17          0.820              1.334              0.760
 Vibration    18          0.861              1.236              0.643
 Vibration    19          0.912              1.126              0.531
 Vibration    20          0.978              0.993              0.419

 Optimization completed.
    -- Stationary point found.
 Normal termination of Gaussian 16 at Wed Dec  9 18:13:42 2020.

 ----------------------------------------------------------------------
 # B3LYP/6-311++G(d,p) empiricaldispersion=gd3bj scf=xqc pop=npa geom=c
 heck
 ----------------------------------------------------------------------

 ---------------------------------------
 CID_142935913_JID_2851_Energie_neutraal
 ---------------------------------------
 Structure from the checkpoint file:  "JID_2851.chk"
 Charge =  0 Multiplicity = 1

 SCF Done:  E(RB3LYP) =  -610.500277307     A.U. after   14 cycles
 Normal termination of Gaussian 16 at Wed Dec  9 18:16:54 2020.

 ----------------------------------------------------------------------
 # B3LYP/6-311++G(d,p) empiricaldispersion=gd3bj scf=xqc pop=npa geom=c
 heck
 ----------------------------------------------------------------------

 -------------------------------------
 CID_142935913_JID_2851_Energie_kation
 -------------------------------------
 Structure from the checkpoint file:  "JID_2851.chk"
 Charge =  1 Multiplicity = 2

 SCF Done:  E(UB3LYP) =  -610.180867524     A.U. after   24 cycles
 Normal termination of Gaussian 16 at Wed Dec  9 18:24:45 2020.
 Gaussian 16:  ES64L-G16RevA.03 25-Dec-2016

 ----------------------------------------------------------------------
 # B3LYP/6-311++G(d,p) empiricaldispersion=gd3bj scf=xqc pop=npa geom=c
 heck
 ----------------------------------------------------------------------

 ------------------------------------
 CID_142935913_JID_2851_Energie_anion
 ------------------------------------
 Structure from the checkpoint file:  "JID_2851.chk"
 Charge = -1 Multiplicity = 2

                         Standard orientation:
 ---------------------------------------------------------------------
 Center     Atomic      Atomic             Coordinates (Angstroms)
 Number     Number       Type             X           Y           Z
 ---------------------------------------------------------------------
      1          6           0       -3.117900   -0.087181    0.006552
      2          6           0       -1.613106   -0.284206   -0.134188
      3          8           0       -1.198080    0.803654   -0.961096
      4          6           0        0.163870    0.912511   -1.351651
      5          6           0        1.133094    1.089893   -0.156250
      6          6           0        1.253330   -0.245867    0.541193
      7          7           0        2.125312   -1.148001    0.288780
      8          8           0        3.064956   -0.724518   -0.678680
      9          6           0        0.185517   -0.622284    1.538823
     10          8           0       -1.107216   -0.125758    1.194127
     11          7           0        0.739673    2.127044    0.798990
     12          6           0       -1.282942   -1.649525   -0.743681
     13          1           0       -3.595375   -0.121012   -0.976131
     14          1           0       -3.309929    0.888175    0.460670
     15          1           0       -3.541694   -0.866267    0.645333
     16          1           0        0.195970    1.811824   -1.975729
     17          1           0        0.481773    0.060598   -1.968807
     18          1           0        2.114365    1.344530   -0.564787
     19          1           0        3.661657   -1.487284   -0.721702
     20          1           0        0.402332   -0.151320    2.502539
     21          1           0        0.181082   -1.709848    1.676396
     22          1           0        0.851626    3.040201    0.362573
     23          1           0       -0.253861    2.016591    0.997417
     24          1           0       -1.683312   -2.440964   -0.103005
     25          1           0       -1.755899   -1.724981   -1.726898
     26          1           0       -0.212089   -1.820610   -0.861852
 ---------------------------------------------------------------------

 SCF Done:  E(UB3LYP) =  -610.484430188     A.U. after   33 cycles
 SCF Done:  E(UB3LYP) =  -610.484430188     a.u. after    1 cycles

 The electronic state is 2-A.
 Alpha  occ. eigenvalues --  -19.05662 -19.03350 -19.02603 -14.25878 -14.19082
 Alpha  occ. eigenvalues --  -10.18191 -10.12822 -10.11441 -10.10947 -10.10419
 Alpha  occ. eigenvalues --  -10.06356 -10.06119  -0.97733  -0.97095  -0.91256
 Alpha  occ. eigenvalues --   -0.79922  -0.76231  -0.69073  -0.62628  -0.61260
 Alpha  occ. eigenvalues --   -0.59484  -0.54926  -0.47918  -0.44930  -0.42263
 Alpha  occ. eigenvalues --   -0.40802  -0.39123  -0.38748  -0.37917  -0.35776
 Alpha  occ. eigenvalues --   -0.34790  -0.33493  -0.33053  -0.30936  -0.30038
 Alpha  occ. eigenvalues --   -0.29392  -0.28873  -0.28699  -0.27107  -0.26004
 Alpha  occ. eigenvalues --   -0.23084  -0.22283  -0.18850  -0.18478  -0.17384
 Alpha  occ. eigenvalues --   -0.15640  -0.14024   0.04752
 Alpha virt. eigenvalues --    0.06904   0.07181   0.08499   0.08636   0.08993
 Alpha virt. eigenvalues --    0.10137   0.10786   0.11036   0.11636   0.12520
 Alpha virt. eigenvalues --    0.13196   0.13348   0.14119   0.15483   0.15949

  Beta  occ. eigenvalues --  -19.05610 -19.03345 -19.02600 -14.25837 -14.19059
  Beta  occ. eigenvalues --  -10.18191 -10.12815 -10.11414 -10.10951 -10.10401
  Beta  occ. eigenvalues --  -10.06320 -10.06096  -0.97650  -0.97066  -0.91246
  Beta  occ. eigenvalues --   -0.79871  -0.76153  -0.69045  -0.62568  -0.61219
  Beta  occ. eigenvalues --   -0.59435  -0.54867  -0.47860  -0.44886  -0.42225
  Beta  occ. eigenvalues --   -0.40752  -0.39075  -0.38705  -0.37877  -0.35750
  Beta  occ. eigenvalues --   -0.34755  -0.33457  -0.33010  -0.30884  -0.29985
  Beta  occ. eigenvalues --   -0.29356  -0.28835  -0.28660  -0.27069  -0.25963
  Beta  occ. eigenvalues --   -0.23067  -0.22264  -0.18820  -0.18435  -0.17328
  Beta  occ. eigenvalues --   -0.15588  -0.13979
  Beta virt. eigenvalues --    0.07024   0.08072   0.08307   0.08772   0.08944
  Beta virt. eigenvalues --    0.09557   0.10599   0.11158   0.11423   0.12065
  Beta virt. eigenvalues --    0.12914   0.13528   0.13662   0.14526   0.15623

 Mulliken charges and spin densities:
               1          2
     1  C   -0.228046  -0.137124
     2  C   -1.159532   0.610544
     3  O   -0.019282   0.005670
     4  C    0.488777  -1.033882
     5  C   -0.843248   1.010202
     6  C    1.253140  -1.383492
     7  N   -0.312882   0.171569
     8  O   -0.103769   0.013432
     9  C    0.599871  -1.081971
    10  O   -0.071566   0.026968
    11  N   -0.333332  -0.042139
    12  C    1.283087  -1.560102
    13  H   -0.058018   0.221033
    14  H   -0.130055   0.288410
    15  H   -0.060283   0.211663
    16  H   -0.741635   0.952381
    17  H    0.069598   0.094948
    18  H    0.038779   0.219497
    19  H   -0.311156   0.594294
    20  H    0.101991   0.102504
    21  H    0.022024   0.164698
    22  H   -0.087091   0.330567
    23  H    0.292321  -0.030913
    24  H    0.077999   0.085567
    25  H   -0.332353   0.519217
    26  H   -0.435339   0.646456
 Sum of Mulliken charges =  -1.00000   1.00000

 Dipole moment (field-independent basis, Debye):
    X=             -3.0157    Y=              0.3789    Z=              3.3662  Tot=              4.5353
 Quadrupole moment (field-independent basis, Debye-Ang):
   XX=           -129.7315   YY=           -114.4000   ZZ=           -107.5570
   XY=              3.0818   XZ=              2.8291   YZ=             -1.7903

 Summary of Natural Population Analysis:

                                       Natural Population
                Natural  -----------------------------------------------
    Atom  No    Charge         Core      Valence    Rydberg      Total
 -----------------------------------------------------------------------
      C    1   -0.28601      0.99959     2.27973    0.00669     3.28601
      C    2    0.28842      0.99955     1.68993    0.02210     2.71158
      O    3   -0.31510      0.99986     3.30396    0.01128     4.31510
      C    4   -0.01294      0.99954     1.99929    0.01411     3.01294
      C    5   -0.05773      0.99954     2.04371    0.01449     3.05773
      C    6    0.10361      0.99957     1.87713    0.01969     2.89639
      N    7   -0.08355      0.99957     2.56919    0.01479     3.58355
      O    8   -0.28675      0.99990     3.27995    0.00690     4.28675
      C    9   -0.02754      0.99950     2.01610    0.01194     3.02754
      O   10   -0.31406      0.99986     3.30520    0.00900     4.31406
      N   11   -0.42281      0.99977     2.91302    0.01002     3.92281
      C   12   -0.31849      0.99959     2.31258    0.00632     3.31849
      H   13    0.10353      0.00000     0.39527    0.00120     0.39647
      H   14    0.10638      0.00000     0.39231    0.00131     0.39362
      H   15    0.10091      0.00000     0.39790    0.00119     0.39909
      H   16    0.09470      0.00000     0.40319    0.00212     0.40530
      H   17    0.08875      0.00000     0.40903    0.00222     0.41125
      H   18    0.11659      0.00000     0.38127    0.00214     0.38341
      H   19    0.24002      0.00000     0.24462    0.01537     0.25998
      H   20    0.10281      0.00000     0.39585    0.00134     0.39719
      H   21    0.09394      0.00000     0.40438    0.00168     0.40606
      H   22    0.17629      0.00000     0.32199    0.00171     0.32371
      H   23    0.18263      0.00000     0.31493    0.00245     0.31737
      H   24    0.10583      0.00000     0.39296    0.00121     0.39417
      H   25    0.10962      0.00000     0.38913    0.00126     0.39038
      H   26    0.11095      0.00000     0.38735    0.00170     0.38905
 =======================================================================
   * Total *   -0.00000     11.99584    34.81995    0.18421    47.00000

 Normal termination of Gaussian 16 at Wed Dec  9 18:34:45 2020.
