 Gaussian 16, Revision A.03,

 -----------------------------------------------------------
 # opt freq B3LYP/6-31G(d) empiricaldispersion=gd3bj scf=xqc
 -----------------------------------------------------------

 ------------------------------
 CID_10084115_JID_9568_neutraal
 ------------------------------
 Symbolic Z-matrix:
 Charge =  0 Multiplicity = 1

 SCF Done:  E(RB3LYP) =  -895.598669905     A.U. after   15 cycles
 SCF Done:  E(RB3LYP) =  -895.605775439     A.U. after   13 cycles
 SCF Done:  E(RB3LYP) =  -895.599297904     A.U. after   13 cycles
 SCF Done:  E(RB3LYP) =  -895.606538744     A.U. after   13 cycles
 SCF Done:  E(RB3LYP) =  -895.608808033     A.U. after   13 cycles
 SCF Done:  E(RB3LYP) =  -895.609382763     A.U. after   11 cycles
 SCF Done:  E(RB3LYP) =  -895.609513783     A.U. after   11 cycles
 SCF Done:  E(RB3LYP) =  -895.609632668     A.U. after   11 cycles
 SCF Done:  E(RB3LYP) =  -895.609700200     A.U. after   11 cycles
 SCF Done:  E(RB3LYP) =  -895.609727776     A.U. after   10 cycles
 SCF Done:  E(RB3LYP) =  -895.620863896     A.U. after   10 cycles
 SCF Done:  E(RB3LYP) =  -895.620869039     A.U. after   10 cycles
 SCF Done:  E(RB3LYP) =  -895.620869119     A.U. after    7 cycles
 SCF Done:  E(RB3LYP) =  -895.620869153     A.U. after    7 cycles
 SCF Done:  E(RB3LYP) =  -895.620869166     A.U. after    6 cycles
 Optimization completed.
    -- Stationary point found.
 Normal termination of Gaussian 16 at Sun Dec 13 13:26:52 2020.

 --------------------------------------------------------------------
 #N Geom=AllCheck Guess=TCheck SCRF=Check GenChk RB3LYP/6-31G(d) Freq
 --------------------------------------------------------------------

 Structure from the checkpoint file:  "JID_9568.chk"
 ------------------------------
 CID_10084115_JID_9568_neutraal
 ------------------------------
 Charge =  0 Multiplicity = 1

 SCF Done:  E(RB3LYP) =  -895.620869166     A.U. after    1 cycles

  Exact polarizability: 189.666  -0.060 152.525  34.043   3.120 122.799
 Approx polarizability: 270.507  -5.953 252.704  67.937  -0.446 199.218

                      1                      2                      3
                      A                      A                      A
 Frequencies --     17.0985                44.9223                57.5981
 Red. masses --      6.4665                 3.1869                 6.5497
 Frc consts  --      0.0011                 0.0038                 0.0128
 IR Inten    --      0.1029                 0.1396                 2.5193

                      4                      5                      6
                      A                      A                      A
 Frequencies --     73.5855                93.6515               141.5166
 Red. masses --      4.6241                 4.7811                 5.3464
 Frc consts  --      0.0148                 0.0247                 0.0631
 IR Inten    --      0.3335                 0.7775                 1.8923

                      7                      8                      9
                      A                      A                      A
 Frequencies --    164.9249               199.8380               240.3093
 Red. masses --      6.9254                 3.0717                 3.1826
 Frc consts  --      0.1110                 0.0723                 0.1083
 IR Inten    --      3.0063                 0.9986                 1.6019

                     10                     11                     12
                      A                      A                      A
 Frequencies --    259.9420               266.4810               306.6488
 Red. masses --      2.2432                 2.0326                 3.6859
 Frc consts  --      0.0893                 0.0850                 0.2042
 IR Inten    --      0.5630                 1.7822                 1.6196

                     13                     14                     15
                      A                      A                      A
 Frequencies --    334.2527               342.0818               352.6116
 Red. masses --      4.5307                 2.2266                 5.9611
 Frc consts  --      0.2982                 0.1535                 0.4367
 IR Inten    --     11.0368                 7.0721                 1.7198

                     16                     17                     18
                      A                      A                      A
 Frequencies --    385.3386               426.8040               430.2469
 Red. masses --      4.0566                 4.2166                 1.9389
 Frc consts  --      0.3549                 0.4526                 0.2115
 IR Inten    --      2.3946                 0.7332                 0.3439

                     19                     20                     21
                      A                      A                      A
 Frequencies --    448.6431               496.8066               519.2615
 Red. masses --      4.6596                 2.7454                 7.8454
 Frc consts  --      0.5526                 0.3992                 1.2463
 IR Inten    --      1.5570                 1.2588                 1.6719

                     22                     23                     24
                      A                      A                      A
 Frequencies --    538.7964               589.2358               609.5821
 Red. masses --      4.1610                 4.0954                 2.2799
 Frc consts  --      0.7117                 0.8378                 0.4992
 IR Inten    --     10.8557                 2.2241                 8.2270

                     25                     26                     27
                      A                      A                      A
 Frequencies --    635.8790               673.7891               694.5045
 Red. masses --      3.0353                 7.3981                 6.3238
 Frc consts  --      0.7231                 1.9789                 1.7971
 IR Inten    --      6.5775                 6.7257                 5.1497

                     28                     29                     30
                      A                      A                      A
 Frequencies --    732.1890               737.6915               758.2002
 Red. masses --      4.4940                 4.6393                 8.4734
 Frc consts  --      1.4195                 1.4875                 2.8699
 IR Inten    --     22.0662                 3.0609                13.4747

                     31                     32                     33
                      A                      A                      A
 Frequencies --    776.1943               796.7921               826.1700
 Red. masses --      2.3266                 1.3034                 2.1736
 Frc consts  --      0.8259                 0.4876                 0.8741
 IR Inten    --     23.0642                42.6075                 4.7317

                     34                     35                     36
                      A                      A                      A
 Frequencies --    874.2405               881.3151               894.1950
 Red. masses --      2.5576                 1.7144                 2.9746
 Frc consts  --      1.1517                 0.7846                 1.4013
 IR Inten    --      1.4745                 0.9535                26.9780

                     37                     38                     39
                      A                      A                      A
 Frequencies --    899.5115               919.2727               933.5321
 Red. masses --      6.1697                 1.3496                 2.2368
 Frc consts  --      2.9412                 0.6720                 1.1485
 IR Inten    --      7.6181                 1.3907                 8.8024

                     40                     41                     42
                      A                      A                      A
 Frequencies --    962.8649               967.9794              1008.3193
 Red. masses --      1.3037                 4.4829                 2.6171
 Frc consts  --      0.7122                 2.4748                 1.5677
 IR Inten    --      1.2728                51.7163                23.0885

                     43                     44                     45
                      A                      A                      A
 Frequencies --   1021.4348              1045.5281              1063.9704
 Red. masses --      2.0552                 2.2145                 2.4101
 Frc consts  --      1.2634                 1.4263                 1.6075
 IR Inten    --     25.2433                 5.7771                16.0000

                     46                     47                     48
                      A                      A                      A
 Frequencies --   1076.3334              1084.0790              1111.1539
 Red. masses --      2.4762                 2.7739                 2.4694
 Frc consts  --      1.6902                 1.9207                 1.7963
 IR Inten    --     14.3890                 8.3585                17.4535

                     49                     50                     51
                      A                      A                      A
 Frequencies --   1112.4356              1135.8863              1150.8375
 Red. masses --      1.7669                 2.0223                 5.6264
 Frc consts  --      1.2883                 1.5373                 4.3904
 IR Inten    --      1.5887                 1.7639                97.5234

                     52                     53                     54
                      A                      A                      A
 Frequencies --   1159.2877              1177.9678              1192.6776
 Red. masses --      2.1437                 1.7138                 2.5769
 Frc consts  --      1.6975                 1.4012                 2.1597
 IR Inten    --      1.8134                 7.0371                41.8067

                     55                     56                     57
                      A                      A                      A
 Frequencies --   1212.8595              1248.3108              1271.8118
 Red. masses --      2.4768                 1.0790                 1.3259
 Frc consts  --      2.1466                 0.9906                 1.2636
 IR Inten    --      6.8346                 5.5309                 5.7097

                     58                     59                     60
                      A                      A                      A
 Frequencies --   1283.4597              1290.3753              1314.2176
 Red. masses --      1.4323                 3.7625                 1.3373
 Frc consts  --      1.3901                 3.6911                 1.3608
 IR Inten    --     17.6836                67.9636                18.1820

                     61                     62                     63
                      A                      A                      A
 Frequencies --   1321.5765              1338.8319              1355.0981
 Red. masses --      1.4047                 1.5131                 1.2127
 Frc consts  --      1.4455                 1.5979                 1.3120
 IR Inten    --     38.1973                38.5832                 3.2364

                     64                     65                     66
                      A                      A                      A
 Frequencies --   1359.0099              1379.2472              1380.9062
 Red. masses --      1.5107                 1.3184                 4.3097
 Frc consts  --      1.6439                 1.4777                 4.8420
 IR Inten    --      6.3572                 3.4788                99.3935

                     67                     68                     69
                      A                      A                      A
 Frequencies --   1402.1462              1406.4630              1417.1619
 Red. masses --      1.4306                 1.4474                 1.4024
 Frc consts  --      1.6571                 1.6869                 1.6594
 IR Inten    --     16.5104                13.7370                39.1088

                     70                     71                     72
                      A                      A                      A
 Frequencies --   1428.2725              1445.6912              1448.7420
 Red. masses --      1.4719                 1.6287                 1.5401
 Frc consts  --      1.7691                 2.0056                 1.9045
 IR Inten    --     15.6229                 2.7842                 1.3289

                     73                     74                     75
                      A                      A                      A
 Frequencies --   1455.5989              1484.2674              1510.7655
 Red. masses --      1.4758                 4.6437                 1.0924
 Frc consts  --      1.8423                 6.0275                 1.4690
 IR Inten    --      4.0658               208.2570                 1.6734

                     76                     77                     78
                      A                      A                      A
 Frequencies --   1514.2673              1516.9090              1518.7704
 Red. masses --      1.1069                 2.1168                 1.1533
 Frc consts  --      1.4955                 2.8698                 1.5673
 IR Inten    --      2.9560                18.7944                20.5376

                     79                     80                     81
                      A                      A                      A
 Frequencies --   1523.4011              1528.1090              1531.3257
 Red. masses --      1.1028                 1.1422                 1.1090
 Frc consts  --      1.5080                 1.5714                 1.5322
 IR Inten    --      4.8868                23.2800                 5.3978

                     82                     83                     84
                      A                      A                      A
 Frequencies --   1541.5869              1666.8839              1669.3072
 Red. masses --      1.1055                 7.4031                 8.0476
 Frc consts  --      1.5479                12.1192                13.2126
 IR Inten    --      5.0073                41.2386                18.4138

                     85                     86                     87
                      A                      A                      A
 Frequencies --   1896.7806              2930.7417              2931.9967
 Red. masses --     12.4321                 1.0738                 1.0724
 Frc consts  --     26.3528                 5.4342                 5.4319
 IR Inten    --    662.1820                19.2997                37.4233

                     88                     89                     90
                      A                      A                      A
 Frequencies --   2944.2753              3026.2342              3035.1668
 Red. masses --      1.0721                 1.0662                 1.0662
 Frc consts  --      5.4759                 5.7532                 5.7871
 IR Inten    --    174.0130                24.4632                30.9334

                     91                     92                     93
                      A                      A                      A
 Frequencies --   3057.5625              3068.1936              3072.3996
 Red. masses --      1.0646                 1.0690                 1.0895
 Frc consts  --      5.8639                 5.9293                 6.0596
 IR Inten    --     16.6531                39.3795                17.7304

                     94                     95                     96
                      A                      A                      A
 Frequencies --   3077.3615              3081.9311              3097.7563
 Red. masses --      1.0896                 1.0871                 1.0990
 Frc consts  --      6.0797                 6.0838                 6.2137
 IR Inten    --     34.1270                34.5818                54.3382

                     97                     98                     99
                      A                      A                      A
 Frequencies --   3114.9334              3119.2912              3160.6441
 Red. masses --      1.0988                 1.1002                 1.0943
 Frc consts  --      6.2818                 6.3073                 6.4406
 IR Inten    --     48.4246                39.6251                 5.2677

                    100                    101                    102
                      A                      A                      A
 Frequencies --   3199.7515              3216.7311              3229.8071
 Red. masses --      1.0883                 1.0915                 1.0961
 Frc consts  --      6.5650                 6.6541                 6.7366
 IR Inten    --      6.4421                20.4740                 7.0641

 - Thermochemistry -
 -------------------
 Temperature   298.150 Kelvin.  Pressure   1.00000 Atm.
 Atom     1 has atomic number  6 and mass  12.00000

 Molecular mass:   263.12699 amu.
 Principal axes and moments of inertia in atomic units:
                           1         2         3
     Eigenvalues --  2466.662606723.554477322.04987
           X            0.99998  -0.00414   0.00471
           Y            0.00395   0.99924   0.03878
           Z           -0.00487  -0.03877   0.99924
 This molecule is an asymmetric top.
 Rotational symmetry number  1.
 Warning -- assumption of classical behavior for rotation
           may cause significant error
 Rotational temperatures (Kelvin)      0.03511     0.01288     0.01183
 Rotational constants (GHZ):           0.73165     0.26842     0.24648
 Zero-point vibrational energy     793550.9 (Joules/Mol)
                                  189.66321 (Kcal/Mol)
 Warning -- explicit consideration of  24 degrees of freedom as
           vibrations may cause significant error
 Vibrational temperatures:     24.60    64.63    82.87   105.87   134.74
          (Kelvin)            203.61   237.29   287.52   345.75   374.00
                              383.41   441.20   480.92   492.18   507.33
                              554.42   614.08   619.03   645.50   714.79
                              747.10   775.21   847.78   877.05   914.89
                              969.43   999.24  1053.46  1061.37  1090.88
                             1116.77  1146.41  1188.67  1257.84  1268.02
                             1286.55  1294.20  1322.63  1343.14  1385.35
                             1392.71  1450.75  1469.62  1504.28  1530.82
                             1548.60  1559.75  1598.70  1600.55  1634.29
                             1655.80  1667.96  1694.83  1716.00  1745.03
                             1796.04  1829.85  1846.61  1856.56  1890.87
                             1901.45  1926.28  1949.68  1955.31  1984.43
                             1986.82  2017.38  2023.59  2038.98  2054.97
                             2080.03  2084.42  2094.28  2135.53  2173.65
                             2178.69  2182.49  2185.17  2191.83  2198.61
                             2203.24  2218.00  2398.27  2401.76  2729.04
                             4216.68  4218.49  4236.16  4354.08  4366.93
                             4399.15  4414.45  4420.50  4427.64  4434.21
                             4456.98  4481.69  4487.96  4547.46  4603.73
                             4628.16  4646.97

 Zero-point correction=                           0.302248 (Hartree/Particle)
 Thermal correction to Energy=                    0.317951
 Thermal correction to Enthalpy=                  0.318895
 Thermal correction to Gibbs Free Energy=         0.257822
 Sum of electronic and zero-point Energies=           -895.318622
 Sum of electronic and thermal Energies=              -895.302918
 Sum of electronic and thermal Enthalpies=            -895.301974
 Sum of electronic and thermal Free Energies=         -895.363047

                     E (Thermal)             CV                S
                      KCal/Mol        Cal/Mol-Kelvin    Cal/Mol-Kelvin
 Total                  199.517             62.023            128.539
 Electronic               0.000              0.000              0.000
 Translational            0.889              2.981             42.602
 Rotational               0.889              2.981             33.162
 Vibrational            197.740             56.061             52.775
 Vibration     1          0.593              1.986              6.945
 Vibration     2          0.595              1.979              5.029
 Vibration     3          0.596              1.974              4.538
 Vibration     4          0.599              1.966              4.055
 Vibration     5          0.603              1.954              3.582
 Vibration     6          0.615              1.912              2.783
 Vibration     7          0.623              1.886              2.493
 Vibration     8          0.638              1.840              2.135
 Vibration     9          0.657              1.779              1.801
 Vibration    10          0.668              1.746              1.662
 Vibration    11          0.672              1.735              1.619
 Vibration    12          0.697              1.661              1.380
 Vibration    13          0.716              1.607              1.239
 Vibration    14          0.721              1.591              1.202
 Vibration    15          0.729              1.570              1.155
 Vibration    16          0.754              1.501              1.018
 Vibration    17          0.788              1.412              0.869
 Vibration    18          0.791              1.404              0.858
 Vibration    19          0.808              1.364              0.800
 Vibration    20          0.852              1.257              0.666
 Vibration    21          0.874              1.207              0.612
 Vibration    22          0.894              1.164              0.568
 Vibration    23          0.947              1.055              0.469
 Vibration    24          0.969              1.012              0.433

 Optimization completed.
    -- Stationary point found.
 Normal termination of Gaussian 16 at Sun Dec 13 13:48:42 2020.

 ----------------------------------------------------------------------
 # B3LYP/6-311++G(d,p) empiricaldispersion=gd3bj scf=xqc pop=npa geom=c
 heck
 ----------------------------------------------------------------------

 --------------------------------------
 CID_10084115_JID_9568_Energie_neutraal
 --------------------------------------
 Structure from the checkpoint file:  "JID_9568.chk"
 Charge =  0 Multiplicity = 1

 SCF Done:  E(RB3LYP) =  -895.863925307     A.U. after   15 cycles
 Normal termination of Gaussian 16 at Sun Dec 13 13:57:43 2020.

 ----------------------------------------------------------------------
 # B3LYP/6-311++G(d,p) empiricaldispersion=gd3bj scf=xqc pop=npa geom=c
 heck
 ----------------------------------------------------------------------

 ------------------------------------
 CID_10084115_JID_9568_Energie_kation
 ------------------------------------
 Structure from the checkpoint file:  "JID_9568.chk"
 Charge =  1 Multiplicity = 2

 SCF Done:  E(UB3LYP) =  -895.573567810     A.U. after   25 cycles
 Normal termination of Gaussian 16 at Sun Dec 13 14:18:37 2020.
 Gaussian 16:  ES64L-G16RevA.03 25-Dec-2016

 ----------------------------------------------------------------------
 # B3LYP/6-311++G(d,p) empiricaldispersion=gd3bj scf=xqc pop=npa geom=c
 heck
 ----------------------------------------------------------------------

 -----------------------------------
 CID_10084115_JID_9568_Energie_anion
 -----------------------------------
 Structure from the checkpoint file:  "JID_9568.chk"
 Charge = -1 Multiplicity = 2

                         Standard orientation:
 ---------------------------------------------------------------------
 Center     Atomic      Atomic             Coordinates (Angstroms)
 Number     Number       Type             X           Y           Z
 ---------------------------------------------------------------------
      1          6           0       -2.966120   -1.049229    0.219277
      2          6           0       -3.800427    0.068778   -0.400506
      3          8           0       -3.943533    1.156172    0.501975
      4          6           0       -2.667149    1.682044    0.846038
      5          6           0       -1.796159    0.613264    1.500588
      6          7           0       -1.656275   -0.525788    0.595659
      7          6           0       -0.737118   -1.537447    1.086548
      8          6           0       -0.236154   -2.469536   -0.026043
      9          6           0        0.140260   -1.731005   -1.322003
     10          7           0        0.879582   -0.497639   -1.091279
     11          6           0        2.035096   -0.327911   -0.343758
     12          6           0        2.212203    1.058378   -0.200688
     13          7           0        3.177553    1.668527    0.432871
     14          6           0        4.085818    0.838826    0.997710
     15          6           0        4.020210   -0.551146    0.921230
     16          6           0        2.967381   -1.175805    0.230292
     17          8           0        1.188733    1.711945   -0.845796
     18          6           0        0.350591    0.749203   -1.407880
     19          8           0       -0.628557    1.014667   -2.054240
     20          1           0       -3.500740   -1.469195    1.094163
     21          1           0       -2.841434   -1.855191   -0.512992
     22          1           0       -3.315818    0.405942   -1.328921
     23          1           0       -4.810960   -0.284035   -0.626524
     24          1           0       -2.847720    2.508526    1.539217
     25          1           0       -2.160944    2.065590   -0.051629
     26          1           0       -2.245615    0.316402    2.468257
     27          1           0       -0.800206    1.025881    1.703131
     28          1           0        0.123509   -1.011773    1.514566
     29          1           0       -1.169263   -2.146498    1.904702
     30          1           0        0.619425   -3.034494    0.362103
     31          1           0       -0.993883   -3.217294   -0.287919
     32          1           0        0.725031   -2.386496   -1.978035
     33          1           0       -0.754320   -1.422995   -1.863826
     34          1           0        4.897374    1.323880    1.532403
     35          1           0        4.788031   -1.151622    1.397511
     36          1           0        2.897775   -2.255077    0.152711
 ---------------------------------------------------------------------

 SCF Done:  E(UB3LYP) =  -895.861600593     A.U. after   33 cycles
 SCF Done:  E(UB3LYP) =  -895.861600593     a.u. after    1 cycles

 The electronic state is 2-A.
 Alpha  occ. eigenvalues --  -19.08009 -19.03394 -19.00173 -14.26411 -14.21143
 Alpha  occ. eigenvalues --  -14.18960 -10.21929 -10.14589 -10.12229 -10.12152
 Alpha  occ. eigenvalues --  -10.11462 -10.10565 -10.10257 -10.10125 -10.09740
 Alpha  occ. eigenvalues --  -10.08752 -10.07329 -10.06764 -10.06678  -1.03059
 Alpha  occ. eigenvalues --   -0.95058  -0.93820  -0.86408  -0.83409  -0.83202
 Alpha  occ. eigenvalues --   -0.70254  -0.68457  -0.68038  -0.64626  -0.62586
 Alpha  occ. eigenvalues --   -0.57744  -0.56347  -0.53926  -0.53047  -0.51586
 Alpha  occ. eigenvalues --   -0.48395  -0.46959  -0.44797  -0.41828  -0.41147
 Alpha  occ. eigenvalues --   -0.40033  -0.38669  -0.38030  -0.37630  -0.37207
 Alpha  occ. eigenvalues --   -0.36587  -0.35261  -0.34073  -0.33921  -0.33327
 Alpha  occ. eigenvalues --   -0.31749  -0.30940  -0.30047  -0.29541  -0.28955
 Alpha  occ. eigenvalues --   -0.28425  -0.27884  -0.27348  -0.26624  -0.25494
 Alpha  occ. eigenvalues --   -0.24272  -0.24198  -0.22258  -0.21657  -0.19571
 Alpha  occ. eigenvalues --   -0.17102  -0.16650  -0.16071  -0.12815  -0.11632
 Alpha  occ. eigenvalues --    0.04303
 Alpha virt. eigenvalues --    0.06271   0.07278   0.07778   0.08264   0.08648
 Alpha virt. eigenvalues --    0.09359   0.10037   0.10367   0.10707   0.10772
 Alpha virt. eigenvalues --    0.11432   0.11868   0.12690   0.13144   0.13665

  Beta  occ. eigenvalues --  -19.08025 -19.03393 -19.00147 -14.26432 -14.21135
  Beta  occ. eigenvalues --  -14.18643 -10.21888 -10.14572 -10.12227 -10.12152
  Beta  occ. eigenvalues --  -10.11453 -10.10488 -10.10256 -10.10112 -10.09730
  Beta  occ. eigenvalues --  -10.08670 -10.07282 -10.06782 -10.06410  -1.03027
  Beta  occ. eigenvalues --   -0.95056  -0.93773  -0.86379  -0.83381  -0.82798
  Beta  occ. eigenvalues --   -0.70038  -0.68272  -0.67986  -0.64454  -0.62524
  Beta  occ. eigenvalues --   -0.57684  -0.56335  -0.53807  -0.52749  -0.51528
  Beta  occ. eigenvalues --   -0.48291  -0.46903  -0.44670  -0.41754  -0.41052
  Beta  occ. eigenvalues --   -0.39918  -0.38653  -0.37995  -0.37588  -0.37090
  Beta  occ. eigenvalues --   -0.36500  -0.35213  -0.34006  -0.33881  -0.33297
  Beta  occ. eigenvalues --   -0.31712  -0.30856  -0.29988  -0.28982  -0.28778
  Beta  occ. eigenvalues --   -0.28326  -0.27841  -0.27306  -0.26613  -0.25406
  Beta  occ. eigenvalues --   -0.24170  -0.24055  -0.22116  -0.21224  -0.19547
  Beta  occ. eigenvalues --   -0.17052  -0.15768  -0.15587  -0.12742  -0.11095
  Beta virt. eigenvalues --    0.06873   0.07530   0.08041   0.08480   0.08671
  Beta virt. eigenvalues --    0.08941   0.09723   0.10396   0.10557   0.10771
  Beta virt. eigenvalues --    0.11016   0.11505   0.11868   0.12897   0.13377

 Mulliken charges and spin densities:
               1          2
     1  C    0.250247  -0.369832
     2  C   -0.387794  -0.151837
     3  O   -0.138917   0.004423
     4  C   -0.466773   0.005846
     5  C   -0.056402  -0.010235
     6  N    0.159975   0.004811
     7  C   -0.585221   0.271399
     8  C    1.234745  -1.616918
     9  C   -0.076579  -0.054970
    10  N    0.036381  -0.012880
    11  C    0.636555  -0.087830
    12  C   -0.666250   0.091936
    13  N   -0.123978   0.157367
    14  C   -0.205810   0.029536
    15  C    0.565462  -0.826808
    16  C   -0.268353   0.434602
    17  O   -0.060939  -0.004446
    18  C   -0.048859  -0.029597
    19  O   -0.311805   0.009397
    20  H    0.080493   0.057541
    21  H    0.011984   0.105377
    22  H    0.206219  -0.027798
    23  H    0.091418   0.070897
    24  H    0.160993   0.002238
    25  H    0.183850   0.002452
    26  H    0.112160   0.026513
    27  H    0.126339   0.011876
    28  H    0.056022   0.085554
    29  H   -0.138090   0.269976
    30  H   -0.508661   0.660783
    31  H   -0.741211   0.936803
    32  H   -0.051145   0.255273
    33  H    0.077300   0.084560
    34  H    0.150374   0.001446
    35  H   -0.061430   0.218745
    36  H   -0.242302   0.393800
 Sum of Mulliken charges =  -1.00000   1.00000

 Dipole moment (field-independent basis, Debye):
    X=             -2.3756    Y=              2.8706    Z=              0.5668  Tot=              3.7690
 Quadrupole moment (field-independent basis, Debye-Ang):
   XX=           -167.7291   YY=           -170.7202   ZZ=           -135.8281
   XY=             -2.9500   XZ=             -2.2571   YZ=              6.5305

 Summary of Natural Population Analysis:

                                       Natural Population
                Natural  -----------------------------------------------
    Atom  No    Charge         Core      Valence    Rydberg      Total
 -----------------------------------------------------------------------
      C    1   -0.09793      0.99962     2.08665    0.01166     3.09793
      C    2   -0.01852      0.99958     2.00577    0.01318     3.01852
      O    3   -0.30067      0.99989     3.29220    0.00858     4.30067
      C    4   -0.01665      0.99958     2.00636    0.01072     3.01665
      C    5   -0.09490      0.99962     2.08675    0.00853     3.09490
      N    6   -0.29195      0.99970     2.77930    0.01294     3.79195
      C    7   -0.08411      0.99961     2.07280    0.01170     3.08411
      C    8   -0.20261      0.99962     2.19236    0.01063     3.20261
      C    9   -0.08455      0.99961     2.07287    0.01207     3.08455
      N   10   -0.24368      0.99959     2.73454    0.00954     3.74368
      C   11    0.05192      0.99945     1.93752    0.01111     2.94808
      C   12    0.24897      0.99938     1.73415    0.01750     2.75103
      N   13   -0.20242      0.99964     2.69133    0.01145     3.70242
      C   14    0.02133      0.99960     1.96504    0.01403     2.97867
      C   15   -0.13322      0.99958     2.12359    0.01006     3.13322
      C   16   -0.06083      0.99954     2.05215    0.00915     3.06083
      O   17   -0.25991      0.99985     3.25320    0.00686     4.25991
      C   18    0.46703      0.99968     1.50645    0.02684     2.53297
      O   19   -0.31384      0.99986     3.30844    0.00554     4.31384
      H   20    0.08100      0.00000     0.41736    0.00164     0.41900
      H   21    0.10039      0.00000     0.39825    0.00136     0.39961
      H   22    0.09040      0.00000     0.40824    0.00136     0.40960
      H   23    0.08750      0.00000     0.41151    0.00099     0.41250
      H   24    0.08694      0.00000     0.41209    0.00097     0.41306
      H   25    0.09227      0.00000     0.40643    0.00130     0.40773
      H   26    0.07979      0.00000     0.41861    0.00160     0.42021
      H   27    0.10140      0.00000     0.39734    0.00126     0.39860
      H   28    0.10025      0.00000     0.39791    0.00184     0.39975
      H   29    0.08626      0.00000     0.41234    0.00140     0.41374
      H   30    0.10711      0.00000     0.39008    0.00281     0.39289
      H   31    0.10326      0.00000     0.39357    0.00317     0.39674
      H   32    0.09868      0.00000     0.40036    0.00095     0.40132
      H   33    0.11215      0.00000     0.38629    0.00156     0.38785
      H   34    0.08480      0.00000     0.41402    0.00118     0.41520
      H   35    0.10040      0.00000     0.39876    0.00085     0.39960
      H   36    0.10395      0.00000     0.39487    0.00118     0.39605
 =======================================================================
   * Total *    0.00000     18.99301    50.75951    0.24749    70.00000

 Normal termination of Gaussian 16 at Sun Dec 13 14:46:29 2020.
