 Gaussian 16, Revision A.03,

 -----------------------------------------------------------
 # opt freq B3LYP/6-31G(d) empiricaldispersion=gd3bj scf=xqc
 -----------------------------------------------------------

 ------------------------------
 CID_131994289_JID_196_neutraal
 ------------------------------
 Symbolic Z-matrix:
 Charge =  0 Multiplicity = 1

 SCF Done:  E(RB3LYP) =  -457.218709543     A.U. after   14 cycles
 SCF Done:  E(RB3LYP) =  -457.227080788     A.U. after   12 cycles
 SCF Done:  E(RB3LYP) =  -457.231122924     A.U. after   11 cycles
 SCF Done:  E(RB3LYP) =  -457.233346990     A.U. after   11 cycles
 SCF Done:  E(RB3LYP) =  -457.233811051     A.U. after   11 cycles
 SCF Done:  E(RB3LYP) =  -457.233883132     A.U. after   10 cycles
 SCF Done:  E(RB3LYP) =  -457.233915417     A.U. after   10 cycles
 SCF Done:  E(RB3LYP) =  -457.233937096     A.U. after   10 cycles
 SCF Done:  E(RB3LYP) =  -457.233956762     A.U. after   10 cycles
 SCF Done:  E(RB3LYP) =  -457.233973162     A.U. after   10 cycles
 SCF Done:  E(RB3LYP) =  -457.233988951     A.U. after   10 cycles
 SCF Done:  E(RB3LYP) =  -457.233992066     A.U. after    9 cycles
 SCF Done:  E(RB3LYP) =  -457.233992474     A.U. after    7 cycles
 Optimization completed.
    -- Stationary point found.

 1\1\GINC-NODE200\FOpt\RB3LYP\6-31G(d)\C6H16N4\VSC10255\08-Dec-2020\0\\
 # opt freq B3LYP/6-31G(d) empiricaldispersion=gd3bj scf=xqc\\CID_13199
 4289_JID_196_neutraal\\0,1\C,1.0951893185,0.177348997,0.0787009136\N,0
 .4544137992,0.2307569376,-1.2237161811\C,-0.9392966241,-0.1872781274,-
 1.1646033593\C,0.6780156563,1.504738646,-1.9153967751\C,0.1716010547,2
 .7645969454,-1.2362740647\C,1.0598616272,3.5549732934,-0.5983175831\N,
 0.8728951129,4.7925898516,0.0738090545\C,1.8005984861,5.0105682362,1.1
 777539811\N,-0.4810296048,5.0562135134,0.4355192892\N,-1.2260484611,2.

 Normal termination of Gaussian 16 at Tue Dec  8 10:20:40 2020.

 --------------------------------------------------------------------
 #N Geom=AllCheck Guess=TCheck SCRF=Check GenChk RB3LYP/6-31G(d) Freq
 --------------------------------------------------------------------

 Structure from the checkpoint file:  "JID_196.chk"
 ------------------------------
 CID_131994289_JID_196_neutraal
 ------------------------------
 Charge =  0 Multiplicity = 1

 SCF Done:  E(RB3LYP) =  -457.233992474     A.U. after    1 cycles

  Exact polarizability: 120.157  11.327  93.519   2.839  -2.376  75.685
 Approx polarizability: 156.111  21.205 136.472   2.433  -6.809 111.472

                      1                      2                      3
                      A                      A                      A
 Frequencies --     33.9182                48.8105                83.2149
 Red. masses --      2.9292                 3.5427                 2.7745
 Frc consts  --      0.0020                 0.0050                 0.0113
 IR Inten    --      0.1125                 0.7015                 1.7445

                      4                      5                      6
                      A                      A                      A
 Frequencies --    143.9880               204.2009               237.1420
 Red. masses --      2.7895                 2.3172                 2.3006
 Frc consts  --      0.0341                 0.0569                 0.0762
 IR Inten    --      4.8606                19.3736                 4.4767

                      7                      8                      9
                      A                      A                      A
 Frequencies --    257.2858               268.2221               273.5965
 Red. masses --      1.1022                 1.1692                 1.1600
 Frc consts  --      0.0430                 0.0496                 0.0512
 IR Inten    --      1.1932                 2.1944                 9.3192

                     10                     11                     12
                      A                      A                      A
 Frequencies --    313.0468               343.9546               355.0200
 Red. masses --      2.9168                 2.2768                 2.3902
 Frc consts  --      0.1684                 0.1587                 0.1775
 IR Inten    --      5.4249                18.1856                14.6367

                     13                     14                     15
                      A                      A                      A
 Frequencies --    395.5309               406.1410               433.4863
 Red. masses --      2.4047                 2.0742                 1.9886
 Frc consts  --      0.2217                 0.2016                 0.2202
 IR Inten    --      1.3177                33.9900                 8.4896

                     16                     17                     18
                      A                      A                      A
 Frequencies --    450.1008               476.4804               487.0442
 Red. masses --      1.2968                 2.7554                 1.8086
 Frc consts  --      0.1548                 0.3686                 0.2528
 IR Inten    --     39.3830                41.0824                 5.6567

                     19                     20                     21
                      A                      A                      A
 Frequencies --    580.5175               705.5750               775.8418
 Red. masses --      3.1497                 2.7978                 1.7172
 Frc consts  --      0.6254                 0.8206                 0.6090
 IR Inten    --     31.9562                40.4472                64.6782

                     22                     23                     24
                      A                      A                      A
 Frequencies --    817.9375               842.2095               860.2777
 Red. masses --      1.4262                 3.5901                 4.7259
 Frc consts  --      0.5622                 1.5004                 2.0607
 IR Inten    --    103.7645                15.6581                18.6037

                     25                     26                     27
                      A                      A                      A
 Frequencies --    922.4984               978.4661              1035.9591
 Red. masses --      2.9235                 1.8246                 2.0349
 Frc consts  --      1.4658                 1.0293                 1.2867
 IR Inten    --     20.8317                12.0263                94.7003

                     28                     29                     30
                      A                      A                      A
 Frequencies --   1065.3628              1081.3174              1091.5131
 Red. masses --      2.2567                 1.5896                 1.3888
 Frc consts  --      1.5091                 1.0951                 0.9749
 IR Inten    --     41.4145                11.3673                13.3327

                     31                     32                     33
                      A                      A                      A
 Frequencies --   1134.9811              1136.4402              1158.8581
 Red. masses --      1.2862                 2.1189                 1.6278
 Frc consts  --      0.9762                 1.6123                 1.2880
 IR Inten    --      1.3968                93.3539                41.9114

                     34                     35                     36
                      A                      A                      A
 Frequencies --   1169.0067              1201.0797              1207.5354
 Red. masses --      1.7931                 1.4605                 1.6323
 Frc consts  --      1.4437                 1.2413                 1.4023
 IR Inten    --      6.1793                 7.1609                 4.7000

                     37                     38                     39
                      A                      A                      A
 Frequencies --   1314.8415              1321.5609              1341.6351
 Red. masses --      2.2043                 1.5838                 2.3791
 Frc consts  --      2.2452                 1.6297                 2.5231
 IR Inten    --     10.6244                 5.6402                18.8004

                     40                     41                     42
                      A                      A                      A
 Frequencies --   1361.2576              1374.0323              1394.9758
 Red. masses --      1.5069                 1.6636                 1.3860
 Frc consts  --      1.6452                 1.8506                 1.5890
 IR Inten    --     28.6003                24.5448                12.5827

                     43                     44                     45
                      A                      A                      A
 Frequencies --   1440.4749              1465.4725              1480.5798
 Red. masses --      1.3891                 1.1596                 1.2018
 Frc consts  --      1.6982                 1.4673                 1.5523
 IR Inten    --     30.6158                 2.1340                 0.2737

                     46                     47                     48
                      A                      A                      A
 Frequencies --   1489.5532              1502.1007              1506.4809
 Red. masses --      1.1237                 1.1326                 1.0461
 Frc consts  --      1.4689                 1.5057                 1.3988
 IR Inten    --      1.8782                 5.4579                10.6415

                     49                     50                     51
                      A                      A                      A
 Frequencies --   1516.4563              1522.5088              1527.8322
 Red. masses --      1.0482                 1.0636                 1.0575
 Frc consts  --      1.4202                 1.4525                 1.4543
 IR Inten    --     22.3309                 7.5654                 3.2728

                     52                     53                     54
                      A                      A                      A
 Frequencies --   1533.3959              1547.5733              1658.5377
 Red. masses --      1.0523                 1.0540                 1.1286
 Frc consts  --      1.4577                 1.4873                 1.8291
 IR Inten    --      1.9587                14.1981                68.6859

                     55                     56                     57
                      A                      A                      A
 Frequencies --   1694.0890              1764.6038              2951.5035
 Red. masses --      1.1496                 4.7374                 1.0589
 Frc consts  --      1.9439                 8.6913                 5.4350
 IR Inten    --     23.4882                34.3484                94.0884

                     58                     59                     60
                      A                      A                      A
 Frequencies --   2966.7219              2998.9483              3013.0433
 Red. masses --      1.0560                 1.0453                 1.0660
 Frc consts  --      5.4759                 5.5392                 5.7019
 IR Inten    --     73.1155                65.4448                50.9182

                     61                     62                     63
                      A                      A                      A
 Frequencies --   3065.1889              3066.7381              3079.2685
 Red. masses --      1.0777                 1.0876                 1.0964
 Frc consts  --      5.9657                 6.0267                 6.1250
 IR Inten    --     29.4236                71.4241                29.4477

                     64                     65                     66
                      A                      A                      A
 Frequencies --   3083.2655              3099.8543              3108.1603
 Red. masses --      1.0751                 1.1030                 1.1032
 Frc consts  --      6.0220                 6.2445                 6.2790
 IR Inten    --     44.4906                35.1619                51.9804

                     67                     68                     69
                      A                      A                      A
 Frequencies --   3131.2852              3208.2223              3327.1571
 Red. masses --      1.1026                 1.0884                 1.0587
 Frc consts  --      6.3694                 6.6003                 6.9048
 IR Inten    --     22.1842                11.9156                28.6057

                     70                     71                     72
                      A                      A                      A
 Frequencies --   3484.5166              3521.5681              3590.4452
 Red. masses --      1.0474                 1.0827                 1.0973
 Frc consts  --      7.4926                 7.9107                 8.3342
 IR Inten    --     36.6045                 0.5349                22.9617

 - Thermochemistry -
 -------------------
 Temperature   298.150 Kelvin.  Pressure   1.00000 Atm.
 Atom     1 has atomic number  6 and mass  12.00000

 Molecular mass:   144.13750 amu.
 Principal axes and moments of inertia in atomic units:
                           1         2         3
     Eigenvalues --   781.174402520.110352862.56366
           X            0.99991   0.01373   0.00080
           Y           -0.01373   0.99989   0.00610
           Z           -0.00072  -0.00612   0.99998
 This molecule is an asymmetric top.
 Rotational symmetry number  1.
 Warning -- assumption of classical behavior for rotation
           may cause significant error
 Rotational temperatures (Kelvin)      0.11088     0.03437     0.03026
 Rotational constants (GHZ):           2.31029     0.71614     0.63046
 Zero-point vibrational energy     618651.2 (Joules/Mol)
                                  147.86120 (Kcal/Mol)
 Warning -- explicit consideration of  19 degrees of freedom as
           vibrations may cause significant error
 Vibrational temperatures:     48.80    70.23   119.73   207.17   293.80
          (Kelvin)            341.19   370.18   385.91   393.64   450.40
                              494.87   510.79   569.08   584.35   623.69
                              647.59   685.55   700.75   835.24  1015.17
                             1116.26  1176.83  1211.75  1237.75  1327.27
                             1407.79  1490.51  1532.82  1555.77  1570.44
                             1632.98  1635.08  1667.34  1681.94  1728.09
                             1737.37  1891.76  1901.43  1930.31  1958.55
                             1976.93  2007.06  2072.52  2108.49  2130.22
                             2143.13  2161.19  2167.49  2181.84  2190.55
                             2198.21  2206.21  2226.61  2386.27  2437.42
                             2538.87  4246.56  4268.45  4314.82  4335.10
                             4410.12  4412.35  4430.38  4436.13  4460.00
                             4471.95  4505.22  4615.92  4787.04  5013.44
                             5066.75  5165.85

 Zero-point correction=                           0.235632 (Hartree/Particle)
 Thermal correction to Energy=                    0.247809
 Thermal correction to Enthalpy=                  0.248753
 Thermal correction to Gibbs Free Energy=         0.197443
 Sum of electronic and zero-point Energies=           -456.998361
 Sum of electronic and thermal Energies=              -456.986184
 Sum of electronic and thermal Enthalpies=            -456.985240
 Sum of electronic and thermal Free Energies=         -457.036550

                     E (Thermal)             CV                S
                      KCal/Mol        Cal/Mol-Kelvin    Cal/Mol-Kelvin
 Total                  155.502             45.189            107.992
 Electronic               0.000              0.000              0.000
 Translational            0.889              2.981             40.808
 Rotational               0.889              2.981             30.112
 Vibrational            153.725             39.228             37.072
 Vibration     1          0.594              1.983              5.586
 Vibration     2          0.595              1.978              4.865
 Vibration     3          0.600              1.961              3.814
 Vibration     4          0.616              1.909              2.750
 Vibration     5          0.640              1.834              2.095
 Vibration     6          0.656              1.784              1.824
 Vibration     7          0.667              1.750              1.680
 Vibration     8          0.673              1.732              1.608
 Vibration     9          0.676              1.722              1.573
 Vibration    10          0.701              1.649              1.346
 Vibration    11          0.723              1.588              1.194
 Vibration    12          0.731              1.565              1.144
 Vibration    13          0.762              1.480              0.979
 Vibration    14          0.771              1.457              0.940
 Vibration    15          0.794              1.397              0.847
 Vibration    16          0.809              1.361              0.795
 Vibration    17          0.833              1.302              0.720
 Vibration    18          0.843              1.279              0.691
 Vibration    19          0.937              1.073              0.484

                           ! Non-Optimized Parameters !

 1\1\GINC-NODE200\Freq\RB3LYP\6-31G(d)\C6H16N4\VSC10255\08-Dec-2020\0\\
 #N Geom=AllCheck Guess=TCheck SCRF=Check GenChk RB3LYP/6-31G(d) Freq\\
 CID_131994289_JID_196_neutraal\\0,1\C,1.0951893185,0.177348997,0.07870
 09136\N,0.4544137992,0.2307569376,-1.2237161811\C,-0.9392966241,-0.187
 2781274,-1.1646033593\C,0.6780156563,1.504738646,-1.9153967751\C,0.171
 6010547,2.7645969454,-1.2362740647\C,1.0598616272,3.5549732934,-0.5983
 175831\N,0.8728951129,4.7925898516,0.0738090545\C,1.8005984861,5.01056
 82362,1.1777539811\N,-0.4810296048,5.0562135134,0.4355192892\N,-1.2260

 Normal termination of Gaussian 16 at Tue Dec  8 10:25:07 2020.

 ----------------------------------------------------------------------
 # B3LYP/6-311++G(d,p) empiricaldispersion=gd3bj scf=xqc pop=npa geom=c
 heck
 ----------------------------------------------------------------------

 --------------------------------------
 CID_131994289_JID_196_Energie_neutraal
 --------------------------------------
 Structure from the checkpoint file:  "JID_196.chk"
 Charge =  0 Multiplicity = 1

 SCF Done:  E(RB3LYP) =  -457.380030288     A.U. after   14 cycles
 Normal termination of Gaussian 16 at Tue Dec  8 10:27:09 2020.

 ----------------------------------------------------------------------
 # B3LYP/6-311++G(d,p) empiricaldispersion=gd3bj scf=xqc pop=npa geom=c
 heck
 ----------------------------------------------------------------------

 ------------------------------------
 CID_131994289_JID_196_Energie_kation
 ------------------------------------
 Structure from the checkpoint file:  "JID_196.chk"
 Charge =  1 Multiplicity = 2

 SCF Done:  E(UB3LYP) =  -457.136660291     A.U. after   20 cycles
 Normal termination of Gaussian 16 at Tue Dec  8 10:31:16 2020.
 Gaussian 16:  ES64L-G16RevA.03 25-Dec-2016

 -----------------------------------
 CID_131994289_JID_196_Energie_anion
 -----------------------------------
 Structure from the checkpoint file:  "JID_196.chk"
 Charge = -1 Multiplicity = 2

                         Standard orientation:
 ---------------------------------------------------------------------
 Center     Atomic      Atomic             Coordinates (Angstroms)
 Number     Number       Type             X           Y           Z
 ---------------------------------------------------------------------
      1          6           0        1.923364   -1.612703   -0.628070
      2          7           0        2.403603   -0.491646    0.160813
      3          6           0        2.990121    0.550191   -0.670601
      4          6           0        1.411295   -0.010709    1.128012
      5          6           0        0.092897    0.502277    0.577033
      6          6           0       -0.991870   -0.296729    0.651607
      7          7           0       -2.336961   -0.060150    0.260243
      8          6           0       -3.048931   -1.261240   -0.160856
      9          7           0       -2.491181    1.019015   -0.659030
     10          7           0        0.163535    1.755400   -0.060427
     11          1           0        2.748723   -2.008208   -1.230978
     12          1           0        1.088974   -1.356897   -1.305849
     13          1           0        1.577079   -2.409991    0.040334
     14          1           0        2.286644    0.993419   -1.393537
     15          1           0        3.366865    1.355740   -0.029070
     16          1           0        3.842713    0.131306   -1.219132
     17          1           0        1.205885   -0.834593    1.821324
     18          1           0        1.896184    0.785189    1.713495
     19          1           0       -0.873117   -1.265624    1.123871
     20          1           0       -4.115595   -1.032742   -0.260982
     21          1           0       -2.679679   -1.657569   -1.125768
     22          1           0       -2.938064   -2.041488    0.597959
     23          1           0       -2.353562    0.679116   -1.620538
     24          1           0       -3.456423    1.335605   -0.587090
     25          1           0        0.730711    2.422094    0.454227
     26          1           0       -0.761564    2.119783   -0.272205
 ---------------------------------------------------------------------

 SCF Done:  E(UB3LYP) =  -457.366693372     A.U. after   30 cycles

 The electronic state is 2-A.
 Alpha  occ. eigenvalues --  -14.23316 -14.21552 -14.19769 -14.18569 -10.08868
 Alpha  occ. eigenvalues --  -10.07826 -10.07806 -10.07723 -10.07615 -10.06760
 Alpha  occ. eigenvalues --   -0.87381  -0.81834  -0.77874  -0.69695  -0.63703
 Alpha  occ. eigenvalues --   -0.59904  -0.59544  -0.53666  -0.48356  -0.44625
 Alpha  occ. eigenvalues --   -0.40584  -0.39915  -0.37688  -0.36807  -0.36053
 Alpha  occ. eigenvalues --   -0.34779  -0.34033  -0.30699  -0.29524  -0.28491
 Alpha  occ. eigenvalues --   -0.28236  -0.26941  -0.26453  -0.26147  -0.25579
 Alpha  occ. eigenvalues --   -0.21597  -0.16407  -0.16004  -0.10921  -0.06395
 Alpha  occ. eigenvalues --    0.04646
 Alpha virt. eigenvalues --    0.06869   0.07793   0.08389   0.09398   0.09760
 Alpha virt. eigenvalues --    0.10470   0.10796   0.11589   0.12355   0.12857
 Alpha virt. eigenvalues --    0.13261   0.13768   0.14485   0.14866   0.15072

  Beta  occ. eigenvalues --  -14.23304 -14.21488 -14.19764 -14.18546 -10.08858
  Beta  occ. eigenvalues --  -10.07810 -10.07749 -10.07714 -10.07594 -10.06751
  Beta  occ. eigenvalues --   -0.87319  -0.81816  -0.77831  -0.69589  -0.63661
  Beta  occ. eigenvalues --   -0.59870  -0.59495  -0.53580  -0.48305  -0.44568
  Beta  occ. eigenvalues --   -0.40531  -0.39860  -0.37637  -0.36777  -0.35998
  Beta  occ. eigenvalues --   -0.34742  -0.34012  -0.30644  -0.29477  -0.28455
  Beta  occ. eigenvalues --   -0.28205  -0.26907  -0.26418  -0.26126  -0.25556
  Beta  occ. eigenvalues --   -0.21553  -0.16359  -0.15941  -0.10900  -0.06343
  Beta virt. eigenvalues --    0.06800   0.07923   0.08400   0.08953   0.09940
  Beta virt. eigenvalues --    0.10471   0.10795   0.11281   0.11897   0.12900
  Beta virt. eigenvalues --    0.13068   0.13687   0.14028   0.14757   0.14988

 Mulliken charges and spin densities:
               1          2
     1  C   -0.024643  -0.375424
     2  N    0.026422   0.107581
     3  C   -0.006849  -0.433677
     4  C   -0.195928  -0.603995
     5  C   -0.921929   1.294976
     6  C    1.012453  -1.620775
     7  N    0.012043   0.254834
     8  C    1.595822  -1.871145
     9  N   -0.397486  -0.176715
    10  N   -0.453856   0.080114
    11  H   -0.168050   0.284897
    12  H    0.129100   0.022166
    13  H   -0.063180   0.204386
    14  H    0.006169   0.165181
    15  H   -0.034333   0.159998
    16  H   -0.007240   0.122550
    17  H   -0.103602   0.267793
    18  H    0.025278   0.118197
    19  H    0.118485   0.034381
    20  H   -0.734928   0.883358
    21  H   -0.328268   0.444562
    22  H   -0.410822   0.536716
    23  H   -0.114185   0.313898
    24  H   -0.131827   0.413231
    25  H   -0.010126   0.228487
    26  H    0.181482   0.144427
 Sum of Mulliken charges =  -1.00000   1.00000

 Dipole moment (field-independent basis, Debye):
    X=              5.9041    Y=              1.1657    Z=              1.7694  Tot=              6.2728
 Quadrupole moment (field-independent basis, Debye-Ang):
   XX=           -135.2965   YY=            -98.9452   ZZ=            -93.1190
   XY=             -1.1290   XZ=             -3.7786   YZ=              1.6223

 Summary of Natural Population Analysis:

                                       Natural Population
                Natural  -----------------------------------------------
    Atom  No    Charge         Core      Valence    Rydberg      Total
 -----------------------------------------------------------------------
      C    1   -0.17701      0.99964     2.16960    0.00776     3.17701
      N    2   -0.28016      0.99974     2.76586    0.01456     3.78016
      C    3   -0.17785      0.99964     2.17056    0.00764     3.17785
      C    4   -0.08944      0.99957     2.07796    0.01191     3.08944
      C    5    0.04421      0.99949     1.94495    0.01134     2.95579
      C    6   -0.03663      0.99943     2.02326    0.01395     3.03663
      N    7   -0.17750      0.99970     2.66211    0.01569     3.67750
      C    8   -0.17975      0.99964     2.17041    0.00970     3.17975
      N    9   -0.33057      0.99977     2.81664    0.01416     3.83057
      N   10   -0.41928      0.99972     2.90747    0.01209     3.91928
      H   11    0.09025      0.00000     0.40849    0.00126     0.40975
      H   12    0.08735      0.00000     0.41055    0.00210     0.41265
      H   13    0.09354      0.00000     0.40492    0.00154     0.40646
      H   14    0.09134      0.00000     0.40628    0.00238     0.40866
      H   15    0.08973      0.00000     0.40883    0.00143     0.41027
      H   16    0.08827      0.00000     0.41032    0.00141     0.41173
      H   17    0.09786      0.00000     0.40087    0.00127     0.40214
      H   18    0.08933      0.00000     0.40910    0.00157     0.41067
      H   19    0.09523      0.00000     0.40327    0.00151     0.40477
      H   20    0.09729      0.00000     0.39936    0.00335     0.40271
      H   21    0.08258      0.00000     0.41450    0.00292     0.41742
      H   22    0.09749      0.00000     0.40065    0.00186     0.40251
      H   23    0.16694      0.00000     0.32942    0.00364     0.33306
      H   24    0.18137      0.00000     0.31374    0.00489     0.31863
      H   25    0.17372      0.00000     0.32448    0.00179     0.32628
      H   26    0.20167      0.00000     0.29611    0.00222     0.29833
 =======================================================================
   * Total *    0.00000      9.99635    29.84973    0.15392    40.00000

 Normal termination of Gaussian 16 at Tue Dec  8 10:39:23 2020.
