 Gaussian 16, Revision A.03,

 -----------------------------------------------------------
 # opt freq B3LYP/6-31G(d) empiricaldispersion=gd3bj scf=xqc
 -----------------------------------------------------------

 ----------------------------
 CID_283656_JID_6289_neutraal
 ----------------------------
 Symbolic Z-matrix:
 Charge =  0 Multiplicity = 1

 SCF Done:  E(RB3LYP) =  -709.471874439     A.U. after   14 cycles
 SCF Done:  E(RB3LYP) =  -709.477628522     A.U. after   13 cycles
 SCF Done:  E(RB3LYP) =  -709.477566475     A.U. after   13 cycles
 SCF Done:  E(RB3LYP) =  -709.478856146     A.U. after   12 cycles
 SCF Done:  E(RB3LYP) =  -709.478942947     A.U. after   11 cycles
 SCF Done:  E(RB3LYP) =  -709.478965715     A.U. after   10 cycles
 SCF Done:  E(RB3LYP) =  -709.478974692     A.U. after    9 cycles
 SCF Done:  E(RB3LYP) =  -709.478976071     A.U. after    8 cycles
 SCF Done:  E(RB3LYP) =  -709.478976290     A.U. after    8 cycles
 SCF Done:  E(RB3LYP) =  -709.478976513     A.U. after    6 cycles
 Optimization completed.
    -- Stationary point found.
 Normal termination of Gaussian 16 at Thu Dec 10 21:59:31 2020.

 --------------------------------------------------------------------
 #N Geom=AllCheck Guess=TCheck SCRF=Check GenChk RB3LYP/6-31G(d) Freq
 --------------------------------------------------------------------

 Structure from the checkpoint file:  "JID_6289.chk"
 ----------------------------
 CID_283656_JID_6289_neutraal
 ----------------------------
 Charge =  0 Multiplicity = 1

 SCF Done:  E(RB3LYP) =  -709.478976513     A.U. after    1 cycles

  Exact polarizability: 179.401 -10.116 133.561  -3.861   0.816 120.765
 Approx polarizability: 228.472 -22.306 193.333 -13.229   1.428 197.977

                      1                      2                      3
                      A                      A                      A
 Frequencies --     39.3533                60.0811                74.5618
 Red. masses --      3.6760                 4.6200                 6.1656
 Frc consts  --      0.0034                 0.0098                 0.0202
 IR Inten    --      0.2739                 1.9251                 5.9147

                      4                      5                      6
                      A                      A                      A
 Frequencies --    120.4501               137.2091               172.9008
 Red. masses --      4.0314                 3.0807                 1.5140
 Frc consts  --      0.0345                 0.0342                 0.0267
 IR Inten    --      0.5137                 0.8859                 0.0505

                      7                      8                      9
                      A                      A                      A
 Frequencies --    196.5976               223.4341               250.4532
 Red. masses --      3.3100                 2.5410                 2.7818
 Frc consts  --      0.0754                 0.0747                 0.1028
 IR Inten    --      0.4863                 2.8272                 0.0513

                     10                     11                     12
                      A                      A                      A
 Frequencies --    271.9889               324.8261               335.3777
 Red. masses --      1.7312                 2.5297                 2.2864
 Frc consts  --      0.0755                 0.1573                 0.1515
 IR Inten    --      0.4383                 1.8055                 0.3785

                     13                     14                     15
                      A                      A                      A
 Frequencies --    347.9909               361.2858               391.8631
 Red. masses --      2.5122                 2.7548                 3.3834
 Frc consts  --      0.1792                 0.2119                 0.3061
 IR Inten    --      2.6333                 4.3576                 1.2580

                     16                     17                     18
                      A                      A                      A
 Frequencies --    417.2939               437.2509               449.9182
 Red. masses --      2.4438                 2.5124                 2.9678
 Frc consts  --      0.2507                 0.2830                 0.3540
 IR Inten    --      1.0304                 4.3621                 0.8832

                     19                     20                     21
                      A                      A                      A
 Frequencies --    473.2237               483.3417               501.0048
 Red. masses --      1.8030                 1.4879                 2.3424
 Frc consts  --      0.2379                 0.2048                 0.3464
 IR Inten    --      9.8936                27.5153                 1.9284

                     22                     23                     24
                      A                      A                      A
 Frequencies --    528.5107               556.8466               560.8834
 Red. masses --      2.6072                 2.0708                 2.7736
 Frc consts  --      0.4291                 0.3783                 0.5141
 IR Inten    --      1.9656                 4.8841                 0.7362

                     25                     26                     27
                      A                      A                      A
 Frequencies --    583.1147               603.1737               678.9758
 Red. masses --      1.3425                 1.9378                 2.8919
 Frc consts  --      0.2690                 0.4154                 0.7855
 IR Inten    --    150.8557               120.5443                 9.9333

                     28                     29                     30
                      A                      A                      A
 Frequencies --    693.1066               748.0034               787.0231
 Red. masses --      3.1448                 4.9588                 2.0189
 Frc consts  --      0.8901                 1.6347                 0.7368
 IR Inten    --      2.2106                37.5741                 2.3554

                     31                     32                     33
                      A                      A                      A
 Frequencies --    793.5493               817.6611               846.4519
 Red. masses --      3.5779                 1.8593                 2.2438
 Frc consts  --      1.3275                 0.7324                 0.9472
 IR Inten    --    100.9647                 4.0069                 1.6480

                     34                     35                     36
                      A                      A                      A
 Frequencies --    864.2699               885.4883               913.5694
 Red. masses --      2.5434                 1.5707                 2.2230
 Frc consts  --      1.1193                 0.7256                 1.0931
 IR Inten    --      0.4159                 2.9971                 1.8116

                     37                     38                     39
                      A                      A                      A
 Frequencies --    936.9761               959.7283               966.9535
 Red. masses --      2.1049                 1.9769                 2.1263
 Frc consts  --      1.0888                 1.0729                 1.1713
 IR Inten    --     14.9458                11.0181                 6.9803

                     40                     41                     42
                      A                      A                      A
 Frequencies --    978.6543               987.0121               998.1045
 Red. masses --      1.7773                 1.7741                 1.8685
 Frc consts  --      1.0029                 1.0183                 1.0967
 IR Inten    --      1.3611                 2.1150                 1.7994

                     43                     44                     45
                      A                      A                      A
 Frequencies --   1024.9091              1041.3069              1068.4177
 Red. masses --      1.9501                 1.6393                 1.9112
 Frc consts  --      1.2069                 1.0473                 1.2854
 IR Inten    --      6.6707                 3.2914                 6.3460

                     46                     47                     48
                      A                      A                      A
 Frequencies --   1083.9964              1100.1126              1107.0072
 Red. masses --      3.2396                 1.9057                 2.4231
 Frc consts  --      2.2428                 1.3589                 1.7495
 IR Inten    --     33.2532                 0.4509                 7.4210

                     49                     50                     51
                      A                      A                      A
 Frequencies --   1143.3192              1159.9183              1168.5814
 Red. masses --      1.5847                 1.8368                 1.3920
 Frc consts  --      1.2205                 1.4560                 1.1199
 IR Inten    --     19.4142                 0.9876                 2.3324

                     52                     53                     54
                      A                      A                      A
 Frequencies --   1186.7374              1198.5185              1204.0632
 Red. masses --      2.0291                 1.3283                 1.5818
 Frc consts  --      1.6837                 1.1242                 1.3511
 IR Inten    --     10.8120                 5.0787                 6.4596

                     55                     56                     57
                      A                      A                      A
 Frequencies --   1220.5399              1260.3882              1287.3198
 Red. masses --      2.0802                 1.4871                 1.4157
 Frc consts  --      1.8259                 1.3918                 1.3823
 IR Inten    --     10.7241                 4.8318                 0.5535

                     58                     59                     60
                      A                      A                      A
 Frequencies --   1302.0303              1308.8496              1330.1769
 Red. masses --      2.0612                 1.3519                 1.3311
 Frc consts  --      2.0588                 1.3645                 1.3877
 IR Inten    --     14.0708                 0.5956                 2.8074

                     61                     62                     63
                      A                      A                      A
 Frequencies --   1342.7140              1366.5556              1378.3090
 Red. masses --      1.6928                 1.3536                 1.3755
 Frc consts  --      1.7981                 1.4894                 1.5396
 IR Inten    --      0.9124                 1.4371                 0.9491

                     64                     65                     66
                      A                      A                      A
 Frequencies --   1387.9276              1391.7658              1394.8430
 Red. masses --      1.4441                 1.6804                 1.4924
 Frc consts  --      1.6390                 1.9178                 1.7107
 IR Inten    --      1.7537                 6.7730                 1.3305

                     67                     68                     69
                      A                      A                      A
 Frequencies --   1404.0258              1407.7878              1414.7369
 Red. masses --      1.4576                 1.5368                 2.5130
 Frc consts  --      1.6929                 1.7944                 2.9634
 IR Inten    --      4.0973                20.6562               151.0882

                     70                     71                     72
                      A                      A                      A
 Frequencies --   1416.2157              1444.7484              1449.9010
 Red. masses --      1.6151                 1.2655                 1.2632
 Frc consts  --      1.9086                 1.5563                 1.5646
 IR Inten    --     14.9506                14.0958                 1.7714

                     73                     74                     75
                      A                      A                      A
 Frequencies --   1494.7725              1505.4811              1509.9563
 Red. masses --      1.0888                 1.0790                 1.0856
 Frc consts  --      1.4334                 1.4408                 1.4583
 IR Inten    --      8.3669                 4.6995                 0.7836

                     76                     77                     78
                      A                      A                      A
 Frequencies --   1518.4492              1520.2049              1524.3634
 Red. masses --      1.0842                 1.0846                 1.0940
 Frc consts  --      1.4728                 1.4769                 1.4978
 IR Inten    --      3.7004                13.6018                 5.5790

                     79                     80                     81
                      A                      A                      A
 Frequencies --   1534.0213              1540.4502              1550.1689
 Red. masses --      1.0794                 1.0785                 1.0600
 Frc consts  --      1.4966                 1.5079                 1.5008
 IR Inten    --      0.2424                 3.0914                 3.6253

                     82                     83                     84
                      A                      A                      A
 Frequencies --   1644.1842              1700.7801              1819.7609
 Red. masses --      1.2301                 7.3377                 7.0929
 Frc consts  --      1.9593                12.5056                13.8390
 IR Inten    --    168.9968                23.1330               512.1010

                     85                     86                     87
                      A                      A                      A
 Frequencies --   2989.9186              3020.3054              3025.7555
 Red. masses --      1.0818                 1.0620                 1.0681
 Frc consts  --      5.6980                 5.7081                 5.7615
 IR Inten    --     10.9274                16.8692                22.0552

                     88                     89                     90
                      A                      A                      A
 Frequencies --   3029.9409              3036.2599              3036.9745
 Red. masses --      1.0698                 1.0607                 1.0605
 Frc consts  --      5.7867                 5.7615                 5.7629
 IR Inten    --      8.1944                 0.8559                70.2748

                     91                     92                     93
                      A                      A                      A
 Frequencies --   3041.3118              3052.8582              3058.9570
 Red. masses --      1.0651                 1.0660                 1.0579
 Frc consts  --      5.8046                 5.8536                 5.8325
 IR Inten    --     13.3936                 9.4654                 7.6805

                     94                     95                     96
                      A                      A                      A
 Frequencies --   3063.0478              3072.7891              3076.1597
 Red. masses --      1.0849                 1.0969                 1.0992
 Frc consts  --      5.9973                 6.1020                 6.1282
 IR Inten    --     41.8898                39.3924                45.9061

                     97                     98                     99
                      A                      A                      A
 Frequencies --   3076.6056              3085.0910              3114.0758
 Red. masses --      1.1012                 1.1036                 1.0931
 Frc consts  --      6.1415                 6.1889                 6.2458
 IR Inten    --     52.0724                99.5734                17.4947

                    100                    101                    102
                      A                      A                      A
 Frequencies --   3121.1683              3127.8582              3140.6004
 Red. masses --      1.0960                 1.0928                 1.0994
 Frc consts  --      6.2909                 6.2993                 6.3889
 IR Inten    --     36.6003                 4.8728                32.6009

                    103                    104                    105
                      A                      A                      A
 Frequencies --   3562.2036              3587.9591              3677.7796
 Red. masses --      1.0473                 1.0760                 1.0997
 Frc consts  --      7.8301                 8.1614                 8.7638
 IR Inten    --     13.4125                32.5540                41.8077

 - Thermochemistry -
 -------------------
 Temperature   298.150 Kelvin.  Pressure   1.00000 Atm.
 Atom     1 has atomic number  6 and mass  12.00000

 Molecular mass:   223.16846 amu.
 Principal axes and moments of inertia in atomic units:
                           1         2         3
     Eigenvalues --  1696.703766273.368197044.15245
           X            0.99995   0.00958   0.00327
           Y           -0.00963   0.99986   0.01393
           Z           -0.00314  -0.01396   0.99990
 This molecule is an asymmetric top.
 Rotational symmetry number  1.
 Warning -- assumption of classical behavior for rotation
           may cause significant error
 Rotational temperatures (Kelvin)      0.05105     0.01381     0.01230
 Rotational constants (GHZ):           1.06367     0.28768     0.25620
 Zero-point vibrational energy     870967.5 (Joules/Mol)
                                  208.16624 (Kcal/Mol)
 Warning -- explicit consideration of  26 degrees of freedom as
           vibrations may cause significant error
 Vibrational temperatures:     56.62    86.44   107.28   173.30   197.41
          (Kelvin)            248.77   282.86   321.47   360.35   391.33
                              467.35   482.53   500.68   519.81   563.80
                              600.39   629.11   647.33   680.86   695.42
                              720.83   760.41   801.18   806.99   838.97
                              867.83   976.89   997.23  1076.21  1132.35
                             1141.74  1176.43  1217.86  1243.49  1274.02
                             1314.42  1348.10  1380.84  1391.23  1408.07
                             1420.09  1436.05  1474.62  1498.21  1537.21
                             1559.63  1582.82  1592.74  1644.98  1668.86
                             1681.33  1707.45  1724.40  1732.38  1756.08
                             1813.42  1852.17  1873.33  1883.14  1913.83
                             1931.87  1966.17  1983.08  1996.92  2002.44
                             2006.87  2020.08  2025.49  2035.49  2037.62
                             2078.67  2086.08  2150.64  2166.05  2172.49
                             2184.71  2187.24  2193.22  2207.11  2216.36
                             2230.35  2365.61  2447.04  2618.23  4301.83
                             4345.55  4353.39  4359.41  4368.50  4369.53
                             4375.77  4392.38  4401.16  4407.04  4421.06
                             4425.91  4426.55  4438.76  4480.46  4490.66
                             4500.29  4518.62  5125.22  5162.27  5291.50

 Zero-point correction=                           0.331734 (Hartree/Particle)
 Thermal correction to Energy=                    0.346795
 Thermal correction to Enthalpy=                  0.347739
 Thermal correction to Gibbs Free Energy=         0.290117
 Sum of electronic and zero-point Energies=           -709.147243
 Sum of electronic and thermal Energies=              -709.132181
 Sum of electronic and thermal Enthalpies=            -709.131237
 Sum of electronic and thermal Free Energies=         -709.188860

                     E (Thermal)             CV                S
                      KCal/Mol        Cal/Mol-Kelvin    Cal/Mol-Kelvin
 Total                  217.617             61.255            121.278
 Electronic               0.000              0.000              0.000
 Translational            0.889              2.981             42.111
 Rotational               0.889              2.981             32.683
 Vibrational            215.840             55.294             46.483
 Vibration     1          0.594              1.981              5.291
 Vibration     2          0.597              1.973              4.455
 Vibration     3          0.599              1.966              4.029
 Vibration     4          0.609              1.932              3.093
 Vibration     5          0.614              1.916              2.842
 Vibration     6          0.626              1.876              2.404
 Vibration     7          0.636              1.845              2.165
 Vibration     8          0.649              1.805              1.931
 Vibration     9          0.663              1.762              1.727
 Vibration    10          0.675              1.725              1.584
 Vibration    11          0.709              1.626              1.286
 Vibration    12          0.716              1.605              1.234
 Vibration    13          0.726              1.579              1.175
 Vibration    14          0.735              1.552              1.117
 Vibration    15          0.759              1.488              0.993
 Vibration    16          0.780              1.433              0.901
 Vibration    17          0.798              1.389              0.835
 Vibration    18          0.809              1.361              0.796
 Vibration    19          0.830              1.309              0.729
 Vibration    20          0.840              1.287              0.701
 Vibration    21          0.856              1.248              0.656
 Vibration    22          0.883              1.187              0.591
 Vibration    23          0.912              1.125              0.530
 Vibration    24          0.917              1.116              0.522
 Vibration    25          0.940              1.068              0.480
 Vibration    26          0.962              1.025              0.444

 Optimization completed.
    -- Stationary point found.
 Normal termination of Gaussian 16 at Thu Dec 10 22:13:56 2020.

 ----------------------------------------------------------------------
 # B3LYP/6-311++G(d,p) empiricaldispersion=gd3bj scf=xqc pop=npa geom=c
 heck
 ----------------------------------------------------------------------

 ------------------------------------
 CID_283656_JID_6289_Energie_neutraal
 ------------------------------------
 Structure from the checkpoint file:  "JID_6289.chk"
 Charge =  0 Multiplicity = 1

 SCF Done:  E(RB3LYP) =  -709.685222436     A.U. after   15 cycles
 Normal termination of Gaussian 16 at Thu Dec 10 22:20:52 2020.

 ----------------------------------------------------------------------
 # B3LYP/6-311++G(d,p) empiricaldispersion=gd3bj scf=xqc pop=npa geom=c
 heck
 ----------------------------------------------------------------------

 ----------------------------------
 CID_283656_JID_6289_Energie_kation
 ----------------------------------
 Structure from the checkpoint file:  "JID_6289.chk"
 Charge =  1 Multiplicity = 2

 SCF Done:  E(UB3LYP) =  -709.377112737     A.U. after   24 cycles
 Normal termination of Gaussian 16 at Thu Dec 10 22:38:13 2020.
 Gaussian 16:  ES64L-G16RevA.03 25-Dec-2016

 ----------------------------------------------------------------------
 # B3LYP/6-311++G(d,p) empiricaldispersion=gd3bj scf=xqc pop=npa geom=c
 heck
 ----------------------------------------------------------------------

 ---------------------------------
 CID_283656_JID_6289_Energie_anion
 ---------------------------------
 Structure from the checkpoint file:  "JID_6289.chk"
 Charge = -1 Multiplicity = 2

                         Standard orientation:
 ---------------------------------------------------------------------
 Center     Atomic      Atomic             Coordinates (Angstroms)
 Number     Number       Type             X           Y           Z
 ---------------------------------------------------------------------
      1          6           0       -2.002959    0.883288    1.637916
      2          6           0       -1.884915    0.690494    0.113526
      3          6           0       -3.291967    0.485453   -0.492050
      4          6           0       -3.945961   -0.840383   -0.077857
      5          6           0       -3.042053   -2.037270   -0.403289
      6          6           0       -1.634224   -1.863442    0.182279
      7          6           0       -1.010884   -0.535428   -0.265995
      8          6           0        0.449667   -0.397977    0.205726
      9          6           0        1.053875    0.895749   -0.276174
     10          7           0        2.194822    1.050238   -0.853198
     11          7           0        2.977703   -0.131964   -0.980596
     12          6           0        3.779094   -0.599952    0.067962
     13          8           0        4.691857   -1.384739   -0.141118
     14          7           0        3.410160   -0.172789    1.332221
     15          6           0        0.226894    2.144236   -0.089011
     16          6           0       -1.236348    1.939035   -0.519179
     17          1           0       -1.031113    1.025354    2.119433
     18          1           0       -2.480913    0.031104    2.127309
     19          1           0       -2.609885    1.770277    1.855067
     20          1           0       -3.202999    0.506787   -1.587934
     21          1           0       -3.936403    1.330810   -0.215767
     22          1           0       -4.911440   -0.948438   -0.587083
     23          1           0       -4.167697   -0.830135    0.997128
     24          1           0       -3.494485   -2.967194   -0.038011
     25          1           0       -2.959742   -2.136612   -1.495328
     26          1           0       -1.674326   -1.905961    1.279280
     27          1           0       -0.989232   -2.693176   -0.133365
     28          1           0       -0.983718   -0.555154   -1.367468
     29          1           0        0.501035   -0.436137    1.301817
     30          1           0        1.045854   -1.236668   -0.161125
     31          1           0        3.521380   -0.099370   -1.835338
     32          1           0        3.023935    0.760570    1.401987
     33          1           0        4.112731   -0.393637    2.025381
     34          1           0        0.256445    2.421009    0.974592
     35          1           0        0.695656    2.962361   -0.643168
     36          1           0       -1.819461    2.834422   -0.268465
     37          1           0       -1.270586    1.836482   -1.612113
 ---------------------------------------------------------------------

 SCF Done:  E(UB3LYP) =  -709.677429173     A.U. after   33 cycles
 SCF Done:  E(UB3LYP) =  -709.677429173     a.u. after    1 cycles

 The electronic state is 2-A.
 Alpha  occ. eigenvalues --  -18.99040 -14.25539 -14.23302 -14.23197 -10.20125
 Alpha  occ. eigenvalues --  -10.11614 -10.08345 -10.07825 -10.07257 -10.07205
 Alpha  occ. eigenvalues --  -10.07181 -10.06991 -10.06987 -10.06977 -10.06746
 Alpha  occ. eigenvalues --  -10.05531  -0.95854  -0.88738  -0.80684  -0.76834
 Alpha  occ. eigenvalues --   -0.74056  -0.69239  -0.67274  -0.63878  -0.61190
 Alpha  occ. eigenvalues --   -0.58330  -0.54038  -0.52119  -0.50473  -0.49071
 Alpha  occ. eigenvalues --   -0.45750  -0.44252  -0.43476  -0.39891  -0.38347
 Alpha  occ. eigenvalues --   -0.38041  -0.37311  -0.36231  -0.34783  -0.33482
 Alpha  occ. eigenvalues --   -0.33163  -0.33061  -0.31729  -0.30928  -0.30749
 Alpha  occ. eigenvalues --   -0.28658  -0.27868  -0.27200  -0.26266  -0.25896
 Alpha  occ. eigenvalues --   -0.25259  -0.23941  -0.23650  -0.22991  -0.22323
 Alpha  occ. eigenvalues --   -0.21367  -0.19737  -0.19604  -0.18383  -0.16664
 Alpha  occ. eigenvalues --   -0.13385   0.04057
 Alpha virt. eigenvalues --    0.06088   0.07135   0.07455   0.07878   0.08455
 Alpha virt. eigenvalues --    0.09051   0.09197   0.09594   0.09984   0.10733
 Alpha virt. eigenvalues --    0.11287   0.11372   0.11969   0.12561   0.12942

  Beta  occ. eigenvalues --  -18.99035 -14.25542 -14.23219 -14.23161 -10.20119
  Beta  occ. eigenvalues --  -10.11510 -10.08345 -10.07812 -10.07247 -10.07202
  Beta  occ. eigenvalues --  -10.07169 -10.06979 -10.06970 -10.06959 -10.06732
  Beta  occ. eigenvalues --  -10.05488  -0.95834  -0.88645  -0.80622  -0.76776
  Beta  occ. eigenvalues --   -0.73983  -0.69203  -0.67240  -0.63822  -0.61126
  Beta  occ. eigenvalues --   -0.58252  -0.53985  -0.52067  -0.50424  -0.48999
  Beta  occ. eigenvalues --   -0.45682  -0.44176  -0.43411  -0.39796  -0.38298
  Beta  occ. eigenvalues --   -0.38000  -0.37271  -0.36185  -0.34739  -0.33441
  Beta  occ. eigenvalues --   -0.33104  -0.33007  -0.31670  -0.30864  -0.30702
  Beta  occ. eigenvalues --   -0.28622  -0.27840  -0.27151  -0.26233  -0.25852
  Beta  occ. eigenvalues --   -0.25201  -0.23903  -0.23570  -0.22943  -0.22151
  Beta  occ. eigenvalues --   -0.21278  -0.19679  -0.19568  -0.18304  -0.16554
  Beta  occ. eigenvalues --   -0.13300
  Beta virt. eigenvalues --    0.06234   0.07079   0.07669   0.07755   0.08480
  Beta virt. eigenvalues --    0.08938   0.09361   0.09542   0.10040   0.10265
  Beta virt. eigenvalues --    0.10957   0.11473   0.11867   0.12212   0.12818

 Mulliken charges and spin densities:
               1          2
     1  C    1.645820  -2.471545
     2  C   -0.344735   0.800681
     3  C   -0.708287   0.600424
     4  C    0.162063  -0.648114
     5  C   -0.270900  -0.265798
     6  C    0.268457  -0.373957
     7  C    0.175922  -0.444149
     8  C    1.069984  -0.863397
     9  C   -1.409165   0.463530
    10  N    0.028603   0.055389
    11  N   -0.236274   0.030784
    12  C    0.192522  -0.078700
    13  O   -0.389585   0.007439
    14  N   -0.316373  -0.127932
    15  C    0.298800  -0.716803
    16  C   -0.663047   0.616831
    17  H   -0.164784   0.329335
    18  H    0.056685   0.082537
    19  H   -0.320050   0.492767
    20  H   -0.017955   0.154984
    21  H   -0.093349   0.257598
    22  H   -0.330979   0.507675
    23  H    0.058413   0.062661
    24  H   -0.093856   0.266926
    25  H    0.092702   0.017045
    26  H   -0.052115   0.214596
    27  H    0.090312   0.052757
    28  H    0.086698   0.111551
    29  H    0.054580   0.167424
    30  H    0.263275  -0.065610
    31  H    0.259827   0.046851
    32  H   -0.015516   0.310036
    33  H    0.065662   0.251156
    34  H   -0.297983   0.486792
    35  H   -0.032347   0.239236
    36  H   -0.178840   0.370434
    37  H    0.065812   0.058566
 Sum of Mulliken charges =  -1.00000   1.00000

 Dipole moment (field-independent basis, Debye):
    X=             -0.6348    Y=             -1.5571    Z=             -3.1980  Tot=              3.6131
 Quadrupole moment (field-independent basis, Debye-Ang):
   XX=           -185.8638   YY=           -144.2518   ZZ=           -131.2018
   XY=              7.5911   XZ=              0.9569   YZ=             -6.4439

 Summary of Natural Population Analysis:

                                       Natural Population
                Natural  -----------------------------------------------
    Atom  No    Charge         Core      Valence    Rydberg      Total
 -----------------------------------------------------------------------
      C    1   -0.29285      0.99961     2.28509    0.00814     3.29285
      C    2   -0.03872      0.99954     2.02527    0.01391     3.03872
      C    3   -0.18633      0.99958     2.17606    0.01068     3.18633
      C    4   -0.18940      0.99963     2.18157    0.00820     3.18940
      C    5   -0.19165      0.99964     2.18193    0.01008     3.19165
      C    6   -0.17335      0.99961     2.16849    0.00525     3.17335
      C    7   -0.10497      0.99955     2.09367    0.01174     3.10497
      C    8   -0.23152      0.99955     2.22130    0.01067     3.23152
      C    9    0.17737      0.99958     1.80602    0.01703     2.82263
      N   10   -0.16492      0.99963     2.65363    0.01167     3.66492
      N   11   -0.25710      0.99966     2.74506    0.01238     3.75710
      C   12    0.39620      0.99973     1.58118    0.02289     2.60380
      O   13   -0.33758      0.99987     3.33205    0.00566     4.33758
      N   14   -0.41567      0.99971     2.90719    0.00876     3.91567
      C   15   -0.21304      0.99957     2.20295    0.01052     3.21304
      C   16   -0.18174      0.99958     2.17227    0.00989     3.18174
      H   17    0.10369      0.00000     0.39463    0.00168     0.39631
      H   18    0.10049      0.00000     0.39826    0.00126     0.39951
      H   19    0.10326      0.00000     0.39537    0.00136     0.39674
      H   20    0.09490      0.00000     0.40389    0.00121     0.40510
      H   21    0.10156      0.00000     0.39740    0.00105     0.39844
      H   22    0.09834      0.00000     0.40063    0.00104     0.40166
      H   23    0.09468      0.00000     0.40400    0.00132     0.40532
      H   24    0.09789      0.00000     0.40123    0.00088     0.40211
      H   25    0.09115      0.00000     0.40767    0.00118     0.40885
      H   26    0.09464      0.00000     0.40407    0.00128     0.40536
      H   27    0.09691      0.00000     0.40200    0.00109     0.40309
      H   28    0.09475      0.00000     0.40338    0.00187     0.40525
      H   29    0.11665      0.00000     0.38145    0.00190     0.38335
      H   30    0.11440      0.00000     0.38419    0.00141     0.38560
      H   31    0.19145      0.00000     0.30652    0.00203     0.30855
      H   32    0.19717      0.00000     0.29977    0.00306     0.30283
      H   33    0.19393      0.00000     0.30444    0.00162     0.30607
      H   34    0.11085      0.00000     0.38570    0.00345     0.38915
      H   35    0.10954      0.00000     0.38913    0.00133     0.39046
      H   36    0.10310      0.00000     0.39576    0.00113     0.39690
      H   37    0.09593      0.00000     0.40280    0.00127     0.40407
 =======================================================================
   * Total *    0.00004     15.99406    44.79602    0.20988    60.99996

 Normal termination of Gaussian 16 at Thu Dec 10 23:03:16 2020.
