 Gaussian 16, Revision A.03,

 -----------------------------------------------------------
 # opt freq B3LYP/6-31G(d) empiricaldispersion=gd3bj scf=xqc
 -----------------------------------------------------------

 ------------------------------
 CID_51076698_JID_5957_neutraal
 ------------------------------
 Symbolic Z-matrix:
 Charge =  0 Multiplicity = 1

 SCF Done:  E(RB3LYP) =  -720.870398249     A.U. after   15 cycles
 SCF Done:  E(RB3LYP) =  -720.874507049     A.U. after   13 cycles
 SCF Done:  E(RB3LYP) =  -720.874885614     A.U. after   12 cycles
 SCF Done:  E(RB3LYP) =  -720.875176867     A.U. after   12 cycles
 SCF Done:  E(RB3LYP) =  -720.875356872     A.U. after   11 cycles
 SCF Done:  E(RB3LYP) =  -720.875470613     A.U. after   11 cycles
 SCF Done:  E(RB3LYP) =  -720.875552754     A.U. after   11 cycles
 SCF Done:  E(RB3LYP) =  -720.875611429     A.U. after   11 cycles
 SCF Done:  E(RB3LYP) =  -720.875644481     A.U. after   10 cycles
 SCF Done:  E(RB3LYP) =  -720.875665284     A.U. after   10 cycles
 SCF Done:  E(RB3LYP) =  -720.875674336     A.U. after   10 cycles
 SCF Done:  E(RB3LYP) =  -720.875679609     A.U. after   10 cycles
 SCF Done:  E(RB3LYP) =  -720.875682327     A.U. after   10 cycles
 Optimization completed.
    -- Stationary point found.
 Normal termination of Gaussian 16 at Thu Dec 10 17:39:17 2020.

 --------------------------------------------------------------------
 #N Geom=AllCheck Guess=TCheck SCRF=Check GenChk RB3LYP/6-31G(d) Freq
 --------------------------------------------------------------------

 Structure from the checkpoint file:  "JID_5957.chk"
 ------------------------------
 CID_51076698_JID_5957_neutraal
 ------------------------------
 Charge =  0 Multiplicity = 1

 SCF Done:  E(RB3LYP) =  -720.875682327     A.U. after    1 cycles

  Exact polarizability: 149.476   3.246 113.439 -10.825   3.385  94.191
 Approx polarizability: 196.703  17.918 188.963 -20.977   9.566 137.582

                      1                      2                      3
                      A                      A                      A
 Frequencies --     20.9352                36.2915                47.9295
 Red. masses --      5.4844                 4.2885                 5.4227
 Frc consts  --      0.0014                 0.0033                 0.0073
 IR Inten    --      0.5674                 1.0375                 1.9388

                      4                      5                      6
                      A                      A                      A
 Frequencies --     71.2746               109.1857               142.8758
 Red. masses --      3.4486                 6.7917                 3.7769
 Frc consts  --      0.0103                 0.0477                 0.0454
 IR Inten    --      1.1634                 1.1195                 0.2661

                      7                      8                      9
                      A                      A                      A
 Frequencies --    215.6755               234.5975               243.2679
 Red. masses --      2.7251                 3.4826                 1.0661
 Frc consts  --      0.0747                 0.1129                 0.0372
 IR Inten    --      2.1067                 2.6371                 0.7443

                     10                     11                     12
                      A                      A                      A
 Frequencies --    258.8658               296.8752               329.0334
 Red. masses --      4.0172                 2.8943                 3.5233
 Frc consts  --      0.1586                 0.1503                 0.2247
 IR Inten    --      2.6153                10.3466                 3.3108

                     13                     14                     15
                      A                      A                      A
 Frequencies --    369.5636               417.8233               428.7582
 Red. masses --      6.4246                 3.7418                 1.9851
 Frc consts  --      0.5170                 0.3849                 0.2150
 IR Inten    --      8.6822                 5.7374                 0.3635

                     16                     17                     18
                      A                      A                      A
 Frequencies --    446.5594               487.7144               582.2346
 Red. masses --      4.2578                 2.9449                 2.8307
 Frc consts  --      0.5003                 0.4127                 0.5654
 IR Inten    --      1.4739                 0.5358                23.8975

                     19                     20                     21
                      A                      A                      A
 Frequencies --    650.6620               668.2878               695.0202
 Red. masses --      2.6980                 3.8094                 3.5130
 Frc consts  --      0.6730                 1.0024                 0.9998
 IR Inten    --      9.5073                11.7896                24.1717

                     22                     23                     24
                      A                      A                      A
 Frequencies --    724.6774               757.2827               787.7328
 Red. masses --      4.3292                 3.8600                 2.9926
 Frc consts  --      1.3395                 1.3042                 1.0941
 IR Inten    --      6.0209                 8.2011                 2.1274

                     25                     26                     27
                      A                      A                      A
 Frequencies --    859.1305               865.0777               870.7940
 Red. masses --      1.4016                 1.7676                 2.9889
 Frc consts  --      0.6095                 0.7794                 1.3353
 IR Inten    --     11.9528                 0.4614                10.9929

                     28                     29                     30
                      A                      A                      A
 Frequencies --    890.3364               921.2274               963.2355
 Red. masses --      1.3848                 2.5501                 3.1347
 Frc consts  --      0.6468                 1.2751                 1.7136
 IR Inten    --      3.5351                 4.8996                29.9529

                     31                     32                     33
                      A                      A                      A
 Frequencies --    975.0764               992.5534              1032.2786
 Red. masses --      3.8725                 3.0254                 2.2787
 Frc consts  --      2.1693                 1.7561                 1.4307
 IR Inten    --      6.5698                 9.3686                 6.9505

                     34                     35                     36
                      A                      A                      A
 Frequencies --   1043.3120              1057.8636              1092.7683
 Red. masses --      3.4971                 2.4800                 1.8974
 Frc consts  --      2.2428                 1.6352                 1.3349
 IR Inten    --     38.1017                48.3854                 6.1905

                     37                     38                     39
                      A                      A                      A
 Frequencies --   1103.2823              1132.1168              1146.8630
 Red. masses --      1.7397                 1.8461                 2.1769
 Frc consts  --      1.2477                 1.3941                 1.6870
 IR Inten    --      8.4174                 9.4818                34.6044

                     40                     41                     42
                      A                      A                      A
 Frequencies --   1154.5677              1173.3403              1216.4924
 Red. masses --      5.0005                 2.1213                 2.2155
 Frc consts  --      3.9273                 1.7207                 1.9317
 IR Inten    --     83.5189                34.6782                62.1793

                     43                     44                     45
                      A                      A                      A
 Frequencies --   1231.8799              1234.4560              1254.9668
 Red. masses --      2.6105                 1.8635                 1.1916
 Frc consts  --      2.3341                 1.6731                 1.1057
 IR Inten    --     14.9430                35.5353                 0.3177

                     46                     47                     48
                      A                      A                      A
 Frequencies --   1268.7812              1308.6596              1322.6988
 Red. masses --      1.7026                 1.4811                 3.1806
 Frc consts  --      1.6149                 1.4945                 3.2785
 IR Inten    --    126.0040                41.7322                48.8857

                     49                     50                     51
                      A                      A                      A
 Frequencies --   1338.3419              1344.6018              1374.1011
 Red. masses --      1.3431                 1.3253                 1.2541
 Frc consts  --      1.4174                 1.4118                 1.3952
 IR Inten    --      3.4290                19.1090                 0.4106

                     52                     53                     54
                      A                      A                      A
 Frequencies --   1390.8767              1408.2212              1414.4165
 Red. masses --      3.9300                 1.2654                 2.2857
 Frc consts  --      4.4794                 1.4785                 2.6942
 IR Inten    --     11.4717                15.9467                33.5696

                     55                     56                     57
                      A                      A                      A
 Frequencies --   1414.6923              1430.0488              1442.4358
 Red. masses --      1.4702                 1.2461                 1.3553
 Frc consts  --      1.7337                 1.5014                 1.6614
 IR Inten    --      5.3568                 7.9799                 3.2094

                     58                     59                     60
                      A                      A                      A
 Frequencies --   1469.1810              1500.1808              1510.6203
 Red. masses --      3.0028                 1.7902                 1.1551
 Frc consts  --      3.8188                 2.3737                 1.5531
 IR Inten    --     36.6481               103.1618                12.7147

                     61                     62                     63
                      A                      A                      A
 Frequencies --   1513.0303              1520.0803              1522.3306
 Red. masses --      1.0853                 1.1218                 1.1113
 Frc consts  --      1.4638                 1.5272                 1.5174
 IR Inten    --      0.7703                14.9081                 5.0253

                     64                     65                     66
                      A                      A                      A
 Frequencies --   1526.7584              1529.6410              1554.2834
 Red. masses --      1.1075                 1.1310                 4.2444
 Frc consts  --      1.5210                 1.5592                 6.0412
 IR Inten    --      2.3469                29.6836                41.3548

                     67                     68                     69
                      A                      A                      A
 Frequencies --   1754.5379              2998.4829              3008.4249
 Red. masses --     10.6707                 1.0707                 1.0708
 Frc consts  --     19.3539                 5.6717                 5.7101
 IR Inten    --    287.2729                30.3263                45.6808

                     70                     71                     72
                      A                      A                      A
 Frequencies --   3034.2764              3042.8234              3064.6154
 Red. masses --      1.0721                 1.0712                 1.0343
 Frc consts  --      5.8153                 5.8433                 5.7233
 IR Inten    --     23.8018                59.4605                14.2110

                     73                     74                     75
                      A                      A                      A
 Frequencies --   3119.8507              3125.3949              3134.5862
 Red. masses --      1.0950                 1.0958                 1.0971
 Frc consts  --      6.2796                 6.3066                 6.3514
 IR Inten    --     35.8489                36.5217                 3.6246

                     76                     77                     78
                      A                      A                      A
 Frequencies --   3142.8016              3154.7341              3170.8057
 Red. masses --      1.0956                 1.1010                 1.0930
 Frc consts  --      6.3759                 6.4559                 6.4748
 IR Inten    --     34.6621                 4.9590                 3.4054

                     79                     80                     81
                      A                      A                      A
 Frequencies --   3172.1459              3274.7177              3324.3992
 Red. masses --      1.0880                 1.0967                 1.0987
 Frc consts  --      6.4503                 6.9294                 7.1540
 IR Inten    --     15.3459                 7.9393                 2.1987

 - Thermochemistry -
 -------------------
 Temperature   298.150 Kelvin.  Pressure   1.00000 Atm.
 Atom     1 has atomic number  6 and mass  12.00000

 Molecular mass:   210.11168 amu.
 Principal axes and moments of inertia in atomic units:
                           1         2         3
     Eigenvalues --  1288.027365810.956996003.29281
           X            0.99997  -0.00326   0.00639
           Y            0.00372   0.99732  -0.07301
           Z           -0.00613   0.07303   0.99731
 This molecule is an asymmetric top.
 Rotational symmetry number  1.
 Warning -- assumption of classical behavior for rotation
           may cause significant error
 Rotational temperatures (Kelvin)      0.06725     0.01491     0.01443
 Rotational constants (GHZ):           1.40117     0.31058     0.30063
 Zero-point vibrational energy     639172.6 (Joules/Mol)
                                  152.76593 (Kcal/Mol)
 Warning -- explicit consideration of  18 degrees of freedom as
           vibrations may cause significant error
 Vibrational temperatures:     30.12    52.22    68.96   102.55   157.09
          (Kelvin)            205.57   310.31   337.53   350.01   372.45
                              427.14   473.41   531.72   601.15   616.89
                              642.50   701.71   837.71   936.16   961.52
                              999.98  1042.65  1089.56  1133.37  1236.10
                             1244.65  1252.88  1281.00  1325.44  1385.88
                             1402.92  1428.06  1485.22  1501.09  1522.03
                             1572.25  1587.38  1628.86  1650.08  1661.17
                             1688.17  1750.26  1772.40  1776.11  1805.62
                             1825.49  1882.87  1903.07  1925.58  1934.58
                             1977.03  2001.16  2026.12  2035.03  2035.43
                             2057.52  2075.34  2113.82  2158.43  2173.45
                             2176.91  2187.06  2190.29  2196.66  2200.81
                             2236.27  2524.39  4314.15  4328.45  4365.65
                             4377.94  4409.30  4488.77  4496.75  4509.97
                             4521.79  4538.96  4562.08  4564.01  4711.59
                             4783.07

 Zero-point correction=                           0.243448 (Hartree/Particle)
 Thermal correction to Energy=                    0.256947
 Thermal correction to Enthalpy=                  0.257891
 Thermal correction to Gibbs Free Energy=         0.200939
 Sum of electronic and zero-point Energies=           -720.632234
 Sum of electronic and thermal Energies=              -720.618736
 Sum of electronic and thermal Enthalpies=            -720.617791
 Sum of electronic and thermal Free Energies=         -720.674743

                     E (Thermal)             CV                S
                      KCal/Mol        Cal/Mol-Kelvin    Cal/Mol-Kelvin
 Total                  161.237             50.255            119.865
 Electronic               0.000              0.000              0.000
 Translational            0.889              2.981             41.931
 Rotational               0.889              2.981             32.174
 Vibrational            159.459             44.293             45.760
 Vibration     1          0.593              1.986              6.543
 Vibration     2          0.594              1.982              5.452
 Vibration     3          0.595              1.978              4.901
 Vibration     4          0.598              1.968              4.118
 Vibration     5          0.606              1.942              3.283
 Vibration     6          0.616              1.910              2.765
 Vibration     7          0.645              1.817              1.995
 Vibration     8          0.654              1.788              1.843
 Vibration     9          0.659              1.774              1.779
 Vibration    10          0.668              1.748              1.669
 Vibration    11          0.691              1.680              1.434
 Vibration    12          0.712              1.617              1.265
 Vibration    13          0.742              1.535              1.082
 Vibration    14          0.781              1.432              0.899
 Vibration    15          0.790              1.408              0.863
 Vibration    16          0.806              1.368              0.806
 Vibration    17          0.844              1.277              0.690
 Vibration    18          0.939              1.070              0.481

                           ! Non-Optimized Parameters !
 Normal termination of Gaussian 16 at Thu Dec 10 17:48:06 2020.

 ----------------------------------------------------------------------
 # B3LYP/6-311++G(d,p) empiricaldispersion=gd3bj scf=xqc pop=npa geom=c
 heck
 ----------------------------------------------------------------------

 --------------------------------------
 CID_51076698_JID_5957_Energie_neutraal
 --------------------------------------
 Structure from the checkpoint file:  "JID_5957.chk"
 Charge =  0 Multiplicity = 1

 SCF Done:  E(RB3LYP) =  -721.076890112     A.U. after   14 cycles
 Normal termination of Gaussian 16 at Thu Dec 10 17:51:27 2020.

 ----------------------------------------------------------------------
 # B3LYP/6-311++G(d,p) empiricaldispersion=gd3bj scf=xqc pop=npa geom=c
 heck
 ----------------------------------------------------------------------

 ------------------------------------
 CID_51076698_JID_5957_Energie_kation
 ------------------------------------
 Structure from the checkpoint file:  "JID_5957.chk"
 Charge =  1 Multiplicity = 2

 SCF Done:  E(UB3LYP) =  -720.754370934     A.U. after   29 cycles
 Normal termination of Gaussian 16 at Thu Dec 10 18:00:08 2020.
 Gaussian 16:  ES64L-G16RevA.03 25-Dec-2016

 ----------------------------------------------------------------------
 # B3LYP/6-311++G(d,p) empiricaldispersion=gd3bj scf=xqc pop=npa geom=c
 heck
 ----------------------------------------------------------------------

 -----------------------------------
 CID_51076698_JID_5957_Energie_anion
 -----------------------------------
 Structure from the checkpoint file:  "JID_5957.chk"
 Charge = -1 Multiplicity = 2

                         Standard orientation:
 ---------------------------------------------------------------------
 Center     Atomic      Atomic             Coordinates (Angstroms)
 Number     Number       Type             X           Y           Z
 ---------------------------------------------------------------------
      1          6           0        1.136983   -0.805559    2.084600
      2          6           0        0.918285   -0.538486    0.587202
      3          6           0       -0.127186    0.574068    0.409400
      4          8           0        0.223913    1.749624    0.367463
      5          7           0       -1.442645    0.204355    0.371815
      6          6           0       -1.998157   -1.143726    0.466002
      7          6           0       -2.981843   -1.370818   -0.685156
      8          8           0       -3.991610   -0.376884   -0.700115
      9          6           0       -3.429129    0.921835   -0.853079
     10          6           0       -2.470466    1.245708    0.288945
     11          7           0        2.166308   -0.185759   -0.075428
     12          6           0        2.943390    0.922558   -0.004113
     13          7           0        4.058323    0.742865   -0.696046
     14          6           0        3.915022   -0.525727   -1.173747
     15          7           0        2.793335   -1.138585   -0.825636
     16          1           0        1.446806    0.113947    2.589668
     17          1           0        1.914560   -1.563254    2.214346
     18          1           0        0.213491   -1.161754    2.553039
     19          1           0        0.622512   -1.459999    0.087765
     20          1           0       -2.531476   -1.245421    1.421805
     21          1           0       -1.211960   -1.897149    0.437251
     22          1           0       -2.429326   -1.372517   -1.639156
     23          1           0       -3.489290   -2.332522   -0.568255
     24          1           0       -4.267990    1.622788   -0.862721
     25          1           0       -2.895404    0.991935   -1.814379
     26          1           0       -3.024431    1.279163    1.237161
     27          1           0       -1.969019    2.201232    0.136539
     28          1           0        2.640179    1.812919    0.521696
     29          1           0        4.654281   -1.010533   -1.796789
 ---------------------------------------------------------------------

 SCF Done:  E(UB3LYP) =  -721.069397522     A.U. after   31 cycles

 The electronic state is 2-A.
 Alpha  occ. eigenvalues --  -19.03857 -18.99571 -14.30855 -14.25649 -14.24943
 Alpha  occ. eigenvalues --  -14.21614 -10.18158 -10.14423 -10.14205 -10.13126
 Alpha  occ. eigenvalues --  -10.12943 -10.12734 -10.11480 -10.11027 -10.08032
 Alpha  occ. eigenvalues --   -0.99000  -0.95897  -0.94840  -0.84781  -0.81854
 Alpha  occ. eigenvalues --   -0.75625  -0.69396  -0.68157  -0.63372  -0.58414
 Alpha  occ. eigenvalues --   -0.57403  -0.53946  -0.53149  -0.50152  -0.46996
 Alpha  occ. eigenvalues --   -0.44533  -0.41067  -0.39775  -0.39452  -0.38997
 Alpha  occ. eigenvalues --   -0.37689  -0.37416  -0.36763  -0.34519  -0.33904
 Alpha  occ. eigenvalues --   -0.33191  -0.31791  -0.31111  -0.30404  -0.29228
 Alpha  occ. eigenvalues --   -0.27981  -0.27263  -0.26957  -0.24497  -0.23067
 Alpha  occ. eigenvalues --   -0.20565  -0.19400  -0.18995  -0.17848  -0.16978
 Alpha  occ. eigenvalues --   -0.14928   0.04263
 Alpha virt. eigenvalues --    0.06974   0.07412   0.07861   0.08283   0.08732
 Alpha virt. eigenvalues --    0.09486   0.09973   0.10251   0.10338   0.10788
 Alpha virt. eigenvalues --    0.11697   0.11907   0.12324   0.13410   0.13660

  Beta  occ. eigenvalues --  -19.03850 -18.99498 -14.30855 -14.25667 -14.24929
  Beta  occ. eigenvalues --  -14.21614 -10.18081 -10.14412 -10.14203 -10.13111
  Beta  occ. eigenvalues --  -10.12942 -10.12707 -10.11427 -10.11004 -10.07970
  Beta  occ. eigenvalues --   -0.98987  -0.95858  -0.94738  -0.84749  -0.81843
  Beta  occ. eigenvalues --   -0.75598  -0.69348  -0.68095  -0.63306  -0.58337
  Beta  occ. eigenvalues --   -0.57342  -0.53910  -0.53097  -0.50118  -0.46929
  Beta  occ. eigenvalues --   -0.44471  -0.40996  -0.39743  -0.39409  -0.38930
  Beta  occ. eigenvalues --   -0.37654  -0.37363  -0.36700  -0.34487  -0.33824
  Beta  occ. eigenvalues --   -0.33155  -0.31708  -0.31043  -0.30333  -0.29169
  Beta  occ. eigenvalues --   -0.27857  -0.27122  -0.26875  -0.24471  -0.23028
  Beta  occ. eigenvalues --   -0.20536  -0.19392  -0.18924  -0.17809  -0.16916
  Beta  occ. eigenvalues --   -0.14833
  Beta virt. eigenvalues --    0.06885   0.07653   0.07961   0.08199   0.08508
  Beta virt. eigenvalues --    0.09115   0.09737   0.10423   0.10805   0.11039
  Beta virt. eigenvalues --    0.11327   0.12006   0.12108   0.12589   0.13491

 Mulliken charges and spin densities:
               1          2
     1  C    1.317475  -1.650101
     2  C   -1.669691   0.787446
     3  C   -0.061713   0.026248
     4  O   -0.338617   0.022461
     5  N   -0.052009   0.147208
     6  C    0.178674  -0.287701
     7  C    1.292086  -1.779445
     8  O   -0.209782   0.091238
     9  C    0.118177  -0.444243
    10  C    0.518124  -0.510131
    11  N    0.084026   0.030205
    12  C    0.032908   0.004225
    13  N   -0.174717  -0.003362
    14  C   -0.073016  -0.001117
    15  N    0.095754  -0.001604
    16  H    0.002029   0.178343
    17  H   -0.166654   0.338947
    18  H   -0.709596   0.901777
    19  H    0.093357   0.124773
    20  H   -0.449675   0.663553
    21  H   -0.408691   0.557697
    22  H    0.072163   0.061395
    23  H   -0.569756   0.778355
    24  H   -0.092465   0.284051
    25  H    0.077673   0.050198
    26  H   -0.298079   0.491848
    27  H    0.085716   0.091855
    28  H    0.177616   0.018909
    29  H    0.128684   0.026972
 Sum of Mulliken charges =  -1.00000   1.00000

 Dipole moment (field-independent basis, Debye):
    X=              3.7241    Y=              3.5994    Z=             -4.1677  Tot=              6.6479
 Quadrupole moment (field-independent basis, Debye-Ang):
   XX=           -163.5139   YY=           -135.2298   ZZ=           -124.7786
   XY=            -12.3446   XZ=              8.9773   YZ=              8.9414

 Summary of Natural Population Analysis:

                                       Natural Population
                Natural  -----------------------------------------------
    Atom  No    Charge         Core      Valence    Rydberg      Total
 -----------------------------------------------------------------------
      C    1   -0.28253      0.99964     2.27743    0.00547     3.28253
      C    2   -0.04350      0.99955     2.03122    0.01273     3.04350
      C    3    0.35726      0.99962     1.61962    0.02350     2.64274
      O    4   -0.32645      0.99988     3.32163    0.00494     4.32645
      N    5   -0.25579      0.99964     2.74418    0.01196     3.75579
      C    6   -0.10025      0.99960     2.08839    0.01226     3.10025
      C    7   -0.01299      0.99958     1.99999    0.01342     3.01299
      O    8   -0.29611      0.99989     3.28663    0.00959     4.29611
      C    9   -0.01371      0.99958     2.00214    0.01200     3.01371
      C   10   -0.10261      0.99960     2.09248    0.01053     3.10261
      N   11   -0.11264      0.99964     2.59903    0.01396     3.61264
      C   12    0.11738      0.99964     1.86746    0.01552     2.88262
      N   13   -0.27016      0.99973     2.75928    0.01114     3.77016
      C   14    0.08170      0.99971     1.89979    0.01881     2.91830
      N   15   -0.15746      0.99974     2.64663    0.01109     3.65746
      H   16    0.10200      0.00000     0.39681    0.00119     0.39800
      H   17    0.10682      0.00000     0.39199    0.00119     0.39318
      H   18    0.11123      0.00000     0.38682    0.00195     0.38877
      H   19    0.11702      0.00000     0.38020    0.00277     0.38298
      H   20    0.10394      0.00000     0.38946    0.00660     0.39606
      H   21    0.10760      0.00000     0.38949    0.00291     0.39240
      H   22    0.07668      0.00000     0.42184    0.00148     0.42332
      H   23    0.09963      0.00000     0.39814    0.00223     0.40037
      H   24    0.09456      0.00000     0.40424    0.00120     0.40544
      H   25    0.07840      0.00000     0.42024    0.00136     0.42160
      H   26    0.09904      0.00000     0.39923    0.00173     0.40096
      H   27    0.11844      0.00000     0.38039    0.00117     0.38156
      H   28    0.11191      0.00000     0.38663    0.00145     0.38809
      H   29    0.09059      0.00000     0.40857    0.00085     0.40941
 =======================================================================
   * Total *   -0.00000     14.99504    40.78995    0.21501    56.00000

 Normal termination of Gaussian 16 at Thu Dec 10 18:09:17 2020.
