 Gaussian 16, Revision A.03,

 -----------------------------------------------------------
 # opt freq B3LYP/6-31G(d) empiricaldispersion=gd3bj scf=xqc
 -----------------------------------------------------------

 ------------------------------
 CID_2868031_JID_10892_neutraal
 ------------------------------
 Symbolic Z-matrix:
 Charge =  0 Multiplicity = 1

 SCF Done:  E(RB3LYP) =  -928.616818554     A.U. after   15 cycles
 SCF Done:  E(RB3LYP) =  -928.565653943     A.U. after   16 cycles
 SCF Done:  E(RB3LYP) =  -928.626231130     A.U. after   14 cycles
 SCF Done:  E(RB3LYP) =  -928.626845850     A.U. after   14 cycles
 SCF Done:  E(RB3LYP) =  -928.629029724     A.U. after   14 cycles
 SCF Done:  E(RB3LYP) =  -928.629897353     A.U. after   13 cycles
 SCF Done:  E(RB3LYP) =  -928.630126112     A.U. after   13 cycles
 SCF Done:  E(RB3LYP) =  -928.631422986     A.U. after   12 cycles
 SCF Done:  E(RB3LYP) =  -928.631981533     A.U. after   13 cycles
 SCF Done:  E(RB3LYP) =  -928.632637515     A.U. after   14 cycles
 SCF Done:  E(RB3LYP) =  -928.633151287     A.U. after   10 cycles
 SCF Done:  E(RB3LYP) =  -928.633151705     A.U. after    8 cycles
 SCF Done:  E(RB3LYP) =  -928.633151908     A.U. after    8 cycles
 SCF Done:  E(RB3LYP) =  -928.633151946     A.U. after    7 cycles
 SCF Done:  E(RB3LYP) =  -928.633152014     A.U. after    7 cycles
 SCF Done:  E(RB3LYP) =  -928.633152041     A.U. after    8 cycles
 Optimization completed.
    -- Stationary point found.
 Normal termination of Gaussian 16 at Sat Dec 12 16:55:23 2020.

 --------------------------------------------------------------------
 #N Geom=AllCheck Guess=TCheck SCRF=Check GenChk RB3LYP/6-31G(d) Freq
 --------------------------------------------------------------------

 Structure from the checkpoint file:  "JID_10892.chk"
 ------------------------------
 CID_2868031_JID_10892_neutraal
 ------------------------------
 Charge =  0 Multiplicity = 1

 SCF Done:  E(RB3LYP) =  -928.633152041     A.U. after    1 cycles

  Exact polarizability: 170.193   4.298 180.744   9.876  -5.065 142.108
 Approx polarizability: 252.475  12.769 303.064  29.667 -12.659 249.755

                      1                      2                      3
                      A                      A                      A
 Frequencies --     12.2602                39.3839                44.8996
 Red. masses --      5.4149                 5.6668                 5.1204
 Frc consts  --      0.0005                 0.0052                 0.0061
 IR Inten    --      0.1917                 0.5284                 0.6557

                      4                      5                      6
                      A                      A                      A
 Frequencies --     61.1665                79.2614               104.5670
 Red. masses --      4.2958                 6.7405                 6.4788
 Frc consts  --      0.0095                 0.0249                 0.0417
 IR Inten    --      0.9293                 0.4229                 1.0393

                      7                      8                      9
                      A                      A                      A
 Frequencies --    116.1980               153.8215               164.1370
 Red. masses --      4.7981                 5.0926                 1.9591
 Frc consts  --      0.0382                 0.0710                 0.0311
 IR Inten    --      1.1383                 2.1272                 4.3965

                     10                     11                     12
                      A                      A                      A
 Frequencies --    166.6935               185.5895               208.4721
 Red. masses --      2.0241                 6.1536                 3.4060
 Frc consts  --      0.0331                 0.1249                 0.0872
 IR Inten    --      3.3885                 1.8863                 3.2336

                     13                     14                     15
                      A                      A                      A
 Frequencies --    229.2806               255.3733               283.4257
 Red. masses --      3.9454                 3.9018                 3.0196
 Frc consts  --      0.1222                 0.1499                 0.1429
 IR Inten    --      0.7528                 0.7600                 0.8308

                     16                     17                     18
                      A                      A                      A
 Frequencies --    302.8370               304.7454               372.0466
 Red. masses --      3.1090                 3.6476                 4.0225
 Frc consts  --      0.1680                 0.1996                 0.3280
 IR Inten    --      1.2794                11.8240                 5.3257

                     19                     20                     21
                      A                      A                      A
 Frequencies --    391.5953               413.5742               471.8743
 Red. masses --      3.5756                 3.5398                 2.6509
 Frc consts  --      0.3231                 0.3567                 0.3478
 IR Inten    --      4.5874                18.8520                13.1431

                     22                     23                     24
                      A                      A                      A
 Frequencies --    480.9704               500.2001               513.9718
 Red. masses --      1.8425                 3.8692                 3.4620
 Frc consts  --      0.2511                 0.5704                 0.5388
 IR Inten    --    109.5781                 3.3451                17.2504

                     25                     26                     27
                      A                      A                      A
 Frequencies --    548.1292               577.9397               592.7060
 Red. masses --      4.4983                 3.5839                 3.7920
 Frc consts  --      0.7963                 0.7053                 0.7849
 IR Inten    --     26.1284                25.5311                 0.8073

                     28                     29                     30
                      A                      A                      A
 Frequencies --    604.4997               632.9203               669.4962
 Red. masses --      4.1167                 6.6411                 3.1642
 Frc consts  --      0.8863                 1.5674                 0.8356
 IR Inten    --      2.0773                 5.8745                10.5717

                     31                     32                     33
                      A                      A                      A
 Frequencies --    695.6083               714.2624               722.6623
 Red. masses --      4.7681                 2.6614                 2.0109
 Frc consts  --      1.3593                 0.8000                 0.6187
 IR Inten    --      5.5042                70.6139                24.5900

                     34                     35                     36
                      A                      A                      A
 Frequencies --    757.7226               780.5562               812.0704
 Red. masses --      3.9944                 7.1110                 2.4610
 Frc consts  --      1.3512                 2.5526                 0.9562
 IR Inten    --     19.1993                10.4317                78.3329

                     37                     38                     39
                      A                      A                      A
 Frequencies --    819.6700               857.7018               863.3436
 Red. masses --      1.5802                 2.9688                 3.4859
 Frc consts  --      0.6255                 1.2868                 1.5309
 IR Inten    --     42.1246                 2.4457                 5.8460

                     40                     41                     42
                      A                      A                      A
 Frequencies --    893.7774               948.2831               959.4779
 Red. masses --      3.0337                 1.4257                 1.3424
 Frc consts  --      1.4279                 0.7553                 0.7281
 IR Inten    --     36.8732                 3.4150                 2.4060

                     43                     44                     45
                      A                      A                      A
 Frequencies --    965.3017               991.7305               995.4877
 Red. masses --      2.6762                 1.4896                 1.9774
 Frc consts  --      1.4693                 0.8632                 1.1545
 IR Inten    --     31.0231                 8.2482                 7.2827

                     46                     47                     48
                      A                      A                      A
 Frequencies --   1000.5861              1009.0133              1042.4545
 Red. masses --      1.4540                 2.0455                 3.9116
 Frc consts  --      0.8577                 1.2270                 2.5045
 IR Inten    --      2.5267                 3.7538                 7.9631

                     49                     50                     51
                      A                      A                      A
 Frequencies --   1048.0833              1061.7676              1073.4388
 Red. masses --      2.2561                 2.9253                 2.0001
 Frc consts  --      1.4601                 1.9430                 1.3579
 IR Inten    --      4.1736                14.5632                 1.8826

                     52                     53                     54
                      A                      A                      A
 Frequencies --   1077.5706              1101.0979              1110.7809
 Red. masses --      2.5602                 2.9476                 2.7747
 Frc consts  --      1.7515                 2.1056                 2.0170
 IR Inten    --     12.0232                16.5033                38.0618

                     55                     56                     57
                      A                      A                      A
 Frequencies --   1156.9665              1196.5374              1199.4216
 Red. masses --      1.4299                 1.4716                 1.3545
 Frc consts  --      1.1277                 1.2414                 1.1481
 IR Inten    --      3.9791                36.2911                16.8360

                     58                     59                     60
                      A                      A                      A
 Frequencies --   1231.9125              1240.6726              1260.6724
 Red. masses --      2.3134                 1.6811                 1.4681
 Frc consts  --      2.0686                 1.5246                 1.3747
 IR Inten    --      6.3813                 9.1204                18.7803

                     61                     62                     63
                      A                      A                      A
 Frequencies --   1266.4607              1303.4838              1314.8660
 Red. masses --      3.2554                 6.9939                 1.7687
 Frc consts  --      3.0764                 7.0013                 1.8016
 IR Inten    --     89.6661                 3.6869                14.1406

                     64                     65                     66
                      A                      A                      A
 Frequencies --   1338.7151              1351.8129              1379.8146
 Red. masses --      1.8339                 2.5639                 1.3068
 Frc consts  --      1.9364                 2.7605                 1.4659
 IR Inten    --     53.6984                88.8067                 7.0342

                     67                     68                     69
                      A                      A                      A
 Frequencies --   1381.9521              1408.5467              1419.2606
 Red. masses --      1.3531                 1.6104                 1.3977
 Frc consts  --      1.5225                 1.8825                 1.6587
 IR Inten    --     27.5018                21.6102                27.9378

                     70                     71                     72
                      A                      A                      A
 Frequencies --   1423.5783              1447.3183              1463.1630
 Red. masses --      1.5679                 1.5143                 1.3444
 Frc consts  --      1.8721                 1.8690                 1.6958
 IR Inten    --     26.1513                 2.4942                 9.9892

                     73                     74                     75
                      A                      A                      A
 Frequencies --   1476.4686              1506.3150              1507.0344
 Red. masses --      1.9638                 1.0511                 1.0721
 Frc consts  --      2.5223                 1.4052                 1.4346
 IR Inten    --     25.2454                 7.7540                 5.2564

                     76                     77                     78
                      A                      A                      A
 Frequencies --   1514.3233              1521.1231              1528.1262
 Red. masses --      1.0946                 2.0589                 1.1043
 Frc consts  --      1.4789                 2.8068                 1.5193
 IR Inten    --     16.1958                10.2172                 6.4507

                     79                     80                     81
                      A                      A                      A
 Frequencies --   1619.9239              1645.1419              1685.0303
 Red. masses --      4.8219                 5.4591                 7.2279
 Frc consts  --      7.4552                 8.7053                12.0914
 IR Inten    --     23.7565                19.0409                 8.3843

                     82                     83                     84
                      A                      A                      A
 Frequencies --   1704.9338              1772.4739              1828.9183
 Red. masses --      8.3195                 7.6051                10.8753
 Frc consts  --     14.2483                14.0771                21.4328
 IR Inten    --     20.5804               362.2568               367.2812

                     85                     86                     87
                      A                      A                      A
 Frequencies --   3041.8548              3054.1825              3071.4841
 Red. masses --      1.0391                 1.0807                 1.0699
 Frc consts  --      5.6647                 5.9394                 5.9467
 IR Inten    --     17.7222                 8.4637                10.0302

                     88                     89                     90
                      A                      A                      A
 Frequencies --   3080.0422              3089.9240              3132.7014
 Red. masses --      1.0676                 1.0991                 1.0871
 Frc consts  --      5.9674                 6.1826                 6.2855
 IR Inten    --     21.4129                17.5546                19.1293

                     91                     92                     93
                      A                      A                      A
 Frequencies --   3140.9548              3149.9558              3151.0427
 Red. masses --      1.0932                 1.0992                 1.0963
 Frc consts  --      6.3543                 6.4257                 6.4135
 IR Inten    --      6.1110                11.6674                10.5123

                     94                     95                     96
                      A                      A                      A
 Frequencies --   3176.2129              3184.9529              3215.5316
 Red. masses --      1.0889                 1.0901                 1.0960
 Frc consts  --      6.4722                 6.5151                 6.6770
 IR Inten    --     14.0584                13.1108                19.5624

                     97                     98                     99
                      A                      A                      A
 Frequencies --   3254.9887              3561.2543              3657.9362
 Red. masses --      1.0919                 1.0756                 1.0801
 Frc consts  --      6.8162                 8.0370                 8.5150
 IR Inten    --      1.9308                44.5769                54.3271

 - Thermochemistry -
 -------------------
 Temperature   298.150 Kelvin.  Pressure   1.00000 Atm.
 Atom     1 has atomic number  6 and mass  12.00000

 Molecular mass:   273.12257 amu.
 Principal axes and moments of inertia in atomic units:
                           1         2         3
     Eigenvalues --  3740.715356235.906967814.65478
           X            0.99993  -0.00318  -0.01134
           Y            0.00309   0.99996  -0.00813
           Z            0.01136   0.00810   0.99990
 This molecule is an asymmetric top.
 Rotational symmetry number  1.
 Warning -- assumption of classical behavior for rotation
           may cause significant error
 Rotational temperatures (Kelvin)      0.02315     0.01389     0.01108
 Rotational constants (GHZ):           0.48246     0.28941     0.23094
 Zero-point vibrational energy     734761.2 (Joules/Mol)
                                  175.61213 (Kcal/Mol)
 Warning -- explicit consideration of  28 degrees of freedom as
           vibrations may cause significant error
 Vibrational temperatures:     17.64    56.66    64.60    88.00   114.04
          (Kelvin)            150.45   167.18   221.31   236.16   239.83
                              267.02   299.94   329.88   367.43   407.79
                              435.71   438.46   535.29   563.42   595.04
                              678.92   692.01   719.68   739.49   788.64
                              831.53   852.77   869.74   910.63   963.26
                             1000.83  1027.66  1039.75  1090.19  1123.05
                             1168.39  1179.32  1234.04  1242.16  1285.95
                             1364.37  1380.47  1388.85  1426.88  1432.28
                             1439.62  1451.75  1499.86  1507.96  1527.65
                             1544.44  1550.38  1584.23  1598.17  1664.62
                             1721.55  1725.70  1772.45  1785.05  1813.83
                             1822.15  1875.42  1891.80  1926.11  1944.96
                             1985.25  1988.32  2026.58  2042.00  2048.21
                             2082.37  2105.17  2124.31  2167.25  2168.29
                             2178.77  2188.56  2198.63  2330.71  2366.99
                             2424.38  2453.02  2550.19  2631.41  4376.55
                             4394.29  4419.18  4431.49  4445.71  4507.26
                             4519.13  4532.08  4533.65  4569.86  4582.44
                             4626.43  4683.20  5123.85  5262.95

 Zero-point correction=                           0.279856 (Hartree/Particle)
 Thermal correction to Energy=                    0.297961
 Thermal correction to Enthalpy=                  0.298906
 Thermal correction to Gibbs Free Energy=         0.231797
 Sum of electronic and zero-point Energies=           -928.353296
 Sum of electronic and thermal Energies=              -928.335191
 Sum of electronic and thermal Enthalpies=            -928.334246
 Sum of electronic and thermal Free Energies=         -928.401355

                     E (Thermal)             CV                S
                      KCal/Mol        Cal/Mol-Kelvin    Cal/Mol-Kelvin
 Total                  186.974             68.212            141.243
 Electronic               0.000              0.000              0.000
 Translational            0.889              2.981             42.713
 Rotational               0.889              2.981             33.566
 Vibrational            185.196             62.250             64.964
 Vibration     1          0.593              1.987              7.606
 Vibration     2          0.594              1.981              5.290
 Vibration     3          0.595              1.979              5.030
 Vibration     4          0.597              1.973              4.419
 Vibration     5          0.600              1.963              3.909
 Vibration     6          0.605              1.946              3.367
 Vibration     7          0.608              1.936              3.163
 Vibration     8          0.619              1.898              2.624
 Vibration     9          0.623              1.886              2.502
 Vibration    10          0.624              1.883              2.472
 Vibration    11          0.632              1.860              2.271
 Vibration    12          0.642              1.828              2.057
 Vibration    13          0.652              1.796              1.885
 Vibration    14          0.666              1.754              1.693
 Vibration    15          0.682              1.704              1.513
 Vibration    16          0.694              1.668              1.401
 Vibration    17          0.696              1.665              1.391
 Vibration    18          0.744              1.530              1.071
 Vibration    19          0.759              1.488              0.994
 Vibration    20          0.777              1.441              0.914
 Vibration    21          0.829              1.312              0.732
 Vibration    22          0.837              1.292              0.707
 Vibration    23          0.856              1.250              0.658
 Vibration    24          0.869              1.219              0.624
 Vibration    25          0.903              1.144              0.548
 Vibration    26          0.934              1.079              0.489
 Vibration    27          0.950              1.047              0.462
 Vibration    28          0.963              1.022              0.442

 Optimization completed.
    -- Stationary point found.
 Normal termination of Gaussian 16 at Sat Dec 12 17:15:18 2020.

 ----------------------------------------------------------------------
 # B3LYP/6-311++G(d,p) empiricaldispersion=gd3bj scf=xqc pop=npa geom=c
 heck
 ----------------------------------------------------------------------

 --------------------------------------
 CID_2868031_JID_10892_Energie_neutraal
 --------------------------------------
 Structure from the checkpoint file:  "JID_10892.chk"
 Charge =  0 Multiplicity = 1

 SCF Done:  E(RB3LYP) =  -928.890723498     A.U. after   17 cycles
 Normal termination of Gaussian 16 at Sat Dec 12 17:22:53 2020.

 ----------------------------------------------------------------------
 # B3LYP/6-311++G(d,p) empiricaldispersion=gd3bj scf=xqc pop=npa geom=c
 heck
 ----------------------------------------------------------------------

 ------------------------------------
 CID_2868031_JID_10892_Energie_kation
 ------------------------------------
 Structure from the checkpoint file:  "JID_10892.chk"
 Charge =  1 Multiplicity = 2

 SCF Done:  E(UB3LYP) =  -928.593497775     A.U. after   28 cycles
 Normal termination of Gaussian 16 at Sat Dec 12 17:39:50 2020.
 Gaussian 16:  ES64L-G16RevA.03 25-Dec-2016

 ----------------------------------------------------------------------
 # B3LYP/6-311++G(d,p) empiricaldispersion=gd3bj scf=xqc pop=npa geom=c
 heck
 ----------------------------------------------------------------------

 -----------------------------------
 CID_2868031_JID_10892_Energie_anion
 -----------------------------------
 Structure from the checkpoint file:  "JID_10892.chk"
 Charge = -1 Multiplicity = 2

                         Standard orientation:
 ---------------------------------------------------------------------
 Center     Atomic      Atomic             Coordinates (Angstroms)
 Number     Number       Type             X           Y           Z
 ---------------------------------------------------------------------
      1          6           0       -3.853998   -0.601277    1.940284
      2          6           0       -3.201141   -0.464049    0.605783
      3          7           0       -3.660185   -1.075998   -0.433456
      4          7           0       -2.858318   -0.713627   -1.511786
      5          6           0       -1.790757    0.091433   -1.190545
      6          8           0       -0.898063    0.441788   -1.940658
      7          6           0       -2.003619    0.404216    0.299721
      8          6           0       -0.747156    0.148784    1.160065
      9          6           0        0.160101    1.382045    1.367866
     10          6           0        0.357150    2.248376    0.136234
     11          8           0       -0.547332    2.960135   -0.278804
     12          7           0        1.583089    2.270941   -0.524975
     13          7           0        2.846707    2.055173    0.059065
     14          6           0        3.203066    0.854354    0.338997
     15          6           0        2.590080   -0.466041    0.106333
     16          6           0        1.727791   -0.762797   -0.966415
     17          7           0        1.244000   -1.987392   -1.200179
     18          6           0        1.588580   -2.970611   -0.359041
     19          6           0        2.437624   -2.790102    0.733632
     20          6           0        2.958454   -1.520595    0.954138
     21          1           0       -3.161148   -1.011016    2.686147
     22          1           0       -4.188706    0.374347    2.315600
     23          1           0       -4.718106   -1.265765    1.864386
     24          1           0       -2.971083   -1.203782   -2.386930
     25          1           0       -2.278672    1.465752    0.369474
     26          1           0       -1.055381   -0.190115    2.154968
     27          1           0       -0.176684   -0.669852    0.718016
     28          1           0       -0.325762    2.050468    2.086820
     29          1           0        1.106166    1.060378    1.806356
     30          1           0        1.620619    3.088088   -1.126633
     31          1           0        4.174431    0.816126    0.836912
     32          1           0        1.395062    0.015671   -1.641748
     33          1           0        1.166550   -3.951003   -0.572547
     34          1           0        2.690608   -3.623558    1.381333
     35          1           0        3.641162   -1.337214    1.780537
 ---------------------------------------------------------------------

 SCF Done:  E(UB3LYP) =  -928.910264353     A.U. after   30 cycles

 The electronic state is 2-A.
 Alpha  occ. eigenvalues --  -18.98924 -18.96595 -14.26801 -14.25555 -14.22114
 Alpha  occ. eigenvalues --  -14.17072 -14.15940 -10.17105 -10.14684 -10.12480
 Alpha  occ. eigenvalues --  -10.09771 -10.09171 -10.07945 -10.06703 -10.04824
 Alpha  occ. eigenvalues --  -10.04729 -10.04419 -10.03881 -10.03771 -10.02880
 Alpha  occ. eigenvalues --   -0.95656  -0.92050  -0.90912  -0.84093  -0.79158
 Alpha  occ. eigenvalues --   -0.74850  -0.70533  -0.69676  -0.65750  -0.64946
 Alpha  occ. eigenvalues --   -0.63326  -0.61558  -0.55422  -0.51290  -0.49551
 Alpha  occ. eigenvalues --   -0.48349  -0.47772  -0.46832  -0.42824  -0.41790
 Alpha  occ. eigenvalues --   -0.38976  -0.38110  -0.36876  -0.35382  -0.35188
 Alpha  occ. eigenvalues --   -0.34264  -0.33897  -0.33458  -0.32712  -0.32389
 Alpha  occ. eigenvalues --   -0.30397  -0.30151  -0.29486  -0.28679  -0.28065
 Alpha  occ. eigenvalues --   -0.26698  -0.26278  -0.25896  -0.25007  -0.24735
 Alpha  occ. eigenvalues --   -0.23903  -0.22619  -0.21466  -0.20521  -0.18691
 Alpha  occ. eigenvalues --   -0.15199  -0.14883  -0.14111  -0.13506  -0.12008
 Alpha  occ. eigenvalues --   -0.10953  -0.08522   0.03972
 Alpha virt. eigenvalues --    0.06257   0.06957   0.08582   0.08818   0.09410
 Alpha virt. eigenvalues --    0.10123   0.10412   0.10662   0.11277   0.11678
 Alpha virt. eigenvalues --    0.11883   0.12231   0.12876   0.13322   0.13786

  Beta  occ. eigenvalues --  -18.98923 -18.96585 -14.26805 -14.25538 -14.22120
  Beta  occ. eigenvalues --  -14.16496 -14.15999 -10.17088 -10.14639 -10.12462
  Beta  occ. eigenvalues --  -10.09772 -10.09175 -10.07943 -10.06699 -10.04606
  Beta  occ. eigenvalues --  -10.04578 -10.04032 -10.03945 -10.03561 -10.02725
  Beta  occ. eigenvalues --   -0.95639  -0.91986  -0.90899  -0.83547  -0.78908
  Beta  occ. eigenvalues --   -0.74835  -0.70508  -0.69190  -0.65419  -0.64886
  Beta  occ. eigenvalues --   -0.63298  -0.61049  -0.55371  -0.50615  -0.49475
  Beta  occ. eigenvalues --   -0.48066  -0.47753  -0.46513  -0.42633  -0.41740
  Beta  occ. eigenvalues --   -0.38798  -0.38030  -0.36823  -0.35134  -0.35061
  Beta  occ. eigenvalues --   -0.34218  -0.33590  -0.33378  -0.32686  -0.32349
  Beta  occ. eigenvalues --   -0.30302  -0.30023  -0.29411  -0.28577  -0.27827
  Beta  occ. eigenvalues --   -0.26564  -0.26034  -0.25686  -0.24631  -0.24500
  Beta  occ. eigenvalues --   -0.23612  -0.22409  -0.21380  -0.19449  -0.17601
  Beta  occ. eigenvalues --   -0.15125  -0.14341  -0.13713  -0.13173  -0.11118
  Beta  occ. eigenvalues --   -0.10501  -0.07562
  Beta virt. eigenvalues --    0.06276   0.07054   0.08526   0.08782   0.09370
  Beta virt. eigenvalues --    0.10015   0.10361   0.10534   0.11048   0.11273
  Beta virt. eigenvalues --    0.11684   0.11860   0.12222   0.12992   0.13397

 Mulliken charges and spin densities:
               1          2
     1  C   -0.570153  -0.032450
     2  C   -0.077890   0.020599
     3  N   -0.078630   0.008478
     4  N   -0.152754  -0.004582
     5  C   -0.305206   0.021617
     6  O   -0.228930   0.002064
     7  C    0.310425  -0.006154
     8  C   -0.190542  -0.000075
     9  C   -0.192055   0.009295
    10  C   -0.194480   0.011004
    11  O   -0.317143   0.003048
    12  N   -0.142391  -0.017018
    13  N   -0.114665   0.274584
    14  C   -0.670883   0.103534
    15  C    1.225790   0.052860
    16  C   -1.327046   0.148846
    17  N    0.092388  -0.055647
    18  C   -0.341000   0.320717
    19  C   -0.151007  -0.047125
    20  C   -0.303966   0.197614
    21  H    0.153621  -0.001502
    22  H    0.141112   0.012883
    23  H    0.152246   0.002466
    24  H    0.313096   0.000421
    25  H    0.253943   0.010969
    26  H    0.145783   0.001028
    27  H    0.173785  -0.016330
    28  H    0.180029  -0.000428
    29  H    0.211767  -0.008374
    30  H    0.300717   0.003677
    31  H    0.130640   0.003666
    32  H    0.224049  -0.007989
    33  H    0.112842  -0.022299
    34  H    0.118599   0.004464
    35  H    0.117911   0.006139
 Sum of Mulliken charges =  -1.00000   1.00000

 Dipole moment (field-independent basis, Debye):
    X=             -5.8202    Y=             -1.2925    Z=              4.2107  Tot=              7.2990
 Quadrupole moment (field-independent basis, Debye-Ang):
   XX=           -154.5497   YY=           -152.8677   ZZ=           -125.5141
   XY=             -0.4321   XZ=             -1.3528   YZ=             -1.4559

 Summary of Natural Population Analysis:

                                       Natural Population
                Natural  -----------------------------------------------
    Atom  No    Charge         Core      Valence    Rydberg      Total
 -----------------------------------------------------------------------
      C    1   -0.30470      0.99962     2.30073    0.00434     3.30470
      C    2    0.12648      0.99962     1.85699    0.01692     2.87352
      N    3   -0.14130      0.99965     2.62944    0.01221     3.64130
      N    4   -0.23125      0.99966     2.72050    0.01109     3.73125
      C    5    0.34534      0.99967     1.63123    0.02376     2.65466
      O    6   -0.29305      0.99987     3.28580    0.00738     4.29305
      C    7   -0.19077      0.99951     2.17891    0.01235     3.19077
      C    8   -0.18100      0.99960     2.17416    0.00724     3.18100
      C    9   -0.22996      0.99958     2.22342    0.00696     3.22996
      C   10    0.34312      0.99967     1.63365    0.02357     2.65688
      O   11   -0.33600      0.99987     3.32949    0.00664     4.33600
      N   12   -0.23795      0.99965     2.72156    0.01674     3.73795
      N   13   -0.08531      0.99967     2.57198    0.01366     3.58531
      C   14    0.07382      0.99962     1.91014    0.01643     2.92618
      C   15   -0.06720      0.99948     2.05591    0.01181     3.06720
      C   16    0.06103      0.99954     1.92611    0.01332     2.93897
      N   17   -0.25843      0.99972     2.74525    0.01347     3.75843
      C   18    0.08864      0.99960     1.89732    0.01444     2.91136
      C   19   -0.15396      0.99956     2.14581    0.00858     3.15396
      C   20   -0.03818      0.99954     2.03058    0.00806     3.03818
      H   21    0.10526      0.00000     0.39364    0.00110     0.39474
      H   22    0.10366      0.00000     0.39535    0.00100     0.39634
      H   23    0.10885      0.00000     0.39010    0.00105     0.39115
      H   24    0.19608      0.00000     0.30177    0.00216     0.30392
      H   25    0.13956      0.00000     0.35915    0.00128     0.36044
      H   26    0.09396      0.00000     0.40485    0.00119     0.40604
      H   27    0.11841      0.00000     0.37956    0.00203     0.38159
      H   28    0.10087      0.00000     0.39803    0.00110     0.39913
      H   29    0.11827      0.00000     0.38074    0.00098     0.38173
      H   30    0.18748      0.00000     0.31073    0.00179     0.31252
      H   31    0.07900      0.00000     0.41946    0.00154     0.42100
      H   32    0.10394      0.00000     0.39456    0.00150     0.39606
      H   33    0.07447      0.00000     0.42423    0.00131     0.42553
      H   34    0.09234      0.00000     0.40641    0.00125     0.40766
      H   35    0.08849      0.00000     0.40992    0.00158     0.41151
 =======================================================================
   * Total *   -0.00000     19.99270    51.73748    0.26982    72.00000

 Normal termination of Gaussian 16 at Sat Dec 12 17:57:47 2020.
