 Gaussian 16, Revision A.03,

 -----------------------------------------------------------
 # opt freq B3LYP/6-31G(d) empiricaldispersion=gd3bj scf=xqc
 -----------------------------------------------------------

 ------------------------------
 CID_64482139_JID_7301_neutraal
 ------------------------------
 Symbolic Z-matrix:
 Charge =  0 Multiplicity = 1

 SCF Done:  E(RB3LYP) =  -1107.67267842     A.U. after   15 cycles
 SCF Done:  E(RB3LYP) =  -1107.67658071     A.U. after   13 cycles
 SCF Done:  E(RB3LYP) =  -1107.67690016     A.U. after   13 cycles
 SCF Done:  E(RB3LYP) =  -1107.67714774     A.U. after   12 cycles
 SCF Done:  E(RB3LYP) =  -1107.67848616     A.U. after   12 cycles
 SCF Done:  E(RB3LYP) =  -1107.67882440     A.U. after   13 cycles
 SCF Done:  E(RB3LYP) =  -1107.67902532     A.U. after   12 cycles
 SCF Done:  E(RB3LYP) =  -1107.67924715     A.U. after   12 cycles
 SCF Done:  E(RB3LYP) =  -1107.67947269     A.U. after   12 cycles
 SCF Done:  E(RB3LYP) =  -1107.67959010     A.U. after   12 cycles
 SCF Done:  E(RB3LYP) =  -1107.68105146     A.U. after    9 cycles
 SCF Done:  E(RB3LYP) =  -1107.68105203     A.U. after    9 cycles
 SCF Done:  E(RB3LYP) =  -1107.68105222     A.U. after    8 cycles
 SCF Done:  E(RB3LYP) =  -1107.68105242     A.U. after    9 cycles
 SCF Done:  E(RB3LYP) =  -1107.68105242     A.U. after    7 cycles
 Optimization completed.
    -- Stationary point found.
 Normal termination of Gaussian 16 at Mon Dec 14 17:18:16 2020.

 --------------------------------------------------------------------
 #N Geom=AllCheck Guess=TCheck SCRF=Check GenChk RB3LYP/6-31G(d) Freq
 --------------------------------------------------------------------

 Structure from the checkpoint file:  "JID_7301.chk"
 ------------------------------
 CID_64482139_JID_7301_neutraal
 ------------------------------
 Charge =  0 Multiplicity = 1

 SCF Done:  E(RB3LYP) =  -1107.68105242     A.U. after    1 cycles

  Exact polarizability: 191.292   3.188 170.162  -2.139   4.181 124.571
 Approx polarizability: 259.228  18.131 267.258  -1.926  10.350 199.751

                      1                      2                      3
                      A                      A                      A
 Frequencies --     10.5830                22.9567                42.5550
 Red. masses --      5.5949                 4.2926                 6.0952
 Frc consts  --      0.0004                 0.0013                 0.0065
 IR Inten    --      0.2130                 0.1756                 1.5053

                      4                      5                      6
                      A                      A                      A
 Frequencies --     44.5791                62.4671                81.8157
 Red. masses --      3.3320                 3.8870                 2.9801
 Frc consts  --      0.0039                 0.0089                 0.0118
 IR Inten    --      0.0828                 0.1780                 0.1742

                      7                      8                      9
                      A                      A                      A
 Frequencies --    131.5405               149.4494               154.1695
 Red. masses --      1.1227                 3.7004                 3.6711
 Frc consts  --      0.0114                 0.0487                 0.0514
 IR Inten    --      0.0591                 1.4051                 0.2158

                     10                     11                     12
                      A                      A                      A
 Frequencies --    159.5357               173.7906               176.4754
 Red. masses --      3.6548                 4.2966                 1.5593
 Frc consts  --      0.0548                 0.0765                 0.0286
 IR Inten    --      1.4535                 1.1656                 0.0462

                     13                     14                     15
                      A                      A                      A
 Frequencies --    241.1866               254.0219               265.7644
 Red. masses --      3.5819                 1.4109                 1.4740
 Frc consts  --      0.1228                 0.0536                 0.0613
 IR Inten    --      1.6942                 0.6311                 1.6086

                     16                     17                     18
                      A                      A                      A
 Frequencies --    278.9463               286.0785               301.9616
 Red. masses --      2.5548                 2.1087                 2.4766
 Frc consts  --      0.1171                 0.1017                 0.1330
 IR Inten    --      3.0996                 0.5280                 4.6132

                     19                     20                     21
                      A                      A                      A
 Frequencies --    319.3538               341.2338               374.7563
 Red. masses --      2.8279                 4.7967                 2.5309
 Frc consts  --      0.1699                 0.3291                 0.2094
 IR Inten    --      4.6720                 1.4598                 4.0088

                     22                     23                     24
                      A                      A                      A
 Frequencies --    395.2860               420.6034               468.5924
 Red. masses --      2.0004                 1.4002                 3.3036
 Frc consts  --      0.1842                 0.1459                 0.4274
 IR Inten    --     11.2077                22.2004                11.5811

                     25                     26                     27
                      A                      A                      A
 Frequencies --    497.3798               524.4897               562.1364
 Red. masses --      4.2243                 2.8469                 6.4645
 Frc consts  --      0.6157                 0.4614                 1.2036
 IR Inten    --     13.1502                 2.3253                 7.3066

                     28                     29                     30
                      A                      A                      A
 Frequencies --    564.4543               624.6542               638.1364
 Red. masses --      4.2398                 3.0316                 3.2596
 Frc consts  --      0.7959                 0.6970                 0.7821
 IR Inten    --     15.1827                 8.3309                11.5821

                     31                     32                     33
                      A                      A                      A
 Frequencies --    673.4145               699.3336               712.5906
 Red. masses --      1.9639                 4.2052                 3.7116
 Frc consts  --      0.5247                 1.2117                 1.1104
 IR Inten    --     37.0245                 1.5271                52.6655

                     34                     35                     36
                      A                      A                      A
 Frequencies --    725.6956               751.1913               777.5845
 Red. masses --      1.5598                 1.2959                 2.2548
 Frc consts  --      0.4840                 0.4309                 0.8033
 IR Inten    --     12.4639                24.5814                51.5161

                     37                     38                     39
                      A                      A                      A
 Frequencies --    799.5836               830.6571               862.9311
 Red. masses --      2.3424                 2.7152                 4.0587
 Frc consts  --      0.8823                 1.1038                 1.7807
 IR Inten    --      3.9768                 0.8103                 6.1261

                     40                     41                     42
                      A                      A                      A
 Frequencies --    872.9545               948.0866               960.5556
 Red. masses --      1.4915                 1.7612                 1.9256
 Frc consts  --      0.6697                 0.9328                 1.0468
 IR Inten    --      3.3035                 0.9448                30.9603

                     43                     44                     45
                      A                      A                      A
 Frequencies --    967.2175               987.2187              1006.0114
 Red. masses --      1.7360                 3.5816                 1.8425
 Frc consts  --      0.9569                 2.0566                 1.0986
 IR Inten    --     52.4934                 6.9383                66.0655

                     46                     47                     48
                      A                      A                      A
 Frequencies --   1017.0811              1023.2122              1036.3628
 Red. masses --      1.6106                 1.8007                 1.5824
 Frc consts  --      0.9816                 1.1108                 1.0014
 IR Inten    --     26.1138                 1.7644                21.8477

                     49                     50                     51
                      A                      A                      A
 Frequencies --   1079.5666              1092.7387              1110.0023
 Red. masses --      1.5080                 2.1765                 1.4700
 Frc consts  --      1.0355                 1.5313                 1.0671
 IR Inten    --      2.7312                 1.6615                 6.6404

                     52                     53                     54
                      A                      A                      A
 Frequencies --   1121.4251              1141.9933              1156.6306
 Red. masses --      2.5338                 1.8124                 2.2718
 Frc consts  --      1.8774                 1.3926                 1.7907
 IR Inten    --      4.8556                20.2974                66.9958

                     55                     56                     57
                      A                      A                      A
 Frequencies --   1166.7281              1182.7313              1210.1927
 Red. masses --      2.2920                 1.8877                 1.3645
 Frc consts  --      1.8382                 1.5558                 1.1774
 IR Inten    --     18.3451                12.7621                 1.6286

                     58                     59                     60
                      A                      A                      A
 Frequencies --   1227.3094              1247.7800              1287.2278
 Red. masses --      3.0901                 1.4417                 1.6469
 Frc consts  --      2.7424                 1.3225                 1.6078
 IR Inten    --     16.0387                22.5425                89.8739

                     61                     62                     63
                      A                      A                      A
 Frequencies --   1304.7343              1330.2354              1336.7404
 Red. masses --      1.4508                 1.5770                 1.1362
 Frc consts  --      1.4551                 1.6441                 1.1962
 IR Inten    --     50.7303                 6.3963                 9.5089

                     64                     65                     66
                      A                      A                      A
 Frequencies --   1341.7881              1359.3745              1377.8178
 Red. masses --      1.3800                 3.0588                 1.4937
 Frc consts  --      1.4639                 3.3303                 1.6707
 IR Inten    --     25.7863                35.7040                14.3656

                     67                     68                     69
                      A                      A                      A
 Frequencies --   1400.4937              1406.8048              1419.2416
 Red. masses --      1.5235                 1.4166                 1.4993
 Frc consts  --      1.7606                 1.6518                 1.7793
 IR Inten    --     12.7486                 2.1670                 6.6526

                     70                     71                     72
                      A                      A                      A
 Frequencies --   1439.9622              1442.9043              1443.7665
 Red. masses --      1.2858                 1.2719                 1.2673
 Frc consts  --      1.5708                 1.5602                 1.5564
 IR Inten    --      6.3491                 4.3489                10.1263

                     73                     74                     75
                      A                      A                      A
 Frequencies --   1447.6031              1483.2076              1506.4872
 Red. masses --      1.3473                 1.4997                 1.0441
 Frc consts  --      1.6635                 1.9438                 1.3961
 IR Inten    --     17.8326                40.2299                 7.7164

                     76                     77                     78
                      A                      A                      A
 Frequencies --   1509.2357              1511.0646              1523.5243
 Red. masses --      1.0794                 1.2424                 1.0798
 Frc consts  --      1.4486                 1.6714                 1.4767
 IR Inten    --      7.0122                 9.8521                11.3087

                     79                     80                     81
                      A                      A                      A
 Frequencies --   1523.6187              1525.7315              1530.0834
 Red. masses --      1.0692                 1.0558                 1.2626
 Frc consts  --      1.4624                 1.4480                 1.7415
 IR Inten    --      6.8611                 0.4742                 5.4560

                     82                     83                     84
                      A                      A                      A
 Frequencies --   1533.9823              1534.6242              1542.3346
 Red. masses --      1.7285                 1.4088                 1.0765
 Frc consts  --      2.3963                 1.9547                 1.5088
 IR Inten    --     12.6268                13.1624                 1.5434

                     85                     86                     87
                      A                      A                      A
 Frequencies --   1594.2899              1705.2303              1772.8936
 Red. masses --      4.8571                 1.0845                 7.8482
 Frc consts  --      7.2738                 1.8581                14.5340
 IR Inten    --     29.7572                16.2142               258.8211

                     88                     89                     90
                      A                      A                      A
 Frequencies --   3034.4173              3035.7606              3044.8017
 Red. masses --      1.0625                 1.0642                 1.0367
 Frc consts  --      5.7639                 5.7782                 5.6625
 IR Inten    --     24.6741                21.6918                22.0847

                     91                     92                     93
                      A                      A                      A
 Frequencies --   3055.6690              3057.9113              3062.9502
 Red. masses --      1.0369                 1.0396                 1.0957
 Frc consts  --      5.7042                 5.7275                 6.0564
 IR Inten    --     17.6730                10.2831                43.1469

                     94                     95                     96
                      A                      A                      A
 Frequencies --   3064.8060              3076.5083              3098.8454
 Red. masses --      1.0652                 1.0976                 1.0888
 Frc consts  --      5.8949                 6.1206                 6.1604
 IR Inten    --      7.5154                51.8304                19.0608

                     97                     98                     99
                      A                      A                      A
 Frequencies --   3109.0393              3109.5622              3112.2080
 Red. masses --      1.1020                 1.0984                 1.1013
 Frc consts  --      6.2761                 6.2574                 6.2846
 IR Inten    --     51.4671                45.3400                12.0563

                    100                    101                    102
                      A                      A                      A
 Frequencies --   3115.5728              3121.4404              3134.0212
 Red. masses --      1.0985                 1.0921                 1.0919
 Frc consts  --      6.2823                 6.2695                 6.3190
 IR Inten    --     35.7986                12.2422                34.7449

                    103                    104                    105
                      A                      A                      A
 Frequencies --   3143.8093              3152.1226              3277.5840
 Red. masses --      1.1019                 1.1035                 1.0948
 Frc consts  --      6.4164                 6.4601                 6.9295
 IR Inten    --     15.3681                16.4311                 1.2853

                    106                    107                    108
                      A                      A                      A
 Frequencies --   3442.6278              3529.8090              3534.6996
 Red. masses --      1.0494                 1.0918                 1.0748
 Frc consts  --      7.3276                 8.0148                 7.9120
 IR Inten    --     24.9508                22.2769                 7.1945

 - Thermochemistry -
 -------------------
 Temperature   298.150 Kelvin.  Pressure   1.00000 Atm.
 Atom     1 has atomic number  6 and mass  12.00000

 Molecular mass:   255.14053 amu.
 Principal axes and moments of inertia in atomic units:
                           1         2         3
     Eigenvalues --  2740.045737273.394938276.46048
           X            0.99970  -0.02238   0.01019
           Y            0.02228   0.99971   0.00896
           Z           -0.01039  -0.00874   0.99991
 This molecule is an asymmetric top.
 Rotational symmetry number  1.
 Warning -- assumption of classical behavior for rotation
           may cause significant error
 Rotational temperatures (Kelvin)      0.03161     0.01191     0.01047
 Rotational constants (GHZ):           0.65865     0.24813     0.21806
 Zero-point vibrational energy     863745.1 (Joules/Mol)
                                  206.44003 (Kcal/Mol)
 Warning -- explicit consideration of  28 degrees of freedom as
           vibrations may cause significant error
 Vibrational temperatures:     15.23    33.03    61.23    64.14    89.88
          (Kelvin)            117.71   189.26   215.02   221.82   229.54
                              250.05   253.91   347.01   365.48   382.38
                              401.34   411.60   434.46   459.48   490.96
                              539.19   568.73   605.15   674.20   715.62
                              754.62   808.79   812.12   898.74   918.14
                              968.89  1006.19  1025.26  1044.11  1080.80
                             1118.77  1150.42  1195.13  1241.57  1255.99
                             1364.09  1382.03  1391.61  1420.39  1447.43
                             1463.35  1472.17  1491.09  1553.26  1572.21
                             1597.05  1613.48  1643.07  1664.13  1678.66
                             1701.69  1741.20  1765.82  1795.28  1852.03
                             1877.22  1913.91  1923.27  1930.53  1955.84
                             1982.37  2015.00  2024.08  2041.97  2071.78
                             2076.02  2077.26  2082.78  2134.00  2167.50
                             2171.45  2174.08  2192.01  2192.15  2195.19
                             2201.45  2207.06  2207.98  2219.08  2293.83
                             2453.45  2550.80  4365.85  4367.78  4380.79
                             4396.43  4399.65  4406.90  4409.57  4426.41
                             4458.55  4473.21  4473.97  4477.77  4482.61
                             4491.06  4509.16  4523.24  4535.20  4715.71
                             4953.17  5078.61  5085.64

 Zero-point correction=                           0.328983 (Hartree/Particle)
 Thermal correction to Energy=                    0.348069
 Thermal correction to Enthalpy=                  0.349013
 Thermal correction to Gibbs Free Energy=         0.279087
 Sum of electronic and zero-point Energies=          -1107.352069
 Sum of electronic and thermal Energies=             -1107.332983
 Sum of electronic and thermal Enthalpies=           -1107.332039
 Sum of electronic and thermal Free Energies=        -1107.401966

                     E (Thermal)             CV                S
                      KCal/Mol        Cal/Mol-Kelvin    Cal/Mol-Kelvin
 Total                  218.417             70.370            147.173
 Electronic               0.000              0.000              0.000
 Translational            0.889              2.981             42.510
 Rotational               0.889              2.981             33.467
 Vibrational            216.639             64.408             71.196
 Vibration     1          0.593              1.987              7.898
 Vibration     2          0.593              1.985              6.360
 Vibration     3          0.595              1.980              5.136
 Vibration     4          0.595              1.980              5.044
 Vibration     5          0.597              1.972              4.378
 Vibration     6          0.600              1.962              3.847
 Vibration     7          0.612              1.922              2.923
 Vibration     8          0.618              1.903              2.679
 Vibration     9          0.620              1.898              2.620
 Vibration    10          0.621              1.892              2.555
 Vibration    11          0.627              1.875              2.394
 Vibration    12          0.628              1.871              2.365
 Vibration    13          0.658              1.777              1.794
 Vibration    14          0.665              1.756              1.703
 Vibration    15          0.672              1.736              1.624
 Vibration    16          0.679              1.712              1.540
 Vibration    17          0.684              1.700              1.497
 Vibration    18          0.694              1.670              1.406
 Vibration    19          0.705              1.637              1.313
 Vibration    20          0.721              1.593              1.206
 Vibration    21          0.746              1.524              1.060
 Vibration    22          0.762              1.480              0.980
 Vibration    23          0.783              1.425              0.890
 Vibration    24          0.826              1.320              0.742
 Vibration    25          0.853              1.256              0.665
 Vibration    26          0.879              1.196              0.600
 Vibration    27          0.918              1.113              0.520
 Vibration    28          0.920              1.108              0.515

 Optimization completed.
    -- Stationary point found.
 Normal termination of Gaussian 16 at Mon Dec 14 17:33:59 2020.

 ----------------------------------------------------------------------
 # B3LYP/6-311++G(d,p) empiricaldispersion=gd3bj scf=xqc pop=npa geom=c
 heck
 ----------------------------------------------------------------------

 --------------------------------------
 CID_64482139_JID_7301_Energie_neutraal
 --------------------------------------
 Structure from the checkpoint file:  "JID_7301.chk"
 Charge =  0 Multiplicity = 1

 SCF Done:  E(RB3LYP) =  -1107.91506055     A.U. after   15 cycles
 Normal termination of Gaussian 16 at Mon Dec 14 17:42:58 2020.

 ----------------------------------------------------------------------
 # B3LYP/6-311++G(d,p) empiricaldispersion=gd3bj scf=xqc pop=npa geom=c
 heck
 ----------------------------------------------------------------------

 ------------------------------------
 CID_64482139_JID_7301_Energie_kation
 ------------------------------------
 Structure from the checkpoint file:  "JID_7301.chk"
 Charge =  1 Multiplicity = 2

 SCF Done:  E(UB3LYP) =  -1107.61375275     A.U. after   29 cycles
 Normal termination of Gaussian 16 at Mon Dec 14 18:04:26 2020.
 Gaussian 16:  ES64L-G16RevA.03 25-Dec-2016

 ----------------------------------------------------------------------
 # B3LYP/6-311++G(d,p) empiricaldispersion=gd3bj scf=xqc pop=npa geom=c
 heck
 ----------------------------------------------------------------------

 -----------------------------------
 CID_64482139_JID_7301_Energie_anion
 -----------------------------------
 Structure from the checkpoint file:  "JID_7301.chk"
 Charge = -1 Multiplicity = 2

                         Standard orientation:
 ---------------------------------------------------------------------
 Center     Atomic      Atomic             Coordinates (Angstroms)
 Number     Number       Type             X           Y           Z
 ---------------------------------------------------------------------
      1          6           0       -4.014259    0.605126   -2.097505
      2          6           0       -3.687176    1.072708   -0.676526
      3          6           0       -3.878909   -0.008068    0.399152
      4          6           0       -3.071759   -1.297494    0.189279
      5          6           0       -1.559515   -1.088134    0.036706
      6          6           0       -1.019222   -0.373407    1.282217
      7          8           0       -1.196431   -0.851421    2.397532
      8          7           0       -0.361611    0.834366    1.150071
      9          6           0        0.341169    1.334113   -0.030371
     10          6           0        0.452033    2.856534    0.045980
     11          6           0        1.677144    0.632151   -0.194870
     12          7           0        1.780997   -0.628499   -0.505397
     13          6           0        3.094530   -1.058855   -0.524812
     14          6           0        4.010136   -0.091110   -0.217370
     15         16           0        3.219488    1.417301    0.108730
     16          6           0        3.389694   -2.487923   -0.863488
     17          7           0       -0.890836   -2.380301   -0.152692
     18          1           0       -3.342143   -0.195362   -2.426261
     19          1           0       -3.927073    1.427618   -2.816524
     20          1           0       -5.038785    0.217616   -2.155902
     21          1           0       -2.655705    1.449014   -0.641149
     22          1           0       -4.322689    1.931330   -0.422876
     23          1           0       -3.624831    0.416287    1.378759
     24          1           0       -4.943700   -0.273535    0.448502
     25          1           0       -3.233529   -1.958190    1.048699
     26          1           0       -3.412676   -1.837931   -0.700058
     27          1           0       -1.372535   -0.503441   -0.866491
     28          1           0        0.025460    1.140514    2.039176
     29          1           0       -0.255960    1.074312   -0.906630
     30          1           0        1.022913    3.169813    0.928345
     31          1           0        0.948974    3.257826   -0.842096
     32          1           0       -0.547956    3.291387    0.118997
     33          1           0        5.086417   -0.179807   -0.172358
     34          1           0        2.913379   -3.162001   -0.142186
     35          1           0        2.995478   -2.739847   -1.854305
     36          1           0        4.465641   -2.681364   -0.857709
     37          1           0        0.092327   -2.189410   -0.352984
     38          1           0       -0.916409   -2.873100    0.740889
 ---------------------------------------------------------------------

 SCF Done:  E(UB3LYP) =  -1107.91055937     A.U. after   33 cycles
 SCF Done:  E(UB3LYP) =  -1107.91055937     a.u. after    1 cycles

 The electronic state is 2-A.
 Alpha  occ. eigenvalues --  -88.74877 -18.97779 -14.22469 -14.17825 -14.17819
 Alpha  occ. eigenvalues --  -10.15627 -10.11600 -10.09319 -10.09029 -10.08894
 Alpha  occ. eigenvalues --  -10.07107 -10.06847 -10.06775 -10.06263 -10.06223
 Alpha  occ. eigenvalues --  -10.05899 -10.05755  -7.83540  -5.79819  -5.79469
 Alpha  occ. eigenvalues --   -5.79164  -0.92960  -0.84072  -0.81069  -0.77663
 Alpha  occ. eigenvalues --   -0.69701  -0.67875  -0.67004  -0.64778  -0.63387
 Alpha  occ. eigenvalues --   -0.57475  -0.57140  -0.53569  -0.53202  -0.47868
 Alpha  occ. eigenvalues --   -0.45989  -0.43765  -0.43080  -0.41145  -0.38312
 Alpha  occ. eigenvalues --   -0.37146  -0.36827  -0.35088  -0.34729  -0.32875
 Alpha  occ. eigenvalues --   -0.32572  -0.32460  -0.31809  -0.30575  -0.30365
 Alpha  occ. eigenvalues --   -0.29827  -0.29013  -0.28392  -0.27918  -0.27150
 Alpha  occ. eigenvalues --   -0.26745  -0.26122  -0.25134  -0.24487  -0.23580
 Alpha  occ. eigenvalues --   -0.22388  -0.22176  -0.21395  -0.16857  -0.16557
 Alpha  occ. eigenvalues --   -0.16012  -0.14620  -0.12709  -0.12224   0.04652
 Alpha virt. eigenvalues --    0.06499   0.07260   0.07766   0.08544   0.09141
 Alpha virt. eigenvalues --    0.09275   0.10295   0.10512   0.10836   0.11147
 Alpha virt. eigenvalues --    0.11351   0.11405   0.12303   0.12760   0.13154

  Beta  occ. eigenvalues --  -88.74831 -18.97733 -14.22425 -14.17809 -14.17702
  Beta  occ. eigenvalues --  -10.15589 -10.11622 -10.09312 -10.08922 -10.08576
  Beta  occ. eigenvalues --  -10.07105 -10.06832 -10.06579 -10.06243 -10.06216
  Beta  occ. eigenvalues --  -10.05897 -10.05730  -7.83498  -5.79804  -5.79454
  Beta  occ. eigenvalues --   -5.79001  -0.92874  -0.83719  -0.80950  -0.77637
  Beta  occ. eigenvalues --   -0.69677  -0.67648  -0.66701  -0.64734  -0.63358
  Beta  occ. eigenvalues --   -0.57425  -0.56865  -0.53426  -0.53126  -0.47761
  Beta  occ. eigenvalues --   -0.45683  -0.43683  -0.42807  -0.41078  -0.38135
  Beta  occ. eigenvalues --   -0.36980  -0.36798  -0.35060  -0.34677  -0.32725
  Beta  occ. eigenvalues --   -0.32477  -0.32391  -0.31741  -0.30481  -0.30245
  Beta  occ. eigenvalues --   -0.29792  -0.28885  -0.28285  -0.27845  -0.26727
  Beta  occ. eigenvalues --   -0.26642  -0.25782  -0.24969  -0.24373  -0.23361
  Beta  occ. eigenvalues --   -0.22364  -0.22153  -0.21361  -0.16575  -0.16372
  Beta  occ. eigenvalues --   -0.15186  -0.14401  -0.12657  -0.10990
  Beta virt. eigenvalues --    0.06926   0.07206   0.07957   0.08750   0.09132
  Beta virt. eigenvalues --    0.09376   0.09585   0.10428   0.10516   0.10898
  Beta virt. eigenvalues --    0.11301   0.11513   0.11694   0.12445   0.12879

 Mulliken charges and spin densities:
               1          2
     1  C    0.479328  -1.146817
     2  C   -0.567224   0.483612
     3  C   -0.167622  -0.176186
     4  C   -0.204510  -0.128110
     5  C   -0.311110   0.048656
     6  C   -0.191491  -0.157779
     7  O   -0.325508   0.020997
     8  N    0.147594  -0.026384
     9  C   -0.237819   0.663622
    10  C    0.335406  -1.037048
    11  C   -0.326868   0.203027
    12  N    0.192851   0.065372
    13  C   -0.481254  -0.217834
    14  C    0.290687   0.334930
    15  S   -0.578760   0.053983
    16  C   -0.558678  -0.090230
    17  N   -0.173599   0.016954
    18  H   -0.040033   0.179452
    19  H   -0.376124   0.516476
    20  H    0.022690   0.103537
    21  H    0.478298  -0.273883
    22  H   -0.392962   0.542595
    23  H    0.187317  -0.023348
    24  H    0.030082   0.130947
    25  H    0.189921  -0.017873
    26  H    0.148763   0.031016
    27  H    0.337556  -0.013435
    28  H    0.263374   0.007082
    29  H   -0.155728   0.277278
    30  H    0.124837   0.010551
    31  H   -0.130455   0.304919
    32  H   -0.136150   0.283219
    33  H    0.170829   0.030855
    34  H    0.145073  -0.002347
    35  H    0.143304   0.009839
    36  H    0.122171   0.002617
    37  H    0.310738  -0.011901
    38  H    0.235075   0.001639
 Sum of Mulliken charges =  -1.00000   1.00000

 Dipole moment (field-independent basis, Debye):
    X=              3.1817    Y=             -1.9705    Z=              1.7806  Tot=              4.1444
 Quadrupole moment (field-independent basis, Debye-Ang):
   XX=           -169.1741   YY=           -146.8488   ZZ=           -146.4261
   XY=              2.4104   XZ=             -6.0678   YZ=              9.8915

 Summary of Natural Population Analysis:

                                       Natural Population
                Natural  -----------------------------------------------
    Atom  No    Charge         Core      Valence    Rydberg      Total
 -----------------------------------------------------------------------
      C    1   -0.28793      0.99967     2.28280    0.00546     3.28793
      C    2   -0.19477      0.99964     2.18664    0.00849     3.19477
      C    3   -0.19142      0.99963     2.18316    0.00863     3.19142
      C    4   -0.19079      0.99962     2.18193    0.00925     3.19079
      C    5   -0.05559      0.99955     2.04230    0.01373     3.05559
      C    6    0.35161      0.99965     1.62448    0.02426     2.64839
      O    7   -0.33207      0.99988     3.32586    0.00633     4.33207
      N    8   -0.31403      0.99966     2.80367    0.01069     3.81403
      C    9   -0.03857      0.99953     2.02514    0.01390     3.03857
      C   10   -0.28727      0.99965     2.28141    0.00621     3.28727
      C   11    0.11083      0.99958     1.87150    0.01809     2.88917
      N   12   -0.25658      0.99961     2.74557    0.01139     3.75658
      C   13    0.05378      0.99950     1.93405    0.01267     2.94622
      C   14   -0.18657      0.99946     2.17691    0.01020     3.18657
      S   15    0.18436      4.99943     2.79592    0.02030     7.81564
      C   16   -0.29126      0.99963     2.28712    0.00451     3.29126
      N   17   -0.42061      0.99977     2.91206    0.00878     3.92061
      H   18    0.09696      0.00000     0.40202    0.00102     0.40304
      H   19    0.10074      0.00000     0.39814    0.00112     0.39926
      H   20    0.09274      0.00000     0.40637    0.00089     0.40726
      H   21    0.09597      0.00000     0.40216    0.00186     0.40403
      H   22    0.09478      0.00000     0.40405    0.00116     0.40522
      H   23    0.10080      0.00000     0.39823    0.00097     0.39920
      H   24    0.09292      0.00000     0.40621    0.00087     0.40708
      H   25    0.10232      0.00000     0.39649    0.00119     0.39768
      H   26    0.09984      0.00000     0.39886    0.00131     0.40016
      H   27    0.09754      0.00000     0.39984    0.00262     0.40246
      H   28    0.18680      0.00000     0.31056    0.00263     0.31320
      H   29    0.11018      0.00000     0.38690    0.00291     0.38982
      H   30    0.09702      0.00000     0.40183    0.00114     0.40298
      H   31    0.10732      0.00000     0.39159    0.00109     0.39268
      H   32    0.10426      0.00000     0.39472    0.00103     0.39574
      H   33    0.10203      0.00000     0.39687    0.00110     0.39797
      H   34    0.10145      0.00000     0.39735    0.00120     0.39855
      H   35    0.10247      0.00000     0.39640    0.00113     0.39753
      H   36    0.09700      0.00000     0.40223    0.00077     0.40300
      H   37    0.19194      0.00000     0.30589    0.00217     0.30806
      H   38    0.17181      0.00000     0.32623    0.00196     0.32819
 =======================================================================
   * Total *    0.00000     20.99344    47.78348    0.22308    69.00000

 Normal termination of Gaussian 16 at Mon Dec 14 18:28:37 2020.
