 Gaussian 16, Revision A.03,

 -----------------------------------------------------------
 # opt freq B3LYP/6-31G(d) empiricaldispersion=gd3bj scf=xqc
 -----------------------------------------------------------

 -------------------------------
 CID_137296128_JID_1601_neutraal
 -------------------------------
 Symbolic Z-matrix:
 Charge =  0 Multiplicity = 1

 SCF Done:  E(RB3LYP) =  -478.165412845     A.U. after   14 cycles
 SCF Done:  E(RB3LYP) =  -478.171307358     A.U. after   12 cycles
 SCF Done:  E(RB3LYP) =  -478.171947551     A.U. after   11 cycles
 SCF Done:  E(RB3LYP) =  -478.171986134     A.U. after   10 cycles
 SCF Done:  E(RB3LYP) =  -478.171992331     A.U. after   10 cycles
 SCF Done:  E(RB3LYP) =  -478.171996875     A.U. after    9 cycles
 SCF Done:  E(RB3LYP) =  -478.171997952     A.U. after    9 cycles
 SCF Done:  E(RB3LYP) =  -478.171998547     A.U. after    9 cycles
 SCF Done:  E(RB3LYP) =  -478.171998805     A.U. after    8 cycles
 SCF Done:  E(RB3LYP) =  -478.171999121     A.U. after    8 cycles
 SCF Done:  E(RB3LYP) =  -478.171999388     A.U. after    7 cycles
 SCF Done:  E(RB3LYP) =  -478.171999579     A.U. after    7 cycles
 SCF Done:  E(RB3LYP) =  -478.171999700     A.U. after    7 cycles
 Optimization completed.
    -- Stationary point found.

 1\1\GINC-NODE316\FOpt\RB3LYP\6-31G(d)\C8H15N3\VSC10255\08-Dec-2020\0\\
 # opt freq B3LYP/6-31G(d) empiricaldispersion=gd3bj scf=xqc\\CID_13729
 6128_JID_1601_neutraal\\0,1\C,0.9887636666,-0.0846460505,-0.0084617987
 \C,0.198573254,-1.237442116,0.6295769574\C,0.8907386315,-1.6892799242,
 1.9246403251\C,-1.2331339228,-0.7761661241,0.9438899755\C,0.1556157043
 ,-2.4452191628,-0.3387550794\N,-0.4350921758,-2.1030146105,-1.62103354
 75\C,-1.5219404753,-2.6660949624,-1.9582010981\C,-2.4381099113,-3.7143
 345573,-1.3066147339\N,-3.5489997536,-3.9432701236,-2.2467530052\C,-3.

 Normal termination of Gaussian 16 at Tue Dec  8 20:30:33 2020.

 --------------------------------------------------------------------
 #N Geom=AllCheck Guess=TCheck SCRF=Check GenChk RB3LYP/6-31G(d) Freq
 --------------------------------------------------------------------

 Structure from the checkpoint file:  "JID_1601.chk"
 -------------------------------
 CID_137296128_JID_1601_neutraal
 -------------------------------
 Charge =  0 Multiplicity = 1

 SCF Done:  E(RB3LYP) =  -478.171999700     A.U. after    1 cycles

  Exact polarizability: 133.860   0.456  95.886  -8.444   1.937  76.759
 Approx polarizability: 171.133   7.234 156.590 -14.706   1.752 113.417

                      1                      2                      3
                      A                      A                      A
 Frequencies --     30.8455                65.1835                90.5168
 Red. masses --      3.8947                 2.9738                 2.6434
 Frc consts  --      0.0022                 0.0074                 0.0128
 IR Inten    --      0.1352                 0.5350                 1.9525

                      4                      5                      6
                      A                      A                      A
 Frequencies --    131.2969               203.0692               227.8144
 Red. masses --      5.3026                 1.8186                 1.3374
 Frc consts  --      0.0539                 0.0442                 0.0409
 IR Inten    --      0.1455                 1.7453                 1.6360

                      7                      8                      9
                      A                      A                      A
 Frequencies --    264.7512               277.3061               288.6409
 Red. masses --      1.1289                 1.1268                 2.2164
 Frc consts  --      0.0466                 0.0511                 0.1088
 IR Inten    --      1.3601                 0.1963                 0.6858

                     10                     11                     12
                      A                      A                      A
 Frequencies --    327.7962               344.1479               382.3856
 Red. masses --      3.6268                 2.1096                 1.3329
 Frc consts  --      0.2296                 0.1472                 0.1148
 IR Inten    --      1.5022                 0.8617               119.3877

                     13                     14                     15
                      A                      A                      A
 Frequencies --    393.0166               416.5428               474.5490
 Red. masses --      2.3374                 1.9954                 2.0530
 Frc consts  --      0.2127                 0.2040                 0.2724
 IR Inten    --      1.0288                 0.1680                 9.2586

                     16                     17                     18
                      A                      A                      A
 Frequencies --    492.5893               561.7339               592.9677
 Red. masses --      2.2296                 3.7352                 2.6882
 Frc consts  --      0.3188                 0.6944                 0.5569
 IR Inten    --     14.2368                 4.8178                 2.2563

                     19                     20                     21
                      A                      A                      A
 Frequencies --    674.4909               760.2191               858.0222
 Red. masses --      6.2684                 3.4714                 4.1918
 Frc consts  --      1.6802                 1.1821                 1.8182
 IR Inten    --      4.5773                 0.5063                 5.2823

                     22                     23                     24
                      A                      A                      A
 Frequencies --    895.3026               920.4387               926.0546
 Red. masses --      5.0550                 2.1902                 1.5736
 Frc consts  --      2.3873                 1.0933                 0.7951
 IR Inten    --     14.0459                 8.1271                 3.4004

                     25                     26                     27
                      A                      A                      A
 Frequencies --    938.8165               952.6026               966.5189
 Red. masses --      2.1818                 1.6117                 1.3121
 Frc consts  --      1.1330                 0.8617                 0.7222
 IR Inten    --      0.2497                 1.2666                 0.7683

                     28                     29                     30
                      A                      A                      A
 Frequencies --    975.0871               992.3216              1004.6093
 Red. masses --      1.2120                 4.8331                 1.8869
 Frc consts  --      0.6790                 2.8040                 1.1220
 IR Inten    --      0.2053                53.3869                 1.2565

                     31                     32                     33
                      A                      A                      A
 Frequencies --   1053.8602              1087.1933              1097.1429
 Red. masses --      1.6609                 1.5720                 1.9489
 Frc consts  --      1.0868                 1.0947                 1.3822
 IR Inten    --      3.3395                 4.4485                58.6010

                     34                     35                     36
                      A                      A                      A
 Frequencies --   1101.4448              1208.8479              1224.5277
 Red. masses --      2.3774                 1.1001                 2.0575
 Frc consts  --      1.6993                 0.9472                 1.8177
 IR Inten    --      7.8334                 1.9309                34.7215

                     37                     38                     39
                      A                      A                      A
 Frequencies --   1249.3826              1263.1519              1289.4827
 Red. masses --      2.2001                 2.4282                 2.7661
 Frc consts  --      2.0234                 2.2827                 2.7099
 IR Inten    --     49.9200                 4.3040                16.9712

                     40                     41                     42
                      A                      A                      A
 Frequencies --   1305.0440              1335.8116              1361.1306
 Red. masses --      1.4867                 1.4939                 1.6252
 Frc consts  --      1.4918                 1.5706                 1.7740
 IR Inten    --     26.7864                 1.7914                22.7597

                     43                     44                     45
                      A                      A                      A
 Frequencies --   1395.1992              1423.8125              1425.6860
 Red. masses --      1.3771                 1.2637                 1.2818
 Frc consts  --      1.5794                 1.5094                 1.5350
 IR Inten    --     21.7728                 9.5721                21.9251

                     46                     47                     48
                      A                      A                      A
 Frequencies --   1436.3968              1456.9803              1483.5474
 Red. masses --      2.1431                 1.2526                 1.0902
 Frc consts  --      2.6051                 1.5666                 1.4137
 IR Inten    --    126.6375                 3.7594                 0.7077

                     49                     50                     51
                      A                      A                      A
 Frequencies --   1509.5013              1517.5283              1521.2107
 Red. masses --      1.0485                 1.0532                 1.0458
 Frc consts  --      1.4077                 1.4290                 1.4259
 IR Inten    --      0.0465                 1.7547                 0.3491

                     52                     53                     54
                      A                      A                      A
 Frequencies --   1523.4524              1536.1298              1539.9211
 Red. masses --      1.0736                 1.0602                 1.0700
 Frc consts  --      1.4681                 1.4739                 1.4949
 IR Inten    --      6.2934                 3.0898                 8.2455

                     55                     56                     57
                      A                      A                      A
 Frequencies --   1550.9818              1688.8153              1787.1018
 Red. masses --      1.0609                 6.4949                10.1024
 Frc consts  --      1.5036                10.9141                19.0096
 IR Inten    --     15.7828               100.8488               360.3497

                     58                     59                     60
                      A                      A                      A
 Frequencies --   2983.0800              3035.5790              3039.1940
 Red. masses --      1.0645                 1.0358                 1.0365
 Frc consts  --      5.5810                 5.6234                 5.6409
 IR Inten    --     43.0541                25.9575                36.6295

                     61                     62                     63
                      A                      A                      A
 Frequencies --   3042.6371              3047.8786              3063.9542
 Red. masses --      1.0872                 1.0450                 1.0602
 Frc consts  --      5.9299                 5.7193                 5.8640
 IR Inten    --     30.9352                31.4375                10.2413

                     64                     65                     66
                      A                      A                      A
 Frequencies --   3095.0017              3099.1380              3102.4492
 Red. masses --      1.1045                 1.1020                 1.1017
 Frc consts  --      6.2334                 6.2360                 6.2476
 IR Inten    --     12.1164                 0.1989                11.9073

                     67                     68                     69
                      A                      A                      A
 Frequencies --   3103.8724              3109.8835              3122.2913
 Red. masses --      1.1016                 1.1012                 1.1011
 Frc consts  --      6.2529                 6.2747                 6.3247
 IR Inten    --     57.9509                74.3176                25.3790

                     70                     71                     72
                      A                      A                      A
 Frequencies --   3138.6423              3218.3453              3660.2590
 Red. masses --      1.0995                 1.0962                 1.0800
 Frc consts  --      6.3815                 6.6894                 8.5251
 IR Inten    --     28.3259                22.3217                52.0601

 - Thermochemistry -
 -------------------
 Temperature   298.150 Kelvin.  Pressure   1.00000 Atm.
 Atom     1 has atomic number  6 and mass  12.00000

 Molecular mass:   153.12660 amu.
 Principal axes and moments of inertia in atomic units:
                           1         2         3
     Eigenvalues --   685.454003223.825733426.05406
           X            0.99998  -0.00654   0.00054
           Y            0.00651   0.99923   0.03878
           Z           -0.00079  -0.03878   0.99925
 This molecule is an asymmetric top.
 Rotational symmetry number  1.
 Warning -- assumption of classical behavior for rotation
           may cause significant error
 Rotational temperatures (Kelvin)      0.12636     0.02687     0.02528
 Rotational constants (GHZ):           2.63291     0.55981     0.52677
 Zero-point vibrational energy     602111.2 (Joules/Mol)
                                  143.90803 (Kcal/Mol)
 Warning -- explicit consideration of  18 degrees of freedom as
           vibrations may cause significant error
 Vibrational temperatures:     44.38    93.78   130.23   188.91   292.17
          (Kelvin)            327.77   380.92   398.98   415.29   471.63
                              495.15   550.17   565.46   599.31   682.77
                              708.73   808.21   853.15   970.44  1093.79
                             1234.50  1288.14  1324.31  1332.39  1350.75
                             1370.58  1390.61  1402.93  1427.73  1445.41
                             1516.27  1564.23  1578.54  1584.73  1739.26
                             1761.82  1797.58  1817.39  1855.28  1877.67
                             1921.94  1958.36  2007.38  2048.55  2051.24
                             2066.65  2096.27  2134.49  2171.84  2183.38
                             2188.68  2191.91  2210.15  2215.60  2231.52
                             2429.83  2571.24  4291.99  4367.52  4372.72
                             4377.68  4385.22  4408.35  4453.02  4458.97
                             4463.73  4465.78  4474.43  4492.28  4515.81
                             4630.48  5266.30

 Zero-point correction=                           0.229332 (Hartree/Particle)
 Thermal correction to Energy=                    0.241165
 Thermal correction to Enthalpy=                  0.242109
 Thermal correction to Gibbs Free Energy=         0.191304
 Sum of electronic and zero-point Energies=           -477.942668
 Sum of electronic and thermal Energies=              -477.930835
 Sum of electronic and thermal Enthalpies=            -477.929891
 Sum of electronic and thermal Free Energies=         -477.980696

                     E (Thermal)             CV                S
                      KCal/Mol        Cal/Mol-Kelvin    Cal/Mol-Kelvin
 Total                  151.333             44.565            106.927
 Electronic               0.000              0.000              0.000
 Translational            0.889              2.981             40.988
 Rotational               0.889              2.981             30.405
 Vibrational            149.556             38.603             35.534
 Vibration     1          0.594              1.984              5.774
 Vibration     2          0.597              1.971              4.294
 Vibration     3          0.602              1.956              3.649
 Vibration     4          0.612              1.922              2.927
 Vibration     5          0.639              1.836              2.105
 Vibration     6          0.651              1.799              1.896
 Vibration     7          0.671              1.738              1.630
 Vibration     8          0.678              1.715              1.550
 Vibration     9          0.685              1.695              1.482
 Vibration    10          0.711              1.620              1.271
 Vibration    11          0.723              1.587              1.193
 Vibration    12          0.752              1.508              1.030
 Vibration    13          0.760              1.485              0.989
 Vibration    14          0.780              1.434              0.904
 Vibration    15          0.831              1.307              0.725
 Vibration    16          0.848              1.266              0.677
 Vibration    17          0.917              1.114              0.520
 Vibration    18          0.951              1.047              0.462

 Optimization completed.
    -- Stationary point found.

 1\1\GINC-NODE316\Freq\RB3LYP\6-31G(d)\C8H15N3\VSC10255\08-Dec-2020\0\\
 #N Geom=AllCheck Guess=TCheck SCRF=Check GenChk RB3LYP/6-31G(d) Freq\\
 CID_137296128_JID_1601_neutraal\\0,1\C,0.9887636666,-0.0846460505,-0.0
 084617987\C,0.198573254,-1.237442116,0.6295769574\C,0.8907386315,-1.68
 92799242,1.9246403251\C,-1.2331339228,-0.7761661241,0.9438899755\C,0.1
 556157043,-2.4452191628,-0.3387550794\N,-0.4350921758,-2.1030146105,-1
 .6210335475\C,-1.5219404753,-2.6660949624,-1.9582010981\C,-2.438109911
 3,-3.7143345573,-1.3066147339\N,-3.5489997536,-3.9432701236,-2.2467530

 Normal termination of Gaussian 16 at Tue Dec  8 20:35:49 2020.

 ----------------------------------------------------------------------
 # B3LYP/6-311++G(d,p) empiricaldispersion=gd3bj scf=xqc pop=npa geom=c
 heck
 ----------------------------------------------------------------------

 ---------------------------------------
 CID_137296128_JID_1601_Energie_neutraal
 ---------------------------------------
 Structure from the checkpoint file:  "JID_1601.chk"
 Charge =  0 Multiplicity = 1

 SCF Done:  E(RB3LYP) =  -478.306555502     A.U. after   14 cycles
 Normal termination of Gaussian 16 at Tue Dec  8 20:38:53 2020.

 ----------------------------------------------------------------------
 # B3LYP/6-311++G(d,p) empiricaldispersion=gd3bj scf=xqc pop=npa geom=c
 heck
 ----------------------------------------------------------------------

 -------------------------------------
 CID_137296128_JID_1601_Energie_kation
 -------------------------------------
 Structure from the checkpoint file:  "JID_1601.chk"
 Charge =  1 Multiplicity = 2

 SCF Done:  E(UB3LYP) =  -478.001918052     A.U. after   23 cycles
 Normal termination of Gaussian 16 at Tue Dec  8 20:45:33 2020.
 Gaussian 16:  ES64L-G16RevA.03 25-Dec-2016

 ------------------------------------
 CID_137296128_JID_1601_Energie_anion
 ------------------------------------
 Structure from the checkpoint file:  "JID_1601.chk"
 Charge = -1 Multiplicity = 2

                         Standard orientation:
 ---------------------------------------------------------------------
 Center     Atomic      Atomic             Coordinates (Angstroms)
 Number     Number       Type             X           Y           Z
 ---------------------------------------------------------------------
      1          6           0        2.663933    1.386591    0.194929
      2          6           0        2.121031   -0.046557    0.086411
      3          6           0        3.229360   -0.987127   -0.410954
      4          6           0        1.621295   -0.519574    1.460410
      5          6           0        0.957727   -0.092647   -0.934783
      6          7           0       -0.123381    0.810471   -0.580011
      7          6           0       -1.258208    0.316811   -0.296375
      8          6           0       -1.828294   -1.109685   -0.243020
      9          7           0       -3.241722   -0.982302    0.152384
     10          6           0       -3.443338    0.273353    0.304280
     11          7           0       -2.355249    1.098060    0.072114
     12          1           0        3.481946    1.436979    0.923519
     13          1           0        1.874650    2.076608    0.505427
     14          1           0        3.051590    1.732125   -0.771267
     15          1           0        4.079981   -0.984443    0.280540
     16          1           0        2.869113   -2.020055   -0.493903
     17          1           0        3.598354   -0.678071   -1.396522
     18          1           0        0.819845    0.127782    1.830869
     19          1           0        1.235934   -1.545983    1.408593
     20          1           0        2.434144   -0.506373    2.195827
     21          1           0        1.348180    0.221318   -1.912831
     22          1           0        0.630477   -1.140310   -1.042306
     23          1           0       -1.752101   -1.613469   -1.213938
     24          1           0       -1.288807   -1.728189    0.483824
     25          1           0       -4.395302    0.706505    0.598008
     26          1           0       -2.326583    2.104979    0.127365
 ---------------------------------------------------------------------

 SCF Done:  E(UB3LYP) =  -478.293546148     A.U. after   31 cycles

 The electronic state is 2-A.
 Alpha  occ. eigenvalues --  -14.24755 -14.19687 -14.18705 -10.14696 -10.14247
 Alpha  occ. eigenvalues --  -10.10695 -10.09084 -10.08341 -10.06075 -10.05519
 Alpha  occ. eigenvalues --  -10.05278  -0.90917  -0.81651  -0.76725  -0.71640
 Alpha  occ. eigenvalues --   -0.63448  -0.58825  -0.58418  -0.57886  -0.50517
 Alpha  occ. eigenvalues --   -0.50012  -0.44260  -0.42028  -0.37832  -0.36990
 Alpha  occ. eigenvalues --   -0.36067  -0.35443  -0.33874  -0.32268  -0.30621
 Alpha  occ. eigenvalues --   -0.30277  -0.28378  -0.28039  -0.26907  -0.26509
 Alpha  occ. eigenvalues --   -0.24383  -0.23125  -0.22639  -0.20662  -0.19699
 Alpha  occ. eigenvalues --   -0.14436  -0.12555   0.04414
 Alpha virt. eigenvalues --    0.06217   0.07853   0.08225   0.08480   0.08813
 Alpha virt. eigenvalues --    0.09643   0.10301   0.10456   0.11475   0.11677
 Alpha virt. eigenvalues --    0.12599   0.13224   0.13530   0.14114   0.14289

  Beta  occ. eigenvalues --  -14.24716 -14.19689 -14.18694 -10.14695 -10.14219
  Beta  occ. eigenvalues --  -10.10666 -10.09072 -10.08340 -10.06048 -10.05493
  Beta  occ. eigenvalues --  -10.05260  -0.90879  -0.81635  -0.76679  -0.71621
  Beta  occ. eigenvalues --   -0.63398  -0.58777  -0.58378  -0.57850  -0.50458
  Beta  occ. eigenvalues --   -0.49913  -0.44205  -0.41972  -0.37801  -0.36951
  Beta  occ. eigenvalues --   -0.36030  -0.35415  -0.33833  -0.32238  -0.30579
  Beta  occ. eigenvalues --   -0.30250  -0.28351  -0.28002  -0.26881  -0.26483
  Beta  occ. eigenvalues --   -0.24363  -0.23097  -0.22613  -0.20642  -0.19678
  Beta  occ. eigenvalues --   -0.14390  -0.12530
  Beta virt. eigenvalues --    0.06523   0.07842   0.08321   0.08483   0.08840
  Beta virt. eigenvalues --    0.09329   0.10489   0.10566   0.10802   0.11752
  Beta virt. eigenvalues --    0.11899   0.12905   0.13381   0.13624   0.14220

 Mulliken charges and spin densities:
               1          2
     1  C    0.102552  -0.670091
     2  C   -0.896285   1.618411
     3  C    0.145044  -0.706687
     4  C    0.541678  -1.184028
     5  C    0.525413  -1.203860
     6  N   -0.043885   0.046595
     7  C   -0.419940   0.292351
     8  C    1.516810  -2.010580
     9  N   -0.254156   0.102079
    10  C    0.421933  -0.282142
    11  N   -0.247665   0.110490
    12  H   -0.049301   0.174718
    13  H    0.024696   0.140787
    14  H   -0.011042   0.141168
    15  H   -0.072598   0.212883
    16  H   -0.251554   0.382248
    17  H   -0.059868   0.187418
    18  H   -0.075672   0.235586
    19  H    0.006634   0.145930
    20  H   -0.112887   0.263495
    21  H    0.035532   0.156650
    22  H    0.084333   0.017442
    23  H   -0.133638   0.336556
    24  H    0.017175   0.175006
    25  H   -1.291905   1.490873
    26  H   -0.501402   0.826703
 Sum of Mulliken charges =  -1.00000   1.00000

 Dipole moment (field-independent basis, Debye):
    X=              4.5943    Y=             -2.0955    Z=             -1.6159  Tot=              5.3019
 Quadrupole moment (field-independent basis, Debye-Ang):
   XX=           -149.2711   YY=           -112.4860   ZZ=            -97.0225
   XY=             11.2941   XZ=              4.9716   YZ=             -2.1039

 Summary of Natural Population Analysis:

                                       Natural Population
                Natural  -----------------------------------------------
    Atom  No    Charge         Core      Valence    Rydberg      Total
 -----------------------------------------------------------------------
      C    1   -0.28493      0.99962     2.27912    0.00619     3.28493
      C    2   -0.05348      0.99959     2.04082    0.01308     3.05348
      C    3   -0.28258      0.99962     2.27666    0.00629     3.28258
      C    4   -0.28811      0.99962     2.28069    0.00780     3.28811
      C    5   -0.09013      0.99954     2.07900    0.01159     3.09013
      N    6   -0.26966      0.99963     2.75819    0.01183     3.76966
      C    7    0.22429      0.99957     1.76002    0.01613     2.77571
      C    8   -0.13720      0.99958     2.12866    0.00896     3.13720
      N    9   -0.26233      0.99973     2.75083    0.01178     3.76233
      C   10    0.14746      0.99963     1.83540    0.01751     2.85254
      N   11   -0.31048      0.99967     2.79904    0.01177     3.81048
      H   12    0.09539      0.00000     0.40363    0.00098     0.40461
      H   13    0.10971      0.00000     0.38883    0.00146     0.39029
      H   14    0.09685      0.00000     0.40217    0.00098     0.40315
      H   15    0.09933      0.00000     0.39962    0.00105     0.40067
      H   16    0.09975      0.00000     0.39901    0.00123     0.40025
      H   17    0.09815      0.00000     0.40065    0.00119     0.40185
      H   18    0.10506      0.00000     0.39369    0.00125     0.39494
      H   19    0.09786      0.00000     0.40097    0.00118     0.40214
      H   20    0.09860      0.00000     0.40049    0.00091     0.40140
      H   21    0.09516      0.00000     0.40345    0.00139     0.40484
      H   22    0.08344      0.00000     0.41465    0.00191     0.41656
      H   23    0.10815      0.00000     0.39028    0.00157     0.39185
      H   24    0.11104      0.00000     0.38723    0.00173     0.38896
      H   25    0.09678      0.00000     0.39854    0.00468     0.40322
      H   26    0.21187      0.00000     0.27394    0.01419     0.28813
 =======================================================================
   * Total *   -0.00000     10.99579    30.84559    0.15861    42.00000

 Normal termination of Gaussian 16 at Tue Dec  8 20:55:17 2020.
