 Gaussian 16, Revision A.03,

 -----------------------------------------------------------
 # opt freq B3LYP/6-31G(d) empiricaldispersion=gd3bj scf=xqc
 -----------------------------------------------------------

 -------------------------------
 CID_117128545_JID_6394_neutraal
 -------------------------------
 Symbolic Z-matrix:
 Charge =  0 Multiplicity = 1

 SCF Done:  E(RB3LYP) =  -704.647706581     A.U. after   15 cycles
 SCF Done:  E(RB3LYP) =  -704.650659505     A.U. after   12 cycles
 SCF Done:  E(RB3LYP) =  -704.651060182     A.U. after   11 cycles
 SCF Done:  E(RB3LYP) =  -704.651162647     A.U. after   11 cycles
 SCF Done:  E(RB3LYP) =  -704.651201483     A.U. after   10 cycles
 SCF Done:  E(RB3LYP) =  -704.651213637     A.U. after    9 cycles
 SCF Done:  E(RB3LYP) =  -704.651216651     A.U. after    8 cycles
 SCF Done:  E(RB3LYP) =  -704.651217339     A.U. after    8 cycles
 SCF Done:  E(RB3LYP) =  -704.651217515     A.U. after    8 cycles
 Optimization completed.
    -- Stationary point found.
 Normal termination of Gaussian 16 at Thu Dec 10 22:29:56 2020.

 --------------------------------------------------------------------
 #N Geom=AllCheck Guess=TCheck SCRF=Check GenChk RB3LYP/6-31G(d) Freq
 --------------------------------------------------------------------

 Structure from the checkpoint file:  "JID_6394.chk"
 -------------------------------
 CID_117128545_JID_6394_neutraal
 -------------------------------
 Charge =  0 Multiplicity = 1

 SCF Done:  E(RB3LYP) =  -704.651217515     A.U. after    1 cycles

  Exact polarizability: 221.476  -3.144 139.739   5.232   6.526  73.483
 Approx polarizability: 292.497   3.038 243.220   8.774  14.197 116.582

                      1                      2                      3
                      A                      A                      A
 Frequencies --     40.4465                51.4755               100.3737
 Red. masses --      3.8971                 4.5084                 4.8888
 Frc consts  --      0.0038                 0.0070                 0.0290
 IR Inten    --      0.0599                 0.3367                 0.7463

                      4                      5                      6
                      A                      A                      A
 Frequencies --    107.0693               130.0462               212.7001
 Red. masses --      3.9592                 6.8089                 3.4840
 Frc consts  --      0.0267                 0.0678                 0.0929
 IR Inten    --      2.6156                 0.9465                 1.8153

                      7                      8                      9
                      A                      A                      A
 Frequencies --    254.4370               275.2650               300.8163
 Red. masses --      3.2216                 3.5604                 4.4497
 Frc consts  --      0.1229                 0.1589                 0.2372
 IR Inten    --      3.9844                 1.1954                 3.9149

                     10                     11                     12
                      A                      A                      A
 Frequencies --    330.4214               398.2365               407.2694
 Red. masses --      3.9045                 1.4314                 1.8155
 Frc consts  --      0.2512                 0.1338                 0.1774
 IR Inten    --      1.4565                80.0565                51.4176

                     13                     14                     15
                      A                      A                      A
 Frequencies --    415.5122               442.1654               490.2764
 Red. masses --      3.0199                 3.5959                 3.6511
 Frc consts  --      0.3072                 0.4142                 0.5171
 IR Inten    --      0.0143                21.8085                 8.4557

                     16                     17                     18
                      A                      A                      A
 Frequencies --    517.9264               577.6743               594.5750
 Red. masses --      4.1591                 5.6159                 4.1336
 Frc consts  --      0.6573                 1.1042                 0.8610
 IR Inten    --      3.1271                 5.2252                11.2607

                     19                     20                     21
                      A                      A                      A
 Frequencies --    635.7215               660.1789               689.1827
 Red. masses --      6.3024                 3.6740                 5.6183
 Frc consts  --      1.5007                 0.9434                 1.5723
 IR Inten    --      0.0399                 1.1674                 4.7878

                     22                     23                     24
                      A                      A                      A
 Frequencies --    709.5903               739.7615               744.9048
 Red. masses --      2.0182                 3.6508                 2.6936
 Frc consts  --      0.5987                 1.1771                 0.8806
 IR Inten    --     19.7956                 9.8893                35.9022

                     25                     26                     27
                      A                      A                      A
 Frequencies --    796.8456               809.7735               862.2546
 Red. masses --      4.2137                 2.9857                 1.9508
 Frc consts  --      1.5764                 1.1535                 0.8545
 IR Inten    --     46.1183                 4.4347                 5.8734

                     28                     29                     30
                      A                      A                      A
 Frequencies --    866.8167               885.9749               943.7958
 Red. masses --      1.2503                 1.8987                 1.4349
 Frc consts  --      0.5535                 0.8781                 0.7530
 IR Inten    --      0.0107                10.5098                 2.5343

                     31                     32                     33
                      A                      A                      A
 Frequencies --    950.4083               978.4787               988.9501
 Red. masses --      2.6197                 1.3405                 2.2231
 Frc consts  --      1.3942                 0.7562                 1.2810
 IR Inten    --      5.5307                 0.0331                29.4115

                     34                     35                     36
                      A                      A                      A
 Frequencies --   1000.3039              1000.9530              1020.8847
 Red. masses --      1.2692                 9.5554                 2.3214
 Frc consts  --      0.7482                 5.6406                 1.4255
 IR Inten    --      0.2989                 1.4584                51.9043

                     37                     38                     39
                      A                      A                      A
 Frequencies --   1023.2164              1057.7889              1082.0545
 Red. masses --      6.1835                 2.3089                 1.9415
 Frc consts  --      3.8143                 1.5221                 1.3393
 IR Inten    --      0.2786                11.7060                26.8811

                     40                     41                     42
                      A                      A                      A
 Frequencies --   1109.6091              1123.0514              1146.1264
 Red. masses --      1.5801                 1.9234                 3.4810
 Frc consts  --      1.1463                 1.4293                 2.6941
 IR Inten    --      5.5810                31.7567                22.8115

                     43                     44                     45
                      A                      A                      A
 Frequencies --   1182.8215              1193.4354              1200.7638
 Red. masses --      1.6150                 1.1025                 1.7055
 Frc consts  --      1.3313                 0.9252                 1.4488
 IR Inten    --     20.4279                 0.0352                 3.9631

                     46                     47                     48
                      A                      A                      A
 Frequencies --   1210.7563              1219.1962              1280.7301
 Red. masses --      1.1484                 2.6147                 1.6184
 Frc consts  --      0.9919                 2.2899                 1.5641
 IR Inten    --      7.7842                 7.2110                41.5335

                     49                     50                     51
                      A                      A                      A
 Frequencies --   1283.6066              1299.2196              1329.2209
 Red. masses --      2.3385                 1.2976                 2.6278
 Frc consts  --      2.2702                 1.2905                 2.7355
 IR Inten    --     29.3669                 8.6612                43.2831

                     52                     53                     54
                      A                      A                      A
 Frequencies --   1358.5135              1368.0997              1375.2417
 Red. masses --      1.9551                 2.9362                 1.7749
 Frc consts  --      2.1260                 3.2379                 1.9778
 IR Inten    --     36.1748                29.7046                62.2722

                     55                     56                     57
                      A                      A                      A
 Frequencies --   1384.5975              1403.0491              1406.8750
 Red. masses --      1.4259                 1.7495                 1.5046
 Frc consts  --      1.6106                 2.0292                 1.7547
 IR Inten    --      9.2812                26.6230                18.3807

                     58                     59                     60
                      A                      A                      A
 Frequencies --   1453.5542              1478.8168              1493.6362
 Red. masses --      1.6800                 2.3825                 2.3270
 Frc consts  --      2.0914                 3.0698                 3.0587
 IR Inten    --     19.3103                45.8986                52.2473

                     61                     62                     63
                      A                      A                      A
 Frequencies --   1505.8567              1510.7865              1523.4604
 Red. masses --      1.3510                 1.1939                 1.3307
 Frc consts  --      1.8050                 1.6055                 1.8197
 IR Inten    --     11.4095                10.4092                 7.4390

                     64                     65                     66
                      A                      A                      A
 Frequencies --   1527.1910              1569.3821              1579.7463
 Red. masses --      1.7414                 3.8126                 7.4872
 Frc consts  --      2.3930                 5.5326                11.0088
 IR Inten    --     27.6359                19.0445                54.7628

                     67                     68                     69
                      A                      A                      A
 Frequencies --   1645.4828              1670.9388              3037.7504
 Red. masses --      5.9358                 5.6014                 1.0710
 Frc consts  --      9.4693                 9.2144                 5.8230
 IR Inten    --      0.9529                 0.9686                16.4826

                     70                     71                     72
                      A                      A                      A
 Frequencies --   3055.4548              3067.8827              3073.6888
 Red. masses --      1.0764                 1.0763                 1.0603
 Frc consts  --      5.9206                 5.9685                 5.9019
 IR Inten    --      8.4806                47.9301                28.4231

                     73                     74                     75
                      A                      A                      A
 Frequencies --   3111.1688              3117.9147              3125.7342
 Red. masses --      1.0934                 1.1019                 1.1007
 Frc consts  --      6.2356                 6.3112                 6.3363
 IR Inten    --     16.6794                27.8223                19.5868

                     76                     77                     78
                      A                      A                      A
 Frequencies --   3182.7771              3193.3108              3205.9580
 Red. masses --      1.0852                 1.0895                 1.0943
 Frc consts  --      6.4769                 6.5456                 6.6269
 IR Inten    --      0.2217                19.0871                36.6217

                     79                     80                     81
                      A                      A                      A
 Frequencies --   3219.6330              3226.7221              3724.5403
 Red. masses --      1.0937                 1.0932                 1.0658
 Frc consts  --      6.6795                 6.7064                 8.7107
 IR Inten    --      9.2944                 4.0461                25.7072

 - Thermochemistry -
 -------------------
 Temperature   298.150 Kelvin.  Pressure   1.00000 Atm.
 Atom     1 has atomic number  6 and mass  12.00000

 Molecular mass:   215.10586 amu.
 Principal axes and moments of inertia in atomic units:
                           1         2         3
     Eigenvalues --  1139.313246591.337267489.63156
           X            0.99998  -0.00622   0.00244
           Y            0.00619   0.99991   0.01174
           Z           -0.00252  -0.01172   0.99993
 This molecule is an asymmetric top.
 Rotational symmetry number  1.
 Warning -- assumption of classical behavior for rotation
           may cause significant error
 Rotational temperatures (Kelvin)      0.07602     0.01314     0.01156
 Rotational constants (GHZ):           1.58406     0.27381     0.24097
 Zero-point vibrational energy     629659.4 (Joules/Mol)
                                  150.49220 (Kcal/Mol)
 Warning -- explicit consideration of  18 degrees of freedom as
           vibrations may cause significant error
 Vibrational temperatures:     58.19    74.06   144.42   154.05   187.11
          (Kelvin)            306.03   366.08   396.04   432.81   475.40
                              572.97   585.97   597.83   636.18   705.40
                              745.18   831.14   855.46   914.66   949.85
                              991.58  1020.94  1064.35  1071.75  1146.48
                             1165.08  1240.59  1247.16  1274.72  1357.91
                             1367.43  1407.81  1422.88  1439.21  1440.15
                             1468.83  1472.18  1521.92  1556.84  1596.48
                             1615.82  1649.02  1701.82  1717.09  1727.63
                             1742.01  1754.15  1842.68  1846.82  1869.29
                             1912.45  1954.60  1968.39  1978.67  1992.13
                             2018.67  2024.18  2091.34  2127.69  2149.01
                             2166.59  2173.68  2191.92  2197.29  2257.99
                             2272.90  2367.48  2404.11  4370.65  4396.12
                             4414.00  4422.35  4476.28  4485.98  4497.23
                             4579.31  4594.46  4612.66  4632.33  4642.53
                             5358.78

 Zero-point correction=                           0.239825 (Hartree/Particle)
 Thermal correction to Energy=                    0.252394
 Thermal correction to Enthalpy=                  0.253338
 Thermal correction to Gibbs Free Energy=         0.199959
 Sum of electronic and zero-point Energies=           -704.411393
 Sum of electronic and thermal Energies=              -704.398824
 Sum of electronic and thermal Enthalpies=            -704.397880
 Sum of electronic and thermal Free Energies=         -704.451259

                     E (Thermal)             CV                S
                      KCal/Mol        Cal/Mol-Kelvin    Cal/Mol-Kelvin
 Total                  158.379             50.143            112.346
 Electronic               0.000              0.000              0.000
 Translational            0.889              2.981             42.001
 Rotational               0.889              2.981             32.397
 Vibrational            156.602             44.181             37.947
 Vibration     1          0.594              1.981              5.237
 Vibration     2          0.596              1.977              4.760
 Vibration     3          0.604              1.949              3.447
 Vibration     4          0.606              1.944              3.321
 Vibration     5          0.612              1.923              2.945
 Vibration     6          0.644              1.822              2.020
 Vibration     7          0.665              1.755              1.700
 Vibration     8          0.677              1.719              1.563
 Vibration     9          0.693              1.672              1.412
 Vibration    10          0.713              1.615              1.258
 Vibration    11          0.765              1.474              0.969
 Vibration    12          0.772              1.454              0.936
 Vibration    13          0.779              1.437              0.907
 Vibration    14          0.802              1.378              0.820
 Vibration    15          0.846              1.272              0.683
 Vibration    16          0.873              1.210              0.615
 Vibration    17          0.934              1.080              0.490
 Vibration    18          0.952              1.043              0.459

 Optimization completed.
    -- Stationary point found.
 Normal termination of Gaussian 16 at Thu Dec 10 22:38:58 2020.

 ----------------------------------------------------------------------
 # B3LYP/6-311++G(d,p) empiricaldispersion=gd3bj scf=xqc pop=npa geom=c
 heck
 ----------------------------------------------------------------------

 ---------------------------------------
 CID_117128545_JID_6394_Energie_neutraal
 ---------------------------------------
 Structure from the checkpoint file:  "JID_6394.chk"
 Charge =  0 Multiplicity = 1

 SCF Done:  E(RB3LYP) =  -704.842436864     A.U. after   15 cycles
 Normal termination of Gaussian 16 at Thu Dec 10 22:42:56 2020.

 ----------------------------------------------------------------------
 # B3LYP/6-311++G(d,p) empiricaldispersion=gd3bj scf=xqc pop=npa geom=c
 heck
 ----------------------------------------------------------------------

 -------------------------------------
 CID_117128545_JID_6394_Energie_kation
 -------------------------------------
 Structure from the checkpoint file:  "JID_6394.chk"
 Charge =  1 Multiplicity = 2

 SCF Done:  E(UB3LYP) =  -704.548048647     A.U. after   25 cycles
 Normal termination of Gaussian 16 at Thu Dec 10 22:53:08 2020.
 Gaussian 16:  ES64L-G16RevA.03 25-Dec-2016

 ----------------------------------------------------------------------
 # B3LYP/6-311++G(d,p) empiricaldispersion=gd3bj scf=xqc pop=npa geom=c
 heck
 ----------------------------------------------------------------------

 ------------------------------------
 CID_117128545_JID_6394_Energie_anion
 ------------------------------------
 Structure from the checkpoint file:  "JID_6394.chk"
 Charge = -1 Multiplicity = 2

                         Standard orientation:
 ---------------------------------------------------------------------
 Center     Atomic      Atomic             Coordinates (Angstroms)
 Number     Number       Type             X           Y           Z
 ---------------------------------------------------------------------
      1          6           0       -3.818228    0.953685    0.323979
      2          6           0       -3.858809   -0.319283   -0.534359
      3          6           0       -2.640917   -1.204667   -0.276943
      4          7           0       -1.447375   -0.369107   -0.278420
      5          6           0       -1.364742    0.971938   -0.087667
      6          7           0       -0.094983    1.327294    0.011619
      7          6           0        0.582561    0.137166   -0.102779
      8          7           0       -0.205449   -0.924997   -0.270696
      9          6           0        2.044778    0.043879   -0.043455
     10          6           0        2.809890    1.200646    0.158077
     11          6           0        4.199219    1.119231    0.218696
     12          6           0        4.838261   -0.114041    0.078851
     13          6           0        4.078822   -1.269284   -0.123084
     14          6           0        2.690397   -1.193333   -0.184562
     15          6           0       -2.595853    1.817598   -0.034008
     16          8           0       -2.802547   -1.833798    0.975202
     17          1           0       -4.736597    1.532090    0.182475
     18          1           0       -3.770998    0.665769    1.379789
     19          1           0       -4.750004   -0.914068   -0.315400
     20          1           0       -3.884923   -0.057445   -1.599514
     21          1           0       -2.503819   -1.948065   -1.071617
     22          1           0        2.299840    2.151837    0.264803
     23          1           0        4.784689    2.020967    0.375437
     24          1           0        5.921952   -0.175619    0.126098
     25          1           0        4.570889   -2.231637   -0.233815
     26          1           0        2.093111   -2.085172   -0.343270
     27          1           0       -2.745576    2.295175   -1.012636
     28          1           0       -2.443858    2.625185    0.688211
     29          1           0       -1.971953   -2.302163    1.163818
 ---------------------------------------------------------------------

 SCF Done:  E(UB3LYP) =  -704.833896475     A.U. after   33 cycles
 SCF Done:  E(UB3LYP) =  -704.833896475     a.u. after    1 cycles

 The electronic state is 2-A.
 Alpha  occ. eigenvalues --  -19.03763 -14.27674 -14.21160 -14.18626 -10.16737
 Alpha  occ. eigenvalues --  -10.13172 -10.10279 -10.08488 -10.07809 -10.07652
 Alpha  occ. eigenvalues --  -10.06227 -10.06035 -10.05895 -10.05494 -10.05458
 Alpha  occ. eigenvalues --  -10.05384  -0.97409  -0.93684  -0.78916  -0.75773
 Alpha  occ. eigenvalues --   -0.73914  -0.68375  -0.65386  -0.63341  -0.63209
 Alpha  occ. eigenvalues --   -0.55616  -0.52886  -0.52528  -0.49086  -0.47093
 Alpha  occ. eigenvalues --   -0.45844  -0.42145  -0.41126  -0.40167  -0.36817
 Alpha  occ. eigenvalues --   -0.35896  -0.35689  -0.34638  -0.33225  -0.32460
 Alpha  occ. eigenvalues --   -0.30914  -0.30827  -0.29690  -0.28494  -0.26032
 Alpha  occ. eigenvalues --   -0.25476  -0.25321  -0.24374  -0.23750  -0.23154
 Alpha  occ. eigenvalues --   -0.22187  -0.19908  -0.18996  -0.16860  -0.16543
 Alpha  occ. eigenvalues --   -0.14436  -0.11772   0.04543
 Alpha virt. eigenvalues --    0.06089   0.07463   0.07743   0.08643   0.09032
 Alpha virt. eigenvalues --    0.09134   0.09598   0.10576   0.10631   0.10889
 Alpha virt. eigenvalues --    0.11673   0.12006   0.13039   0.13254   0.13519

  Beta  occ. eigenvalues --  -19.03750 -14.27625 -14.20972 -14.18602 -10.16724
  Beta  occ. eigenvalues --  -10.13191 -10.10213 -10.08472 -10.07785 -10.07630
  Beta  occ. eigenvalues --  -10.06260 -10.06033 -10.05762 -10.05419 -10.05312
  Beta  occ. eigenvalues --  -10.05301  -0.97301  -0.93618  -0.78804  -0.75614
  Beta  occ. eigenvalues --   -0.73740  -0.68232  -0.65287  -0.63126  -0.63045
  Beta  occ. eigenvalues --   -0.55539  -0.52836  -0.52232  -0.49027  -0.46986
  Beta  occ. eigenvalues --   -0.45730  -0.42074  -0.41023  -0.40069  -0.36753
  Beta  occ. eigenvalues --   -0.35737  -0.35525  -0.34548  -0.33150  -0.32375
  Beta  occ. eigenvalues --   -0.30881  -0.30766  -0.29474  -0.28404  -0.25684
  Beta  occ. eigenvalues --   -0.25419  -0.25109  -0.24307  -0.23641  -0.23090
  Beta  occ. eigenvalues --   -0.22041  -0.19810  -0.18470  -0.16459  -0.16264
  Beta  occ. eigenvalues --   -0.14035  -0.10959
  Beta virt. eigenvalues --    0.07108   0.07481   0.08022   0.08364   0.09051
  Beta virt. eigenvalues --    0.09113   0.09395   0.09728   0.10644   0.10891
  Beta virt. eigenvalues --    0.11394   0.11887   0.12471   0.13236   0.13268

 Mulliken charges and spin densities:
               1          2
     1  C   -0.156152  -0.045869
     2  C    0.216064  -0.591031
     3  C    0.468674  -0.867137
     4  N    0.079707  -0.064355
     5  C    1.063173  -0.845930
     6  N   -0.050883   0.038507
     7  C   -0.204617  -0.709158
     8  N   -0.075049   0.307519
     9  C    0.942915   0.124496
    10  C   -0.696970   0.104738
    11  C   -0.226293  -0.058896
    12  C   -0.418665   0.194128
    13  C   -0.411998  -0.171815
    14  C   -0.094496   0.278404
    15  C   -0.720724   0.542542
    16  O   -0.260974   0.033351
    17  H   -0.942165   1.147743
    18  H    0.317742  -0.160977
    19  H   -0.251757   0.451241
    20  H   -0.197422   0.357855
    21  H   -0.264627   0.482806
    22  H    0.164690   0.012486
    23  H    0.127929  -0.001316
    24  H    0.104723  -0.004678
    25  H    0.125615   0.001783
    26  H    0.132651   0.042322
    27  H   -0.066160   0.249996
    28  H    0.067841   0.101370
    29  H    0.227229   0.049876
 Sum of Mulliken charges =  -1.00000   1.00000

 Dipole moment (field-independent basis, Debye):
    X=              5.0130    Y=             -0.8885    Z=              2.2543  Tot=              5.5679
 Quadrupole moment (field-independent basis, Debye-Ang):
   XX=           -182.2840   YY=           -120.2217   ZZ=           -115.8446
   XY=              3.7894   XZ=             -7.5150   YZ=              0.1767

 Summary of Natural Population Analysis:

                                       Natural Population
                Natural  -----------------------------------------------
    Atom  No    Charge         Core      Valence    Rydberg      Total
 -----------------------------------------------------------------------
      C    1   -0.19000      0.99963     2.18109    0.00928     3.19000
      C    2   -0.20069      0.99961     2.19071    0.01038     3.20069
      C    3    0.15905      0.99958     1.82342    0.01795     2.84095
      N    4   -0.12654      0.99958     2.61430    0.01266     3.62654
      C    5    0.20419      0.99960     1.77992    0.01630     2.79581
      N    6   -0.26540      0.99968     2.75783    0.00789     3.76540
      C    7    0.17876      0.99961     1.80266    0.01897     2.82124
      N    8   -0.14745      0.99970     2.63726    0.01049     3.64745
      C    9   -0.02485      0.99948     2.01633    0.00904     3.02485
      C   10   -0.08169      0.99954     2.07437    0.00778     3.08169
      C   11   -0.10995      0.99958     2.10129    0.00908     3.10995
      C   12   -0.07857      0.99958     2.06945    0.00954     3.07857
      C   13   -0.11553      0.99958     2.10700    0.00895     3.11553
      C   14   -0.07379      0.99954     2.06588    0.00838     3.07379
      C   15   -0.21033      0.99960     2.20161    0.00913     3.21033
      O   16   -0.36944      0.99989     3.36415    0.00541     4.36944
      H   17    0.10557      0.00000     0.39178    0.00265     0.39443
      H   18    0.10050      0.00000     0.39810    0.00140     0.39950
      H   19    0.11024      0.00000     0.38836    0.00140     0.38976
      H   20    0.10378      0.00000     0.39369    0.00253     0.39622
      H   21    0.08977      0.00000     0.40821    0.00203     0.41023
      H   22    0.10733      0.00000     0.39152    0.00115     0.39267
      H   23    0.09275      0.00000     0.40626    0.00099     0.40725
      H   24    0.09013      0.00000     0.40887    0.00100     0.40987
      H   25    0.09329      0.00000     0.40578    0.00094     0.40671
      H   26    0.10500      0.00000     0.39395    0.00105     0.39500
      H   27    0.10762      0.00000     0.39095    0.00143     0.39238
      H   28    0.11064      0.00000     0.38829    0.00108     0.38936
      H   29    0.23562      0.00000     0.26179    0.00259     0.26438
 =======================================================================
   * Total *   -0.00000     15.99377    40.81478    0.19145    57.00000

 Normal termination of Gaussian 16 at Thu Dec 10 23:06:18 2020.
