 Gaussian 16, Revision A.03,

 -----------------------------------------------------------
 # opt freq B3LYP/6-31G(d) empiricaldispersion=gd3bj scf=xqc
 -----------------------------------------------------------

 ------------------------------
 CID_54057104_JID_2360_neutraal
 ------------------------------
 Symbolic Z-matrix:
 Charge =  0 Multiplicity = 1

 SCF Done:  E(RB3LYP) =  -523.709732062     A.U. after   14 cycles
 SCF Done:  E(RB3LYP) =  -523.712458642     A.U. after   12 cycles
 SCF Done:  E(RB3LYP) =  -523.711807394     A.U. after   13 cycles
 SCF Done:  E(RB3LYP) =  -523.713042370     A.U. after   12 cycles
 SCF Done:  E(RB3LYP) =  -523.714190786     A.U. after   13 cycles
 SCF Done:  E(RB3LYP) =  -523.714478647     A.U. after   13 cycles
 SCF Done:  E(RB3LYP) =  -523.714432340     A.U. after   13 cycles
 SCF Done:  E(RB3LYP) =  -523.714670040     A.U. after   12 cycles
 SCF Done:  E(RB3LYP) =  -523.714927483     A.U. after   11 cycles
 SCF Done:  E(RB3LYP) =  -523.715104200     A.U. after   13 cycles
 SCF Done:  E(RB3LYP) =  -523.719892741     A.U. after    9 cycles
 SCF Done:  E(RB3LYP) =  -523.719892884     A.U. after    9 cycles
 SCF Done:  E(RB3LYP) =  -523.719893054     A.U. after    8 cycles
 SCF Done:  E(RB3LYP) =  -523.719894628     A.U. after   11 cycles
 SCF Done:  E(RB3LYP) =  -523.719894670     A.U. after    7 cycles
 Optimization completed.
    -- Stationary point found.
 Normal termination of Gaussian 16 at Wed Dec  9 17:56:15 2020.

 --------------------------------------------------------------------
 #N Geom=AllCheck Guess=TCheck SCRF=Check GenChk RB3LYP/6-31G(d) Freq
 --------------------------------------------------------------------

 Structure from the checkpoint file:  "JID_2360.chk"
 ------------------------------
 CID_54057104_JID_2360_neutraal
 ------------------------------
 Charge =  0 Multiplicity = 1

 SCF Done:  E(RB3LYP) =  -523.719894670     A.U. after    1 cycles

  Exact polarizability: 129.391  -4.116 112.383  -1.112  -1.345 100.843
 Approx polarizability: 159.956  -8.535 161.348  -3.911   0.709 150.430

                      1                      2                      3
                      A                      A                      A
 Frequencies --     34.6154                40.8816                46.9500
 Red. masses --      4.4853                 3.5191                 2.8147
 Frc consts  --      0.0032                 0.0035                 0.0037
 IR Inten    --      1.4050                 2.1683                 7.8468

                      4                      5                      6
                      A                      A                      A
 Frequencies --     68.9572                79.5956               100.9644
 Red. masses --      2.7253                 2.1117                 4.4047
 Frc consts  --      0.0076                 0.0079                 0.0265
 IR Inten    --      1.5195                 3.5225                 2.9955

                      7                      8                      9
                      A                      A                      A
 Frequencies --    116.8962               165.6802               206.9286
 Red. masses --      2.6729                 2.1123                 1.3972
 Frc consts  --      0.0215                 0.0342                 0.0352
 IR Inten    --      0.1588                 0.3081                 0.3510

                     10                     11                     12
                      A                      A                      A
 Frequencies --    228.8885               235.4317               253.0239
 Red. masses --      4.5105                 1.5465                 1.4612
 Frc consts  --      0.1392                 0.0505                 0.0551
 IR Inten    --      4.1926                 1.3597                 1.0209

                     13                     14                     15
                      A                      A                      A
 Frequencies --    282.9314               323.8269               384.4174
 Red. masses --      1.9278                 1.9183                 1.9336
 Frc consts  --      0.0909                 0.1185                 0.1684
 IR Inten    --      0.3895                 0.3402                 0.8550

                     16                     17                     18
                      A                      A                      A
 Frequencies --    394.5924               434.6977               445.0102
 Red. masses --      1.8952                 2.1762                 1.9263
 Frc consts  --      0.1739                 0.2423                 0.2248
 IR Inten    --      5.0858                 6.9039                 0.8226

                     19                     20                     21
                      A                      A                      A
 Frequencies --    495.2053               578.6585               658.4360
 Red. masses --      2.1565                 2.4031                 2.7757
 Frc consts  --      0.3116                 0.4741                 0.7090
 IR Inten    --      3.8692                 1.5325                 1.2375

                     22                     23                     24
                      A                      A                      A
 Frequencies --    714.6607               728.1467               762.6443
 Red. masses --      1.4866                 1.5802                 1.5601
 Frc consts  --      0.4473                 0.4936                 0.5346
 IR Inten    --     18.1001                 4.5816                 0.5489

                     25                     26                     27
                      A                      A                      A
 Frequencies --    801.1126               842.9927               860.3184
 Red. masses --      2.5681                 1.6058                 2.4430
 Frc consts  --      0.9711                 0.6723                 1.0654
 IR Inten    --      5.7536                 2.4078                 8.3061

                     28                     29                     30
                      A                      A                      A
 Frequencies --    876.4198               922.8200               964.2532
 Red. masses --      2.5517                 1.6137                 1.7500
 Frc consts  --      1.1548                 0.8097                 0.9587
 IR Inten    --      3.3084                 2.7562                 0.9481

                     31                     32                     33
                      A                      A                      A
 Frequencies --    967.4481               985.0505              1020.7429
 Red. masses --      1.7263                 1.8750                 1.7208
 Frc consts  --      0.9520                 1.0719                 1.0564
 IR Inten    --      6.1747                13.1101                 2.2651

                     34                     35                     36
                      A                      A                      A
 Frequencies --   1042.3097              1060.9891              1066.1806
 Red. masses --      1.4236                 2.1024                 1.9105
 Frc consts  --      0.9112                 1.3944                 1.2795
 IR Inten    --      2.4504                29.5038                16.7207

                     37                     38                     39
                      A                      A                      A
 Frequencies --   1080.9158              1106.8260              1136.8755
 Red. masses --      1.9695                 1.9975                 1.7254
 Frc consts  --      1.3558                 1.4418                 1.3139
 IR Inten    --     20.6076                15.2557                 4.7021

                     40                     41                     42
                      A                      A                      A
 Frequencies --   1143.6069              1170.0332              1180.7323
 Red. masses --      1.8988                 1.6687                 1.8693
 Frc consts  --      1.4631                 1.3460                 1.5354
 IR Inten    --      5.6701                 6.7195                 2.6580

                     43                     44                     45
                      A                      A                      A
 Frequencies --   1225.9354              1234.8480              1243.0976
 Red. masses --      1.3010                 1.4869                 1.2874
 Frc consts  --      1.1520                 1.3358                 1.1721
 IR Inten    --      7.8670                12.9076                 4.6663

                     46                     47                     48
                      A                      A                      A
 Frequencies --   1284.7815              1313.4377              1335.3361
 Red. masses --      1.4888                 1.2392                 1.4303
 Frc consts  --      1.4479                 1.2595                 1.5026
 IR Inten    --     11.0743                 1.6183                12.3219

                     49                     50                     51
                      A                      A                      A
 Frequencies --   1351.6992              1355.3837              1383.1176
 Red. masses --      1.1982                 1.7237                 1.3473
 Frc consts  --      1.2899                 1.8657                 1.5186
 IR Inten    --      7.9342                23.3735                15.3909

                     52                     53                     54
                      A                      A                      A
 Frequencies --   1391.3092              1401.4153              1407.4909
 Red. masses --      1.4259                 1.4069                 1.3269
 Frc consts  --      1.6262                 1.6279                 1.5487
 IR Inten    --      3.9589                 7.9211                22.3860

                     55                     56                     57
                      A                      A                      A
 Frequencies --   1414.9190              1424.8864              1438.8426
 Red. masses --      1.3503                 1.4464                 1.1878
 Frc consts  --      1.5927                 1.7302                 1.4489
 IR Inten    --      1.4649                 1.7529                 5.2045

                     58                     59                     60
                      A                      A                      A
 Frequencies --   1442.3581              1445.8278              1472.8562
 Red. masses --      1.2803                 1.3412                 1.1022
 Frc consts  --      1.5693                 1.6519                 1.4087
 IR Inten    --      4.7123                 2.5751                15.0890

                     61                     62                     63
                      A                      A                      A
 Frequencies --   1483.7322              1505.6923              1508.8067
 Red. masses --      1.1503                 1.0710                 1.0946
 Frc consts  --      1.4920                 1.4306                 1.4682
 IR Inten    --      4.0289                 2.0699                 9.6370

                     64                     65                     66
                      A                      A                      A
 Frequencies --   1513.7051              1521.0487              1524.6947
 Red. masses --      1.0646                 1.0646                 1.0946
 Frc consts  --      1.4372                 1.4512                 1.4992
 IR Inten    --      1.6815                 5.9432                 9.0844

                     67                     68                     69
                      A                      A                      A
 Frequencies --   1532.3361              1534.1326              1540.0843
 Red. masses --      1.0642                 1.0613                 1.0763
 Frc consts  --      1.4722                 1.4717                 1.5041
 IR Inten    --      4.8077                 7.1056                 9.5462

                     70                     71                     72
                      A                      A                      A
 Frequencies --   1543.4717              1545.9782              1827.0844
 Red. masses --      1.0767                 1.0671                 9.4180
 Frc consts  --      1.5113                 1.5026                18.5236
 IR Inten    --      4.3353                 2.1648               117.3649

                     73                     74                     75
                      A                      A                      A
 Frequencies --   2898.9591              2904.8900              2935.9900
 Red. masses --      1.0838                 1.0743                 1.0630
 Frc consts  --      5.3663                 5.3412                 5.3987
 IR Inten    --    112.4182               117.2531               102.6219

                     76                     77                     78
                      A                      A                      A
 Frequencies --   3018.3843              3028.7445              3036.5019
 Red. masses --      1.0704                 1.0672                 1.0615
 Frc consts  --      5.7459                 5.7678                 5.7665
 IR Inten    --     15.6959                23.0316                25.7435

                     79                     80                     81
                      A                      A                      A
 Frequencies --   3038.9174              3043.5403              3051.8526
 Red. masses --      1.0596                 1.0419                 1.0619
 Frc consts  --      5.7654                 5.6865                 5.8270
 IR Inten    --     21.3190                22.7850                26.5962

                     82                     83                     84
                      A                      A                      A
 Frequencies --   3062.1229              3065.3093              3068.6148
 Red. masses --      1.0621                 1.0989                 1.0990
 Frc consts  --      5.8674                 6.0834                 6.0970
 IR Inten    --     28.0348                42.1209                 4.9131

                     85                     86                     87
                      A                      A                      A
 Frequencies --   3076.7689              3080.6929              3084.8435
 Red. masses --      1.0962                 1.0890                 1.0721
 Frc consts  --      6.1140                 6.0894                 6.0110
 IR Inten    --     44.1237                17.8664                45.6410

                     88                     89                     90
                      A                      A                      A
 Frequencies --   3091.4766              3107.4588              3110.1205
 Red. masses --      1.0999                 1.1014                 1.1015
 Frc consts  --      6.1935                 6.2665                 6.2776
 IR Inten    --     84.5987                53.1681                 5.0290

                     91                     92                     93
                      A                      A                      A
 Frequencies --   3114.3026              3116.3127              3129.2053
 Red. masses --      1.1018                 1.0887                 1.1023
 Frc consts  --      6.2960                 6.2292                 6.3593
 IR Inten    --     57.9193                26.3491                31.3447

 - Thermochemistry -
 -------------------
 Temperature   298.150 Kelvin.  Pressure   1.00000 Atm.
 Atom     1 has atomic number  6 and mass  12.00000

 Molecular mass:   171.16231 amu.
 Principal axes and moments of inertia in atomic units:
                           1         2         3
     Eigenvalues --  1376.661513848.362714635.87017
           X            0.99967  -0.02557   0.00100
           Y            0.02556   0.99965   0.00743
           Z           -0.00119  -0.00740   0.99997
 This molecule is an asymmetric top.
 Rotational symmetry number  1.
 Warning -- assumption of classical behavior for rotation
           may cause significant error
 Rotational temperatures (Kelvin)      0.06292     0.02251     0.01868
 Rotational constants (GHZ):           1.31095     0.46896     0.38930
 Zero-point vibrational energy     796862.4 (Joules/Mol)
                                  190.45468 (Kcal/Mol)
 Warning -- explicit consideration of  20 degrees of freedom as
           vibrations may cause significant error
 Vibrational temperatures:     49.80    58.82    67.55    99.21   114.52
          (Kelvin)            145.27   168.19   238.38   297.72   329.32
                              338.73   364.04   407.08   465.91   553.09
                              567.73   625.43   640.27   712.49   832.56
                              947.34  1028.24  1047.64  1097.28  1152.62
                             1212.88  1237.81  1260.97  1327.73  1387.35
                             1391.94  1417.27  1468.62  1499.65  1526.53
                             1534.00  1555.20  1592.48  1635.71  1645.40
                             1683.42  1698.81  1763.85  1776.67  1788.54
                             1848.51  1889.74  1921.25  1944.79  1950.09
                             1990.00  2001.78  2016.32  2025.07  2035.75
                             2050.09  2070.17  2075.23  2080.22  2119.11
                             2134.76  2166.36  2170.84  2177.88  2188.45
                             2193.70  2204.69  2207.27  2215.84  2220.71
                             2224.32  2628.77  4170.96  4179.49  4224.23
                             4342.78  4357.69  4368.85  4372.32  4378.98
                             4390.94  4405.71  4410.30  4415.05  4426.78
                             4432.43  4438.40  4447.95  4470.94  4474.77
                             4480.79  4483.68  4502.23

 Zero-point correction=                           0.303509 (Hartree/Particle)
 Thermal correction to Energy=                    0.318335
 Thermal correction to Enthalpy=                  0.319279
 Thermal correction to Gibbs Free Energy=         0.260205
 Sum of electronic and zero-point Energies=           -523.416386
 Sum of electronic and thermal Energies=              -523.401560
 Sum of electronic and thermal Enthalpies=            -523.400615
 Sum of electronic and thermal Free Energies=         -523.459690

                     E (Thermal)             CV                S
                      KCal/Mol        Cal/Mol-Kelvin    Cal/Mol-Kelvin
 Total                  199.758             53.238            124.333
 Electronic               0.000              0.000              0.000
 Translational            0.889              2.981             41.320
 Rotational               0.889              2.981             31.574
 Vibrational            197.981             47.277             51.439
 Vibration     1          0.594              1.983              5.546
 Vibration     2          0.594              1.981              5.216
 Vibration     3          0.595              1.979              4.942
 Vibration     4          0.598              1.969              4.183
 Vibration     5          0.600              1.963              3.901
 Vibration     6          0.604              1.948              3.436
 Vibration     7          0.608              1.935              3.151
 Vibration     8          0.624              1.885              2.484
 Vibration     9          0.641              1.830              2.071
 Vibration    10          0.652              1.797              1.888
 Vibration    11          0.655              1.787              1.837
 Vibration    12          0.664              1.758              1.709
 Vibration    13          0.682              1.705              1.516
 Vibration    14          0.708              1.628              1.291
 Vibration    15          0.753              1.503              1.022
 Vibration    16          0.762              1.482              0.983
 Vibration    17          0.795              1.395              0.843
 Vibration    18          0.804              1.372              0.811
 Vibration    19          0.851              1.261              0.670
 Vibration    20          0.935              1.077              0.488

                           ! Non-Optimized Parameters !
 Normal termination of Gaussian 16 at Wed Dec  9 18:05:29 2020.

 ----------------------------------------------------------------------
 # B3LYP/6-311++G(d,p) empiricaldispersion=gd3bj scf=xqc pop=npa geom=c
 heck
 ----------------------------------------------------------------------

 --------------------------------------
 CID_54057104_JID_2360_Energie_neutraal
 --------------------------------------
 Structure from the checkpoint file:  "JID_2360.chk"
 Charge =  0 Multiplicity = 1

 SCF Done:  E(RB3LYP) =  -523.871119744     A.U. after   13 cycles
 Normal termination of Gaussian 16 at Wed Dec  9 18:09:48 2020.

 ----------------------------------------------------------------------
 # B3LYP/6-311++G(d,p) empiricaldispersion=gd3bj scf=xqc pop=npa geom=c
 heck
 ----------------------------------------------------------------------

 ------------------------------------
 CID_54057104_JID_2360_Energie_kation
 ------------------------------------
 Structure from the checkpoint file:  "JID_2360.chk"
 Charge =  1 Multiplicity = 2

 SCF Done:  E(UB3LYP) =  -523.579800756     A.U. after   19 cycles
 Normal termination of Gaussian 16 at Wed Dec  9 18:17:13 2020.
 Gaussian 16:  ES64L-G16RevA.03 25-Dec-2016

 ----------------------------------------------------------------------
 # B3LYP/6-311++G(d,p) empiricaldispersion=gd3bj scf=xqc pop=npa geom=c
 heck
 ----------------------------------------------------------------------

 -----------------------------------
 CID_54057104_JID_2360_Energie_anion
 -----------------------------------
 Structure from the checkpoint file:  "JID_2360.chk"
 Charge = -1 Multiplicity = 2

                         Standard orientation:
 ---------------------------------------------------------------------
 Center     Atomic      Atomic             Coordinates (Angstroms)
 Number     Number       Type             X           Y           Z
 ---------------------------------------------------------------------
      1          6           0       -4.239423    0.913397   -0.329303
      2          6           0       -2.903620    1.194518    0.365277
      3          6           0       -2.276392   -0.039272    1.031336
      4          6           0       -1.969750   -1.212137    0.087305
      5          6           0       -1.053457   -0.863797   -1.093927
      6          6           0        0.286998   -0.243946   -0.680507
      7          7           0        1.001667   -1.032310    0.320201
      8          6           0        1.461153   -2.316125   -0.181955
      9          6           0        2.028394   -0.287076    1.037384
     10          6           0        3.211925    0.240755    0.195258
     11          6           0        2.968689    1.574888   -0.476105
     12          8           0        2.132995    2.381515   -0.128827
     13          1           0       -4.122089    0.215842   -1.166255
     14          1           0       -4.681157    1.833939   -0.727137
     15          1           0       -4.960499    0.471160    0.369591
     16          1           0       -2.200313    1.625497   -0.359516
     17          1           0       -3.051405    1.966400    1.131932
     18          1           0       -1.350851    0.257528    1.539948
     19          1           0       -2.953612   -0.397880    1.819360
     20          1           0       -1.499746   -2.007862    0.676335
     21          1           0       -2.906268   -1.627348   -0.306978
     22          1           0       -0.885012   -1.766051   -1.695641
     23          1           0       -1.550059   -0.151153   -1.764870
     24          1           0        0.899121   -0.080910   -1.591600
     25          1           0        0.113953    0.746210   -0.250768
     26          1           0        2.143147   -2.242112   -1.051662
     27          1           0        1.984607   -2.854584    0.615149
     28          1           0        0.606244   -2.925457   -0.488920
     29          1           0        1.552561    0.567967    1.528352
     30          1           0        2.419264   -0.941802    1.824202
     31          1           0        4.089472    0.394603    0.843789
     32          1           0        3.537251   -0.484470   -0.561030
     33          1           0        3.652670    1.807305   -1.323653
 ---------------------------------------------------------------------

 SCF Done:  E(UB3LYP) =  -523.859116785     A.U. after   33 cycles
 SCF Done:  E(UB3LYP) =  -523.859116785     a.u. after    1 cycles

 The electronic state is 2-A.
 Alpha  occ. eigenvalues --  -18.99456 -14.19319 -10.12902 -10.08169 -10.07773
 Alpha  occ. eigenvalues --  -10.07737 -10.06754 -10.06461 -10.06125 -10.06032
 Alpha  occ. eigenvalues --  -10.05840 -10.05698  -0.92649  -0.81477  -0.70628
 Alpha  occ. eigenvalues --   -0.66638  -0.64828  -0.60585  -0.58248  -0.55581
 Alpha  occ. eigenvalues --   -0.51703  -0.47738  -0.44506  -0.43060  -0.38894
 Alpha  occ. eigenvalues --   -0.37652  -0.37350  -0.35728  -0.34531  -0.34421
 Alpha  occ. eigenvalues --   -0.32395  -0.31390  -0.30626  -0.30010  -0.29703
 Alpha  occ. eigenvalues --   -0.27424  -0.27060  -0.26938  -0.25492  -0.25413
 Alpha  occ. eigenvalues --   -0.24470  -0.23742  -0.23615  -0.21653  -0.21431
 Alpha  occ. eigenvalues --   -0.20791  -0.14015  -0.10424   0.04627
 Alpha virt. eigenvalues --    0.06182   0.07284   0.07825   0.08057   0.08829
 Alpha virt. eigenvalues --    0.08897   0.09641   0.10501   0.10726   0.11611
 Alpha virt. eigenvalues --    0.11803   0.11933   0.12495   0.12604   0.13805

  Beta  occ. eigenvalues --  -18.99291 -14.19310 -10.12705 -10.08149 -10.07746
  Beta  occ. eigenvalues --  -10.07721 -10.06749 -10.06440 -10.06119 -10.06026
  Beta  occ. eigenvalues --  -10.05829 -10.05688  -0.92319  -0.81453  -0.70609
  Beta  occ. eigenvalues --   -0.66578  -0.64732  -0.60552  -0.58151  -0.55494
  Beta  occ. eigenvalues --   -0.51615  -0.47619  -0.44339  -0.42903  -0.38847
  Beta  occ. eigenvalues --   -0.37601  -0.37243  -0.35658  -0.34449  -0.34348
  Beta  occ. eigenvalues --   -0.32289  -0.31138  -0.30534  -0.29958  -0.29577
  Beta  occ. eigenvalues --   -0.27367  -0.27025  -0.26857  -0.25403  -0.25087
  Beta  occ. eigenvalues --   -0.24425  -0.23698  -0.23289  -0.21626  -0.21412
  Beta  occ. eigenvalues --   -0.20746  -0.13856  -0.10372
  Beta virt. eigenvalues --    0.06477   0.07453   0.08226   0.08322   0.09001
  Beta virt. eigenvalues --    0.09147   0.09416   0.09965   0.10831   0.11021
  Beta virt. eigenvalues --    0.11802   0.12010   0.12171   0.12655   0.12862

 Mulliken charges and spin densities:
               1          2
     1  C    0.339086  -0.959864
     2  C   -0.660416   0.436531
     3  C    0.297032  -0.304162
     4  C   -0.175582  -0.167455
     5  C    0.542772  -0.980033
     6  C   -0.830340   0.314808
     7  N    0.034644   0.188317
     8  C    0.821038  -1.176015
     9  C   -0.186938  -0.036593
    10  C    0.546874  -0.820646
    11  C   -0.191035   0.287627
    12  O   -0.274377   0.047213
    13  H   -0.028849   0.169089
    14  H   -0.082080   0.209574
    15  H   -0.098881   0.230118
    16  H    0.188266  -0.047821
    17  H    0.014700   0.116026
    18  H    0.015079   0.136273
    19  H    0.019952   0.140126
    20  H    0.041298   0.097257
    21  H   -0.090758   0.239014
    22  H   -0.002674   0.173198
    23  H   -0.014102   0.143186
    24  H   -0.054934   0.195723
    25  H    0.073719   0.053007
    26  H   -0.253745   0.365767
    27  H   -0.250937   0.400743
    28  H   -0.070194   0.187177
    29  H    0.253937  -0.109507
    30  H   -0.261143   0.416770
    31  H   -0.655230   0.861226
    32  H    0.180247  -0.051674
    33  H   -0.186429   0.245004
 Sum of Mulliken charges =  -1.00000   1.00000

 Dipole moment (field-independent basis, Debye):
    X=             -3.2578    Y=              0.7762    Z=             -0.6052  Tot=              3.4032
 Quadrupole moment (field-independent basis, Debye-Ang):
   XX=           -152.1241   YY=           -120.0180   ZZ=           -107.9123
   XY=              1.9394   XZ=             -6.4538   YZ=              0.7053

 Summary of Natural Population Analysis:

                                       Natural Population
                Natural  -----------------------------------------------
    Atom  No    Charge         Core      Valence    Rydberg      Total
 -----------------------------------------------------------------------
      C    1   -0.28613      0.99967     2.28225    0.00420     3.28613
      C    2   -0.19366      0.99964     2.18576    0.00826     3.19366
      C    3   -0.19224      0.99963     2.18376    0.00885     3.19224
      C    4   -0.19299      0.99962     2.18423    0.00914     3.19299
      C    5   -0.19572      0.99963     2.18726    0.00883     3.19572
      C    6   -0.08824      0.99961     2.07721    0.01142     3.08824
      N    7   -0.28304      0.99972     2.77030    0.01302     3.78304
      C    8   -0.17901      0.99964     2.17045    0.00892     3.17901
      C    9   -0.08196      0.99961     2.06865    0.01370     3.08196
      C   10   -0.25874      0.99961     2.25011    0.00902     3.25874
      C   11    0.25232      0.99974     1.72805    0.01988     2.74768
      O   12   -0.27469      0.99988     3.26780    0.00702     4.27469
      H   13    0.09686      0.00000     0.40212    0.00102     0.40314
      H   14    0.09627      0.00000     0.40282    0.00092     0.40373
      H   15    0.09434      0.00000     0.40445    0.00122     0.40566
      H   16    0.09514      0.00000     0.40361    0.00125     0.40486
      H   17    0.09385      0.00000     0.40525    0.00090     0.40615
      H   18    0.10116      0.00000     0.39744    0.00140     0.39884
      H   19    0.09281      0.00000     0.40623    0.00096     0.40719
      H   20    0.10239      0.00000     0.39633    0.00128     0.39761
      H   21    0.09339      0.00000     0.40559    0.00103     0.40661
      H   22    0.09654      0.00000     0.40235    0.00111     0.40346
      H   23    0.09591      0.00000     0.40313    0.00096     0.40409
      H   24    0.08257      0.00000     0.41550    0.00192     0.41743
      H   25    0.10271      0.00000     0.39555    0.00174     0.39729
      H   26    0.07954      0.00000     0.41877    0.00169     0.42046
      H   27    0.09644      0.00000     0.40233    0.00122     0.40356
      H   28    0.09429      0.00000     0.40447    0.00124     0.40571
      H   29    0.10108      0.00000     0.39748    0.00144     0.39892
      H   30    0.09626      0.00000     0.40245    0.00129     0.40374
      H   31    0.11862      0.00000     0.37736    0.00402     0.38138
      H   32    0.10522      0.00000     0.39309    0.00169     0.39478
      H   33    0.03870      0.00000     0.45850    0.00280     0.46130
 =======================================================================
   * Total *   -0.00000     11.99599    35.85065    0.15336    48.00000

 Normal termination of Gaussian 16 at Wed Dec  9 18:29:51 2020.
