 Gaussian 16, Revision A.03,

 -----------------------------------------------------------
 # opt freq B3LYP/6-31G(d) empiricaldispersion=gd3bj scf=xqc
 -----------------------------------------------------------

 -------------------------------
 CID_115837901_JID_2966_neutraal
 -------------------------------
 Symbolic Z-matrix:
 Charge =  0 Multiplicity = 1

 SCF Done:  E(RB3LYP) =  -505.202750382     A.U. after   12 cycles
 SCF Done:  E(RB3LYP) =  -505.211381522     A.U. after   10 cycles
 SCF Done:  E(RB3LYP) =  -505.211751756     A.U. after   10 cycles
 SCF Done:  E(RB3LYP) =  -505.212219904     A.U. after   10 cycles
 SCF Done:  E(RB3LYP) =  -505.212289175     A.U. after   10 cycles
 SCF Done:  E(RB3LYP) =  -505.212328907     A.U. after   10 cycles
 SCF Done:  E(RB3LYP) =  -505.212341160     A.U. after    9 cycles
 SCF Done:  E(RB3LYP) =  -505.212344336     A.U. after    7 cycles
 SCF Done:  E(RB3LYP) =  -505.212345176     A.U. after    7 cycles
 SCF Done:  E(RB3LYP) =  -505.212345360     A.U. after    7 cycles
 SCF Done:  E(RB3LYP) =  -505.212345412     A.U. after    6 cycles
 SCF Done:  E(RB3LYP) =  -505.212345451     A.U. after    6 cycles
 Optimization completed.
    -- Stationary point found.
 Normal termination of Gaussian 16 at Wed Dec  9 18:20:55 2020.

 --------------------------------------------------------------------
 #N Geom=AllCheck Guess=TCheck SCRF=Check GenChk RB3LYP/6-31G(d) Freq
 --------------------------------------------------------------------

 Structure from the checkpoint file:  "JID_2966.chk"
 -------------------------------
 CID_115837901_JID_2966_neutraal
 -------------------------------
 Charge =  0 Multiplicity = 1

 SCF Done:  E(RB3LYP) =  -505.212345451     A.U. after    1 cycles

  Exact polarizability: 122.561  -0.552 105.551  -0.142  -0.521  98.221
 Approx polarizability: 153.685  -1.915 151.785  -1.163  -2.204 153.944

                      1                      2                      3
                      A                      A                      A
 Frequencies --     56.9772                73.8854               108.0850
 Red. masses --      2.6131                 3.0644                 2.8126
 Frc consts  --      0.0050                 0.0099                 0.0194
 IR Inten    --      0.0624                 0.0356                 0.3580

                      4                      5                      6
                      A                      A                      A
 Frequencies --    133.1140               166.2763               207.2011
 Red. masses --      2.5754                 2.7382                 3.6407
 Frc consts  --      0.0269                 0.0446                 0.0921
 IR Inten    --      0.8457                 2.2427                 1.4033

                      7                      8                      9
                      A                      A                      A
 Frequencies --    232.0136               260.5508               312.4074
 Red. masses --      2.3994                 1.1977                 2.8695
 Frc consts  --      0.0761                 0.0479                 0.1650
 IR Inten    --      8.2086               100.8235                10.5543

                     10                     11                     12
                      A                      A                      A
 Frequencies --    348.1070               364.6076               439.0167
 Red. masses --      2.9614                 2.2540                 2.0113
 Frc consts  --      0.2114                 0.1765                 0.2284
 IR Inten    --     13.2594                 0.3205                 7.7083

                     13                     14                     15
                      A                      A                      A
 Frequencies --    493.6438               522.5328               647.3181
 Red. masses --      2.9153                 3.2879                 2.1411
 Frc consts  --      0.4186                 0.5289                 0.5286
 IR Inten    --      3.1245                 1.8175                 4.6649

                     16                     17                     18
                      A                      A                      A
 Frequencies --    680.4057               739.4882               775.6932
 Red. masses --      3.1646                 3.0485                 2.4880
 Frc consts  --      0.8632                 0.9822                 0.8820
 IR Inten    --      0.3100                 1.7312                 8.7480

                     19                     20                     21
                      A                      A                      A
 Frequencies --    793.9424               797.1679               818.9988
 Red. masses --      1.9595                 1.2554                 1.4131
 Frc consts  --      0.7277                 0.4701                 0.5585
 IR Inten    --      1.2812                 0.0286                17.9186

                     22                     23                     24
                      A                      A                      A
 Frequencies --    850.0658               875.2050               901.6194
 Red. masses --      2.2478                 1.5136                 2.2448
 Frc consts  --      0.9570                 0.6831                 1.0751
 IR Inten    --      3.0168                 0.1243                 3.5670

                     25                     26                     27
                      A                      A                      A
 Frequencies --    913.1228               925.4577               944.5426
 Red. masses --      2.1471                 2.0771                 2.1585
 Frc consts  --      1.0548                 1.0481                 1.1346
 IR Inten    --      1.6264                 2.7329                 3.3561

                     28                     29                     30
                      A                      A                      A
 Frequencies --    968.7400               980.3474               992.1619
 Red. masses --      1.5207                 2.4697                 1.6578
 Frc consts  --      0.8408                 1.3985                 0.9615
 IR Inten    --      1.2024                 5.1603                 1.1395

                     31                     32                     33
                      A                      A                      A
 Frequencies --   1003.2276              1029.3017              1041.7368
 Red. masses --      2.7766                 2.2714                 2.5987
 Frc consts  --      1.6465                 1.4178                 1.6616
 IR Inten    --      2.4344                 8.8413                39.9937

                     34                     35                     36
                      A                      A                      A
 Frequencies --   1053.8351              1070.8982              1089.5707
 Red. masses --      1.7637                 1.3916                 2.4791
 Frc consts  --      1.1540                 0.9403                 1.7340
 IR Inten    --      1.6508                 4.7992                65.7577

                     37                     38                     39
                      A                      A                      A
 Frequencies --   1103.1959              1106.6858              1112.8555
 Red. masses --      1.6230                 1.6827                 1.2136
 Frc consts  --      1.1638                 1.2143                 0.8855
 IR Inten    --      0.8619                 1.6910                 0.6752

                     40                     41                     42
                      A                      A                      A
 Frequencies --   1135.2013              1167.5754              1212.0053
 Red. masses --      1.9096                 1.8327                 1.3217
 Frc consts  --      1.4499                 1.4720                 1.1439
 IR Inten    --      4.5800                 2.0617                 4.3954

                     43                     44                     45
                      A                      A                      A
 Frequencies --   1220.2976              1232.6351              1239.6377
 Red. masses --      1.5203                 1.2658                 1.3608
 Frc consts  --      1.3338                 1.1331                 1.2320
 IR Inten    --      0.5682                 0.5678                 2.5826

                     46                     47                     48
                      A                      A                      A
 Frequencies --   1248.0777              1266.1739              1269.7445
 Red. masses --      1.2465                 1.3614                 1.3321
 Frc consts  --      1.1440                 1.2860                 1.2653
 IR Inten    --      2.6642                 1.9108                 0.0974

                     49                     50                     51
                      A                      A                      A
 Frequencies --   1276.2008              1282.9602              1301.6692
 Red. masses --      1.1943                 1.4415                 1.4621
 Frc consts  --      1.1460                 1.3980                 1.4596
 IR Inten    --      0.6657                 7.1070                 5.1577

                     52                     53                     54
                      A                      A                      A
 Frequencies --   1308.2155              1325.9879              1334.2725
 Red. masses --      1.4897                 1.3020                 1.6105
 Frc consts  --      1.5021                 1.3488                 1.6893
 IR Inten    --      2.9193                 2.8643                 3.6731

                     55                     56                     57
                      A                      A                      A
 Frequencies --   1351.1990              1366.7284              1385.1260
 Red. masses --      1.5311                 1.4515                 1.5419
 Frc consts  --      1.6470                 1.5975                 1.7430
 IR Inten    --      2.3336                 4.5742                 1.6813

                     58                     59                     60
                      A                      A                      A
 Frequencies --   1405.9461              1427.8346              1441.0103
 Red. masses --      1.8157                 1.3488                 1.3381
 Frc consts  --      2.1146                 1.6201                 1.6371
 IR Inten    --      1.2919                26.5278                38.6395

                     61                     62                     63
                      A                      A                      A
 Frequencies --   1508.5947              1513.0759              1515.9054
 Red. masses --      1.0900                 1.2398                 1.0844
 Frc consts  --      1.4616                 1.6723                 1.4682
 IR Inten    --      0.8867                 0.4467                 3.0788

                     64                     65                     66
                      A                      A                      A
 Frequencies --   1525.1853              1535.7862              1542.2368
 Red. masses --      1.0854                 1.1079                 1.1330
 Frc consts  --      1.4876                 1.5397                 1.5878
 IR Inten    --      7.0169                 7.6675                 1.0227

                     67                     68                     69
                      A                      A                      A
 Frequencies --   3036.9431              3044.1259              3049.8584
 Red. masses --      1.0817                 1.0659                 1.0694
 Frc consts  --      5.8779                 5.8197                 5.8607
 IR Inten    --      6.4881                19.4848                32.2442

                     70                     71                     72
                      A                      A                      A
 Frequencies --   3050.8672              3064.7147              3068.2122
 Red. masses --      1.0817                 1.0633                 1.0585
 Frc consts  --      5.9318                 5.8840                 5.8713
 IR Inten    --     52.6287                52.2438                47.6854

                     73                     74                     75
                      A                      A                      A
 Frequencies --   3069.6100              3073.6303              3081.2048
 Red. masses --      1.0941                 1.0633                 1.0912
 Frc consts  --      6.0742                 5.9184                 6.1040
 IR Inten    --     18.4395                29.0094                58.6718

                     76                     77                     78
                      A                      A                      A
 Frequencies --   3102.0621              3111.2306              3124.1680
 Red. masses --      1.0964                 1.1061                 1.1050
 Frc consts  --      6.2161                 6.3083                 6.3546
 IR Inten    --     24.3766                12.0212                32.3827

                     79                     80                     81
                      A                      A                      A
 Frequencies --   3125.5174              3133.5956              3172.3024
 Red. masses --      1.0566                 1.1059                 1.0897
 Frc consts  --      6.0815                 6.3984                 6.4611
 IR Inten    --     23.3424                70.7958                15.6258

                     82                     83                     84
                      A                      A                      A
 Frequencies --   3183.5456              3211.2146              3731.8650
 Red. masses --      1.0941                 1.1140                 1.0655
 Frc consts  --      6.5332                 6.7681                 8.7431
 IR Inten    --     15.5118                24.1490                 5.4185

 - Thermochemistry -
 -------------------
 Temperature   298.150 Kelvin.  Pressure   1.00000 Atm.
 Atom     1 has atomic number  6 and mass  12.00000

 Molecular mass:   166.13577 amu.
 Principal axes and moments of inertia in atomic units:
                           1         2         3
     Eigenvalues --  1197.646012635.543463220.48433
           X            0.99987   0.01595   0.00187
           Y           -0.01593   0.99983  -0.00876
           Z           -0.00201   0.00873   0.99996
 This molecule is an asymmetric top.
 Rotational symmetry number  1.
 Warning -- assumption of classical behavior for rotation
           may cause significant error
 Rotational temperatures (Kelvin)      0.07232     0.03286     0.02689
 Rotational constants (GHZ):           1.50691     0.68477     0.56039
 Zero-point vibrational energy     716012.6 (Joules/Mol)
                                  171.13111 (Kcal/Mol)
 Warning -- explicit consideration of  14 degrees of freedom as
           vibrations may cause significant error
 Vibrational temperatures:     81.98   106.30   155.51   191.52   239.23
          (Kelvin)            298.12   333.82   374.87   449.48   500.85
                              524.59   631.65   710.24   751.81   931.35
                              978.95  1063.96  1116.05  1142.31  1146.95
                             1178.36  1223.06  1259.22  1297.23  1313.78
                             1331.53  1358.99  1393.80  1410.50  1427.50
                             1443.42  1480.94  1498.83  1516.23  1540.78
                             1567.65  1587.25  1592.27  1601.15  1633.30
                             1679.88  1743.81  1755.74  1773.49  1783.56
                             1795.71  1821.74  1826.88  1836.17  1845.89
                             1872.81  1882.23  1907.80  1919.72  1944.07
                             1966.42  1992.89  2022.84  2054.34  2073.29
                             2170.53  2176.98  2181.05  2194.40  2209.65
                             2218.93  4369.48  4379.82  4388.07  4389.52
                             4409.44  4414.47  4416.48  4422.27  4433.17
                             4463.18  4476.37  4494.98  4496.92  4508.55
                             4564.24  4580.41  4620.22  5369.32

 Zero-point correction=                           0.272715 (Hartree/Particle)
 Thermal correction to Energy=                    0.284171
 Thermal correction to Enthalpy=                  0.285115
 Thermal correction to Gibbs Free Energy=         0.235311
 Sum of electronic and zero-point Energies=           -504.939631
 Sum of electronic and thermal Energies=              -504.928175
 Sum of electronic and thermal Enthalpies=            -504.927231
 Sum of electronic and thermal Free Energies=         -504.977034

                     E (Thermal)             CV                S
                      KCal/Mol        Cal/Mol-Kelvin    Cal/Mol-Kelvin
 Total                  178.320             45.483            104.821
 Electronic               0.000              0.000              0.000
 Translational            0.889              2.981             41.231
 Rotational               0.889              2.981             30.698
 Vibrational            176.542             39.521             32.892
 Vibration     1          0.596              1.975              4.559
 Vibration     2          0.599              1.966              4.047
 Vibration     3          0.606              1.943              3.303
 Vibration     4          0.613              1.920              2.901
 Vibration     5          0.624              1.884              2.477
 Vibration     6          0.641              1.830              2.068
 Vibration     7          0.653              1.792              1.863
 Vibration     8          0.669              1.745              1.658
 Vibration     9          0.701              1.650              1.350
 Vibration    10          0.726              1.579              1.175
 Vibration    11          0.738              1.545              1.102
 Vibration    12          0.799              1.385              0.830
 Vibration    13          0.849              1.264              0.674
 Vibration    14          0.877              1.200              0.604

                           ! Non-Optimized Parameters !
 Normal termination of Gaussian 16 at Wed Dec  9 18:29:42 2020.

 ----------------------------------------------------------------------
 # B3LYP/6-311++G(d,p) empiricaldispersion=gd3bj scf=xqc pop=npa geom=c
 heck
 ----------------------------------------------------------------------

 ---------------------------------------
 CID_115837901_JID_2966_Energie_neutraal
 ---------------------------------------
 Structure from the checkpoint file:  "JID_2966.chk"
 Charge =  0 Multiplicity = 1

 SCF Done:  E(RB3LYP) =  -505.357333418     A.U. after   14 cycles
 Normal termination of Gaussian 16 at Wed Dec  9 18:33:38 2020.

 ----------------------------------------------------------------------
 # B3LYP/6-311++G(d,p) empiricaldispersion=gd3bj scf=xqc pop=npa geom=c
 heck
 ----------------------------------------------------------------------

 -------------------------------------
 CID_115837901_JID_2966_Energie_kation
 -------------------------------------
 Structure from the checkpoint file:  "JID_2966.chk"
 Charge =  1 Multiplicity = 2

 SCF Done:  E(UB3LYP) =  -505.029579021     A.U. after   23 cycles
 Normal termination of Gaussian 16 at Wed Dec  9 18:42:20 2020.
 Gaussian 16:  ES64L-G16RevA.03 25-Dec-2016

 ----------------------------------------------------------------------
 # B3LYP/6-311++G(d,p) empiricaldispersion=gd3bj scf=xqc pop=npa geom=c
 heck
 ----------------------------------------------------------------------

 ------------------------------------
 CID_115837901_JID_2966_Energie_anion
 ------------------------------------
 Structure from the checkpoint file:  "JID_2966.chk"
 Charge = -1 Multiplicity = 2

                         Standard orientation:
 ---------------------------------------------------------------------
 Center     Atomic      Atomic             Coordinates (Angstroms)
 Number     Number       Type             X           Y           Z
 ---------------------------------------------------------------------
      1          6           0       -2.923730   -1.538599   -0.230213
      2          6           0       -2.882929    0.001320   -0.404503
      3          6           0       -1.339020   -0.058806   -0.249824
      4          6           0       -1.511689   -1.460321    0.403840
      5          6           0       -0.681650    1.089112    0.511817
      6          6           0        0.859662    1.066412    0.589948
      7          6           0        1.403179   -0.174345    1.353926
      8          6           0        1.901459   -1.153367    0.292244
      9          6           0        3.237388   -0.860216   -0.341563
     10          6           0        1.970901   -0.425440   -1.034606
     11          6           0        1.529727    1.020537   -0.813375
     12          8           0       -1.130842    2.343469   -0.016458
     13          1           0       -2.904249   -2.057459   -1.194581
     14          1           0       -3.730337   -1.962155    0.375914
     15          1           0       -3.288051    0.428617   -1.326566
     16          1           0       -3.337154    0.521801    0.445271
     17          1           0       -0.872591   -0.172008   -1.237346
     18          1           0       -1.569519   -1.383083    1.495528
     19          1           0       -0.786504   -2.236047    0.145320
     20          1           0       -1.068455    1.082438    1.539330
     21          1           0        1.131924    1.991222    1.109736
     22          1           0        2.215507    0.116681    2.031049
     23          1           0        0.626956   -0.627872    1.978220
     24          1           0        1.578577   -2.188873    0.343876
     25          1           0        3.792406   -1.692061   -0.767375
     26          1           0        3.863095   -0.091664    0.110152
     27          1           0        1.692663   -0.922542   -1.959974
     28          1           0        0.843713    1.345840   -1.605410
     29          1           0        2.384333    1.706039   -0.857431
     30          1           0       -0.905373    2.355662   -0.960199
 ---------------------------------------------------------------------

 SCF Done:  E(UB3LYP) =  -505.341181993     A.U. after   31 cycles

 The electronic state is 2-A.
 Alpha  occ. eigenvalues --  -19.01649 -10.11460 -10.06978 -10.06779 -10.06731
 Alpha  occ. eigenvalues --  -10.06655 -10.06617 -10.06405 -10.06352 -10.06344
 Alpha  occ. eigenvalues --  -10.06250 -10.06087  -0.91871  -0.77583  -0.74356
 Alpha  occ. eigenvalues --   -0.67744  -0.60797  -0.59723  -0.55529  -0.53548
 Alpha  occ. eigenvalues --   -0.49008  -0.45698  -0.45374  -0.44356  -0.40980
 Alpha  occ. eigenvalues --   -0.39801  -0.37969  -0.35334  -0.34576  -0.33472
 Alpha  occ. eigenvalues --   -0.31094  -0.30384  -0.29754  -0.28415  -0.26146
 Alpha  occ. eigenvalues --   -0.25737  -0.24843  -0.23849  -0.23336  -0.22712
 Alpha  occ. eigenvalues --   -0.20938  -0.20612  -0.20114  -0.17925  -0.17367
 Alpha  occ. eigenvalues --   -0.15754   0.04732
 Alpha virt. eigenvalues --    0.07126   0.07209   0.07581   0.09050   0.09224
 Alpha virt. eigenvalues --    0.09518   0.09992   0.10556   0.11288   0.11966
 Alpha virt. eigenvalues --    0.12183   0.12679   0.13332   0.13986   0.14628

  Beta  occ. eigenvalues --  -19.01628 -10.11455 -10.06976 -10.06767 -10.06719
  Beta  occ. eigenvalues --  -10.06638 -10.06611 -10.06391 -10.06334 -10.06317
  Beta  occ. eigenvalues --  -10.06228 -10.06071  -0.91825  -0.77549  -0.74330
  Beta  occ. eigenvalues --   -0.67720  -0.60756  -0.59690  -0.55487  -0.53507
  Beta  occ. eigenvalues --   -0.48954  -0.45660  -0.45321  -0.44304  -0.40915
  Beta  occ. eigenvalues --   -0.39762  -0.37914  -0.35301  -0.34537  -0.33435
  Beta  occ. eigenvalues --   -0.31062  -0.30353  -0.29722  -0.28393  -0.26119
  Beta  occ. eigenvalues --   -0.25703  -0.24806  -0.23818  -0.23308  -0.22685
  Beta  occ. eigenvalues --   -0.20903  -0.20586  -0.20082  -0.17894  -0.17342
  Beta  occ. eigenvalues --   -0.15731
  Beta virt. eigenvalues --    0.06956   0.07671   0.07990   0.08363   0.09424
  Beta virt. eigenvalues --    0.09625   0.09957   0.10566   0.11051   0.11679
  Beta virt. eigenvalues --    0.12410   0.12494   0.12963   0.13776   0.14293

 Mulliken charges and spin densities:
               1          2
     1  C   -0.002688  -0.424416
     2  C    0.528147  -0.926225
     3  C   -1.265745   1.886942
     4  C    0.317440  -0.741997
     5  C    0.511944  -1.642832
     6  C   -0.698027   1.320986
     7  C    0.555898  -1.180610
     8  C   -0.386390   0.546446
     9  C    1.240574  -1.883571
    10  C   -0.752401   0.748378
    11  C    1.372787  -1.990735
    12  O   -0.174371   0.040318
    13  H   -0.196233   0.338939
    14  H   -0.074776   0.216843
    15  H   -0.262687   0.414185
    16  H    0.132006   0.008169
    17  H    0.045582   0.187283
    18  H   -0.078989   0.218205
    19  H    0.135128  -0.030808
    20  H    0.076253   0.104595
    21  H    0.283095  -0.062916
    22  H   -0.272120   0.446047
    23  H    0.164312  -0.067018
    24  H   -0.500889   0.744546
    25  H   -0.464497   0.613844
    26  H   -0.018933   0.133549
    27  H   -0.745705   0.987977
    28  H   -0.224497   0.332117
    29  H   -0.308504   0.473996
    30  H    0.064287   0.187766
 Sum of Mulliken charges =  -1.00000   1.00000

 Dipole moment (field-independent basis, Debye):
    X=             -1.5759    Y=              2.0677    Z=              4.6580  Tot=              5.3344
 Quadrupole moment (field-independent basis, Debye-Ang):
   XX=           -132.5724   YY=           -122.6527   ZZ=           -115.0607
   XY=              7.4863   XZ=              0.7621   YZ=             -1.5198

 Summary of Natural Population Analysis:

                                       Natural Population
                Natural  -----------------------------------------------
    Atom  No    Charge         Core      Valence    Rydberg      Total
 -----------------------------------------------------------------------
      C    1   -0.19053      0.99965     2.18295    0.00793     3.19053
      C    2   -0.18167      0.99963     2.17250    0.00954     3.18167
      C    3   -0.12661      0.99957     2.11429    0.01274     3.12661
      C    4   -0.18476      0.99963     2.17675    0.00839     3.18476
      C    5    0.07268      0.99949     1.91383    0.01400     2.92732
      C    6   -0.11449      0.99958     2.10377    0.01114     3.11449
      C    7   -0.19307      0.99961     2.18496    0.00850     3.19307
      C    8   -0.11466      0.99959     2.10380    0.01127     3.11466
      C    9   -0.19232      0.99960     2.18302    0.00970     3.19232
      C   10   -0.11353      0.99958     2.10192    0.01203     3.11353
      C   11   -0.19399      0.99961     2.18411    0.01027     3.19399
      O   12   -0.37338      0.99990     3.36713    0.00636     4.37338
      H   13    0.09754      0.00000     0.40095    0.00151     0.40246
      H   14    0.09209      0.00000     0.40703    0.00088     0.40791
      H   15    0.09855      0.00000     0.40035    0.00110     0.40145
      H   16    0.09507      0.00000     0.40383    0.00109     0.40493
      H   17    0.10217      0.00000     0.39471    0.00311     0.39783
      H   18    0.09218      0.00000     0.40655    0.00127     0.40782
      H   19    0.10178      0.00000     0.39695    0.00127     0.39822
      H   20    0.08319      0.00000     0.41495    0.00186     0.41681
      H   21    0.09964      0.00000     0.39898    0.00138     0.40036
      H   22    0.09756      0.00000     0.40129    0.00115     0.40244
      H   23    0.10255      0.00000     0.39625    0.00119     0.39745
      H   24    0.10664      0.00000     0.39162    0.00175     0.39336
      H   25    0.10558      0.00000     0.39289    0.00153     0.39442
      H   26    0.09522      0.00000     0.40330    0.00147     0.40478
      H   27    0.10881      0.00000     0.38823    0.00296     0.39119
      H   28    0.10018      0.00000     0.39755    0.00227     0.39982
      H   29    0.09971      0.00000     0.39893    0.00137     0.40029
      H   30    0.22787      0.00000     0.26872    0.00341     0.27213
 =======================================================================
   * Total *    0.00000     11.99544    33.85211    0.15245    46.00000

 Normal termination of Gaussian 16 at Wed Dec  9 18:53:47 2020.
