 Gaussian 16, Revision A.03,

 -----------------------------------------------------------
 # opt freq B3LYP/6-31G(d) empiricaldispersion=gd3bj scf=xqc
 -----------------------------------------------------------

 -------------------------------
 CID_131316851_JID_3955_neutraal
 -------------------------------
 Symbolic Z-matrix:
 Charge =  0 Multiplicity = 1

 SCF Done:  E(RB3LYP) =  -592.871734196     A.U. after   15 cycles
 SCF Done:  E(RB3LYP) =  -592.876808210     A.U. after   12 cycles
 SCF Done:  E(RB3LYP) =  -592.877564050     A.U. after   12 cycles
 SCF Done:  E(RB3LYP) =  -592.877700362     A.U. after   11 cycles
 SCF Done:  E(RB3LYP) =  -592.877783601     A.U. after   11 cycles
 SCF Done:  E(RB3LYP) =  -592.877844317     A.U. after   10 cycles
 SCF Done:  E(RB3LYP) =  -592.877959516     A.U. after   11 cycles
 SCF Done:  E(RB3LYP) =  -592.878142794     A.U. after   11 cycles
 SCF Done:  E(RB3LYP) =  -592.878625624     A.U. after   11 cycles
 SCF Done:  E(RB3LYP) =  -592.878907231     A.U. after   11 cycles
 SCF Done:  E(RB3LYP) =  -592.879159109     A.U. after   11 cycles
 SCF Done:  E(RB3LYP) =  -592.879109924     A.U. after   10 cycles
 SCF Done:  E(RB3LYP) =  -592.879171869     A.U. after   10 cycles
 SCF Done:  E(RB3LYP) =  -592.879171893     A.U. after    8 cycles
 SCF Done:  E(RB3LYP) =  -592.879172240     A.U. after    8 cycles
 SCF Done:  E(RB3LYP) =  -592.879172291     A.U. after    7 cycles
 Optimization completed.
    -- Stationary point found.
 Normal termination of Gaussian 16 at Sun Dec 13 20:04:41 2020.

 --------------------------------------------------------------------
 #N Geom=AllCheck Guess=TCheck SCRF=Check GenChk RB3LYP/6-31G(d) Freq
 --------------------------------------------------------------------

 Structure from the checkpoint file:  "JID_3955.chk"
 -------------------------------
 CID_131316851_JID_3955_neutraal
 -------------------------------
 Charge =  0 Multiplicity = 1

 SCF Done:  E(RB3LYP) =  -592.879172291     A.U. after    1 cycles

  Exact polarizability: 149.051   5.845 104.314   4.617  -1.605  71.248
 Approx polarizability: 202.497   5.856 163.309  11.078  -4.959 111.005

                      1                      2                      3
                      A                      A                      A
 Frequencies --     59.4227                70.0096                80.9970
 Red. masses --      4.9000                 5.0164                 2.8711
 Frc consts  --      0.0102                 0.0145                 0.0111
 IR Inten    --      1.4929                 3.4235                 0.5391

                      4                      5                      6
                      A                      A                      A
 Frequencies --    124.6737               136.9449               191.3400
 Red. masses --      1.0956                 5.9655                 3.9571
 Frc consts  --      0.0100                 0.0659                 0.0854
 IR Inten    --      0.0675                11.3481                 3.5517

                      7                      8                      9
                      A                      A                      A
 Frequencies --    202.6745               260.3861               307.9584
 Red. masses --      2.8033                 3.5001                 3.8669
 Frc consts  --      0.0678                 0.1398                 0.2161
 IR Inten    --      1.0998                 1.3298                 0.1251

                     10                     11                     12
                      A                      A                      A
 Frequencies --    338.1130               370.3473               385.0651
 Red. masses --      3.3276                 2.7581                 1.4671
 Frc consts  --      0.2241                 0.2229                 0.1282
 IR Inten    --      4.4520                 3.8633                68.4009

                     13                     14                     15
                      A                      A                      A
 Frequencies --    405.3429               431.6711               466.3920
 Red. masses --      1.9050                 5.1520                 4.6840
 Frc consts  --      0.1844                 0.5656                 0.6003
 IR Inten    --     51.7273                 2.5424                 1.1033

                     16                     17                     18
                      A                      A                      A
 Frequencies --    507.9866               563.7616               634.5348
 Red. masses --      4.2723                 4.2616                 4.0225
 Frc consts  --      0.6496                 0.7980                 0.9542
 IR Inten    --      0.0088                 9.9822                 0.6363

                     19                     20                     21
                      A                      A                      A
 Frequencies --    687.7587               700.3511               725.5181
 Red. masses --      3.9749                 4.3699                 4.7369
 Frc consts  --      1.1078                 1.2629                 1.4691
 IR Inten    --      2.6699                 4.7792                 2.1464

                     22                     23                     24
                      A                      A                      A
 Frequencies --    778.9625               806.8488               820.3932
 Red. masses --      4.7465                 1.5557                 1.3628
 Frc consts  --      1.6969                 0.5967                 0.5404
 IR Inten    --      7.3154                 8.8755                12.7590

                     25                     26                     27
                      A                      A                      A
 Frequencies --    903.3768               933.3263               958.9383
 Red. masses --      2.2594                 4.8767                 4.2469
 Frc consts  --      1.0864                 2.5029                 2.3009
 IR Inten    --      5.3196                23.1802                19.9648

                     28                     29                     30
                      A                      A                      A
 Frequencies --    959.0807               998.3529              1000.8514
 Red. masses --      2.7848                 2.0388                 2.7019
 Frc consts  --      1.5092                 1.1973                 1.5946
 IR Inten    --      2.5802                 9.7233                35.0548

                     31                     32                     33
                      A                      A                      A
 Frequencies --   1028.3745              1079.4959              1085.7489
 Red. masses --      1.8006                 1.4645                 3.7713
 Frc consts  --      1.1219                 1.0055                 2.6194
 IR Inten    --     11.5567                 4.9915                17.5777

                     34                     35                     36
                      A                      A                      A
 Frequencies --   1104.2898              1127.0688              1170.8070
 Red. masses --      2.4754                 3.3074                 1.4372
 Frc consts  --      1.7785                 2.4754                 1.1607
 IR Inten    --     32.9596                28.7934                 0.5064

                     37                     38                     39
                      A                      A                      A
 Frequencies --   1210.7109              1238.7709              1260.3255
 Red. masses --      1.3975                 1.2688                 2.9632
 Frc consts  --      1.2070                 1.1472                 2.7732
 IR Inten    --     11.3507                10.7327                13.7250

                     40                     41                     42
                      A                      A                      A
 Frequencies --   1273.0359              1302.3360              1318.3111
 Red. masses --      1.3874                 1.6250                 1.3386
 Frc consts  --      1.3248                 1.6238                 1.3707
 IR Inten    --     36.0993                42.3750                 0.4635

                     43                     44                     45
                      A                      A                      A
 Frequencies --   1331.3489              1353.1028              1431.0222
 Red. masses --      1.6926                 1.6645                 2.1541
 Frc consts  --      1.7676                 1.7955                 2.5990
 IR Inten    --     13.4556                 2.0183                26.0107

                     46                     47                     48
                      A                      A                      A
 Frequencies --   1447.4365              1472.1909              1487.9184
 Red. masses --      1.5101                 3.3294                 1.1129
 Frc consts  --      1.8641                 4.2515                 1.4517
 IR Inten    --      7.4690                29.3536                12.9129

                     49                     50                     51
                      A                      A                      A
 Frequencies --   1501.6966              1503.2297              1521.4691
 Red. masses --      1.0430                 1.1041                 1.1918
 Frc consts  --      1.3857                 1.4699                 1.6255
 IR Inten    --      7.0793                 1.1740                 2.4828

                     52                     53                     54
                      A                      A                      A
 Frequencies --   1529.2720              1606.7045              1683.9638
 Red. masses --      1.1132                 6.1628                 7.9864
 Frc consts  --      1.5339                 9.3735                13.3435
 IR Inten    --      0.6324                32.0799                 2.4393

                     55                     56                     57
                      A                      A                      A
 Frequencies --   2364.0317              3046.9694              3055.3208
 Red. masses --     12.5904                 1.0380                 1.0611
 Frc consts  --     41.4567                 5.6781                 5.8363
 IR Inten    --     12.2960                34.6185                40.2771

                     58                     59                     60
                      A                      A                      A
 Frequencies --   3072.6024              3077.1104              3091.5823
 Red. masses --      1.0655                 1.0614                 1.0969
 Frc consts  --      5.9268                 5.9215                 6.1770
 IR Inten    --     16.3936                 3.0378                27.9928

                     61                     62                     63
                      A                      A                      A
 Frequencies --   3097.9649              3120.8890              3128.0561
 Red. masses --      1.1015                 1.1046                 1.1045
 Frc consts  --      6.2284                 6.3387                 6.3672
 IR Inten    --     15.1485                 1.6974                25.6582

                     64                     65                     66
                      A                      A                      A
 Frequencies --   3143.7044              3264.9727              3698.7112
 Red. masses --      1.0996                 1.0964                 1.0657
 Frc consts  --      6.4029                 6.8860                 8.5895
 IR Inten    --     10.4545                 6.8410                12.3036

 - Thermochemistry -
 -------------------
 Temperature   298.150 Kelvin.  Pressure   1.00000 Atm.
 Atom     1 has atomic number  6 and mass  12.00000

 Molecular mass:   177.07898 amu.
 Principal axes and moments of inertia in atomic units:
                           1         2         3
     Eigenvalues --  1049.620313546.462904150.00347
           X            0.99978   0.02094   0.00194
           Y           -0.02094   0.99978   0.00135
           Z           -0.00191  -0.00139   1.00000
 This molecule is an asymmetric top.
 Rotational symmetry number  1.
 Warning -- assumption of classical behavior for rotation
           may cause significant error
 Rotational temperatures (Kelvin)      0.08252     0.02442     0.02087
 Rotational constants (GHZ):           1.71942     0.50888     0.43488
 Zero-point vibrational energy     508663.7 (Joules/Mol)
                                  121.57354 (Kcal/Mol)
 Warning -- explicit consideration of  17 degrees of freedom as
           vibrations may cause significant error
 Vibrational temperatures:     85.50   100.73   116.54   179.38   197.03
          (Kelvin)            275.30   291.60   374.64   443.08   486.47
                              532.85   554.02   583.20   621.08   671.03
                              730.88   811.13   912.95   989.53  1007.65
                             1043.86  1120.75  1160.88  1180.36  1299.76
                             1342.85  1379.70  1379.90  1436.41  1440.00
                             1479.60  1553.15  1562.15  1588.83  1621.60
                             1684.53  1741.94  1782.32  1813.33  1831.61
                             1873.77  1896.76  1915.51  1946.81  2058.92
                             2082.54  2118.15  2140.78  2160.61  2162.81
                             2189.05  2200.28  2311.69  2422.85  3401.31
                             4383.91  4395.93  4420.79  4427.28  4448.10
                             4457.28  4490.26  4500.58  4523.09  4697.57
                             5321.62

 Zero-point correction=                           0.193740 (Hartree/Particle)
 Thermal correction to Energy=                    0.205858
 Thermal correction to Enthalpy=                  0.206803
 Thermal correction to Gibbs Free Energy=         0.155207
 Sum of electronic and zero-point Energies=           -592.685433
 Sum of electronic and thermal Energies=              -592.673314
 Sum of electronic and thermal Enthalpies=            -592.672370
 Sum of electronic and thermal Free Energies=         -592.723965

                     E (Thermal)             CV                S
                      KCal/Mol        Cal/Mol-Kelvin    Cal/Mol-Kelvin
 Total                  129.178             45.559            108.592
 Electronic               0.000              0.000              0.000
 Translational            0.889              2.981             41.421
 Rotational               0.889              2.981             31.114
 Vibrational            127.401             39.597             36.057
 Vibration     1          0.597              1.974              4.476
 Vibration     2          0.598              1.968              4.153
 Vibration     3          0.600              1.962              3.867
 Vibration     4          0.610              1.928              3.027
 Vibration     5          0.614              1.916              2.846
 Vibration     6          0.634              1.852              2.215
 Vibration     7          0.639              1.836              2.109
 Vibration     8          0.668              1.745              1.659
 Vibration     9          0.698              1.659              1.373
 Vibration    10          0.718              1.599              1.221
 Vibration    11          0.742              1.533              1.078
 Vibration    12          0.754              1.502              1.019
 Vibration    13          0.770              1.459              0.943
 Vibration    14          0.793              1.401              0.853
 Vibration    15          0.824              1.325              0.748
 Vibration    16          0.863              1.232              0.638
 Vibration    17          0.920              1.110              0.516

 Optimization completed.
    -- Stationary point found.
 Normal termination of Gaussian 16 at Sun Dec 13 20:10:30 2020.

 ----------------------------------------------------------------------
 # B3LYP/6-311++G(d,p) empiricaldispersion=gd3bj scf=xqc pop=npa geom=c
 heck
 ----------------------------------------------------------------------

 ---------------------------------------
 CID_131316851_JID_3955_Energie_neutraal
 ---------------------------------------
 Structure from the checkpoint file:  "JID_3955.chk"
 Charge =  0 Multiplicity = 1

 SCF Done:  E(RB3LYP) =  -593.049394967     A.U. after   14 cycles
 Normal termination of Gaussian 16 at Sun Dec 13 20:12:44 2020.

 ----------------------------------------------------------------------
 # B3LYP/6-311++G(d,p) empiricaldispersion=gd3bj scf=xqc pop=npa geom=c
 heck
 ----------------------------------------------------------------------

 -------------------------------------
 CID_131316851_JID_3955_Energie_kation
 -------------------------------------
 Structure from the checkpoint file:  "JID_3955.chk"
 Charge =  1 Multiplicity = 2

 SCF Done:  E(UB3LYP) =  -592.747507262     A.U. after   20 cycles
 Normal termination of Gaussian 16 at Sun Dec 13 20:17:11 2020.
 Gaussian 16:  ES64L-G16RevA.03 25-Dec-2016

 ----------------------------------------------------------------------
 # B3LYP/6-311++G(d,p) empiricaldispersion=gd3bj scf=xqc pop=npa geom=c
 heck
 ----------------------------------------------------------------------

 ------------------------------------
 CID_131316851_JID_3955_Energie_anion
 ------------------------------------
 Structure from the checkpoint file:  "JID_3955.chk"
 Charge = -1 Multiplicity = 2

                         Standard orientation:
 ---------------------------------------------------------------------
 Center     Atomic      Atomic             Coordinates (Angstroms)
 Number     Number       Type             X           Y           Z
 ---------------------------------------------------------------------
      1          6           0       -3.804272   -1.385539   -0.066523
      2          6           0       -2.640426   -0.460814   -0.065661
      3          6           0       -2.521896    0.899098   -0.195390
      4          6           0       -1.117436    1.180545   -0.128253
      5          6           0       -0.507350   -0.014776    0.039162
      6          8           0       -1.396766   -1.043336    0.085258
      7          6           0        0.967838    0.021002    0.220241
      8          6           0        1.241582    1.504504   -0.215101
      9          6           0       -0.107302    2.292879   -0.114128
     10          6           0        1.712535   -1.022745   -0.654101
     11          6           0        3.159464   -0.921215   -0.461105
     12          7           0        4.292929   -0.787764   -0.246923
     13          8           0        1.272084   -0.214105    1.595848
     14          1           0       -3.863363   -1.954523    0.869097
     15          1           0       -3.743662   -2.108923   -0.888936
     16          1           0       -4.729388   -0.814233   -0.180200
     17          1           0       -3.344746    1.588422   -0.325644
     18          1           0        2.032733    1.938836    0.402351
     19          1           0        1.590429    1.517781   -1.253033
     20          1           0       -0.164364    2.872378    0.815425
     21          1           0       -0.214637    3.002681   -0.941665
     22          1           0        1.381325   -2.025267   -0.362825
     23          1           0        1.471542   -0.880545   -1.712638
     24          1           0        2.234667   -0.120361    1.702832
 ---------------------------------------------------------------------

 SCF Done:  E(UB3LYP) =  -593.037469576     A.U. after   32 cycles

 The electronic state is 2-A.
 Alpha  occ. eigenvalues --  -19.08821 -19.03818 -14.22922 -10.16462 -10.13208
 Alpha  occ. eigenvalues --  -10.12924 -10.12392 -10.11210 -10.08686 -10.08629
 Alpha  occ. eigenvalues --  -10.07514 -10.07393 -10.07054  -1.01079  -0.94511
 Alpha  occ. eigenvalues --   -0.82628  -0.75748  -0.70885  -0.68454  -0.65108
 Alpha  occ. eigenvalues --   -0.60533  -0.57309  -0.50855  -0.49600  -0.44047
 Alpha  occ. eigenvalues --   -0.43537  -0.41223  -0.40637  -0.37477  -0.37075
 Alpha  occ. eigenvalues --   -0.35787  -0.33599  -0.32833  -0.30821  -0.30339
 Alpha  occ. eigenvalues --   -0.30111  -0.29202  -0.28510  -0.27984  -0.26544
 Alpha  occ. eigenvalues --   -0.25789  -0.25624  -0.24496  -0.23937  -0.19531
 Alpha  occ. eigenvalues --   -0.17530  -0.12191   0.04364
 Alpha virt. eigenvalues --    0.06502   0.07328   0.08040   0.08767   0.08991
 Alpha virt. eigenvalues --    0.09533   0.10004   0.10291   0.11040   0.11447
 Alpha virt. eigenvalues --    0.11938   0.12144   0.12756   0.13258   0.14539

  Beta  occ. eigenvalues --  -19.08806 -19.03795 -14.22903 -10.16461 -10.13201
  Beta  occ. eigenvalues --  -10.12924 -10.12352 -10.11203 -10.08666 -10.08606
  Beta  occ. eigenvalues --  -10.07464 -10.07393 -10.07036  -1.01059  -0.94461
  Beta  occ. eigenvalues --   -0.82595  -0.75719  -0.70847  -0.68403  -0.65066
  Beta  occ. eigenvalues --   -0.60477  -0.57251  -0.50801  -0.49560  -0.44004
  Beta  occ. eigenvalues --   -0.43503  -0.41178  -0.40566  -0.37425  -0.37040
  Beta  occ. eigenvalues --   -0.35743  -0.33555  -0.32788  -0.30775  -0.30302
  Beta  occ. eigenvalues --   -0.30068  -0.29154  -0.28478  -0.27954  -0.26514
  Beta  occ. eigenvalues --   -0.25745  -0.25576  -0.24469  -0.23897  -0.19499
  Beta  occ. eigenvalues --   -0.17507  -0.12147
  Beta virt. eigenvalues --    0.06737   0.07504   0.07877   0.08631   0.08911
  Beta virt. eigenvalues --    0.09545   0.09968   0.10319   0.10799   0.11384
  Beta virt. eigenvalues --    0.11741   0.12129   0.12429   0.12908   0.13657

 Mulliken charges and spin densities:
               1          2
     1  C    3.169235  -3.650641
     2  C   -1.769648   1.799758
     3  C   -0.292211   0.280052
     4  C    0.028469   0.553289
     5  C   -0.232063   0.190572
     6  O   -0.083858   0.054471
     7  C   -0.261658   0.133956
     8  C    0.901232  -1.321025
     9  C   -0.241232  -0.593871
    10  C    0.542973  -0.500897
    11  C    0.359173  -0.661413
    12  N   -0.306361   0.006177
    13  O   -0.149651   0.017952
    14  H   -0.149421   0.303488
    15  H   -0.416420   0.580819
    16  H   -0.594891   0.773984
    17  H   -0.829612   1.000936
    18  H    0.134541   0.015977
    19  H   -0.154090   0.335200
    20  H    0.026248   0.124246
    21  H   -0.218581   0.390115
    22  H    0.062803   0.160615
    23  H   -0.657297   0.887593
    24  H    0.132320   0.118647
 Sum of Mulliken charges =  -1.00000   1.00000

 Dipole moment (field-independent basis, Debye):
    X=              3.7317    Y=              1.2438    Z=              3.0393  Tot=              4.9709
 Quadrupole moment (field-independent basis, Debye-Ang):
   XX=           -164.0484   YY=           -109.5011   ZZ=           -111.7370
   XY=             -0.8119   XZ=             -0.8596   YZ=              1.1594

 Summary of Natural Population Analysis:

                                       Natural Population
                Natural  -----------------------------------------------
    Atom  No    Charge         Core      Valence    Rydberg      Total
 -----------------------------------------------------------------------
      C    1   -0.30714      0.99962     2.30165    0.00587     3.30714
      C    2    0.16447      0.99948     1.82150    0.01455     2.83553
      C    3   -0.14694      0.99945     2.13821    0.00928     3.14694
      C    4   -0.03979      0.99939     2.02951    0.01088     3.03979
      C    5    0.13497      0.99919     1.84870    0.01714     2.86503
      O    6   -0.23505      0.99985     3.22661    0.00859     4.23505
      C    7    0.11636      0.99946     1.86776    0.01642     2.88364
      C    8   -0.18454      0.99961     2.17581    0.00913     3.18454
      C    9   -0.19052      0.99961     2.18281    0.00811     3.19052
      C   10   -0.25469      0.99950     2.24520    0.00999     3.25469
      C   11    0.15991      0.99966     1.82327    0.01716     2.84009
      N   12   -0.18788      0.99979     2.67649    0.01160     3.68788
      O   13   -0.36914      0.99989     3.36281    0.00645     4.36914
      H   14    0.10699      0.00000     0.39175    0.00126     0.39301
      H   15    0.11062      0.00000     0.38721    0.00216     0.38938
      H   16    0.11165      0.00000     0.38614    0.00220     0.38835
      H   17    0.11138      0.00000     0.38716    0.00147     0.38862
      H   18    0.10096      0.00000     0.39791    0.00113     0.39904
      H   19    0.10395      0.00000     0.39390    0.00216     0.39605
      H   20    0.10161      0.00000     0.39722    0.00117     0.39839
      H   21    0.10449      0.00000     0.39408    0.00143     0.39551
      H   22    0.12793      0.00000     0.37043    0.00164     0.37207
      H   23    0.13134      0.00000     0.36489    0.00377     0.36866
      H   24    0.22905      0.00000     0.26826    0.00269     0.27095
 =======================================================================
   * Total *   -0.00000     12.99449    33.83928    0.16623    47.00000

 Normal termination of Gaussian 16 at Sun Dec 13 20:24:21 2020.
