 Gaussian 16, Revision A.03,

 -----------------------------------------------------------
 # opt freq B3LYP/6-31G(d) empiricaldispersion=gd3bj scf=xqc
 -----------------------------------------------------------

 -------------------------------
 CID_134887207_JID_3981_neutraal
 -------------------------------
 Symbolic Z-matrix:
 Charge =  0 Multiplicity = 1

 SCF Done:  E(RB3LYP) =  -654.655268646     A.U. after   13 cycles
 SCF Done:  E(RB3LYP) =  -654.661128137     A.U. after   12 cycles
 SCF Done:  E(RB3LYP) =  -654.661794647     A.U. after   12 cycles
 SCF Done:  E(RB3LYP) =  -654.662932052     A.U. after   11 cycles
 SCF Done:  E(RB3LYP) =  -654.663599503     A.U. after   11 cycles
 SCF Done:  E(RB3LYP) =  -654.663965888     A.U. after   11 cycles
 SCF Done:  E(RB3LYP) =  -654.664052970     A.U. after   11 cycles
 SCF Done:  E(RB3LYP) =  -654.664094889     A.U. after   11 cycles
 SCF Done:  E(RB3LYP) =  -654.664134820     A.U. after   10 cycles
 SCF Done:  E(RB3LYP) =  -654.664146428     A.U. after   10 cycles
 SCF Done:  E(RB3LYP) =  -654.664168118     A.U. after   10 cycles
 SCF Done:  E(RB3LYP) =  -654.664169113     A.U. after    8 cycles
 SCF Done:  E(RB3LYP) =  -654.664169340     A.U. after    7 cycles
 SCF Done:  E(RB3LYP) =  -654.664169387     A.U. after    6 cycles
 SCF Done:  E(RB3LYP) =  -654.664169424     A.U. after    6 cycles
 Optimization completed.
    -- Stationary point found.

 1\1\GINC-NODE212\FOpt\RB3LYP\6-31G(d)\C9H18O4\VSC10255\14-Dec-2020\0\\
 # opt freq B3LYP/6-31G(d) empiricaldispersion=gd3bj scf=xqc\\CID_13488
 7207_JID_3981_neutraal\\0,1\C,0.3757918301,-0.3572554736,-0.4356560162
 \C,-0.5896807133,-1.3461222981,0.2166015801\C,0.1531611679,-2.49789333
 61,0.8621631384\C,-0.3091749534,-3.7487258466,0.9690001136\C,-1.650854
 8421,-4.2263413241,0.4877731045\O,-1.5507483821,-5.1212591562,-0.63535
 93025\C,-1.0179046821,-4.5257585751,-1.7894443193\O,-1.7848238493,-3.4
 55728294,-2.2849955132\C,-3.0857034195,-3.8425367788,-2.7065533799\O,-

 Normal termination of Gaussian 16 at Mon Dec 14 16:34:55 2020.

 --------------------------------------------------------------------
 #N Geom=AllCheck Guess=TCheck SCRF=Check GenChk RB3LYP/6-31G(d) Freq
 --------------------------------------------------------------------

 Structure from the checkpoint file:  "JID_3981.chk"
 -------------------------------
 CID_134887207_JID_3981_neutraal
 -------------------------------
 Charge =  0 Multiplicity = 1

 SCF Done:  E(RB3LYP) =  -654.664169424     A.U. after    1 cycles

  Exact polarizability: 124.760  -4.145 109.436   0.460  -1.021  94.038
 Approx polarizability: 154.903 -14.067 154.285  -2.974  -0.277 136.638

                      1                      2                      3
                      A                      A                      A
 Frequencies --     15.3871                31.6506                44.5606
 Red. masses --      4.0367                 3.3183                 4.2884
 Frc consts  --      0.0006                 0.0020                 0.0050
 IR Inten    --      0.1370                 0.2515                 0.1318

                      4                      5                      6
                      A                      A                      A
 Frequencies --     49.1199                88.7401               110.3775
 Red. masses --      4.0070                 3.3809                 2.5070
 Frc consts  --      0.0057                 0.0157                 0.0180
 IR Inten    --      0.2711                 0.3314                 2.1317

                      7                      8                      9
                      A                      A                      A
 Frequencies --    133.2739               139.6394               167.0780
 Red. masses --      1.3030                 1.3598                 2.3671
 Frc consts  --      0.0136                 0.0156                 0.0389
 IR Inten    --      0.6128                 1.9177                 4.0560

                     10                     11                     12
                      A                      A                      A
 Frequencies --    196.2388               210.9118               241.5452
 Red. masses --      2.5742                 2.7786                 2.8768
 Frc consts  --      0.0584                 0.0728                 0.0989
 IR Inten    --      1.9539                 6.6656                10.6247

                     13                     14                     15
                      A                      A                      A
 Frequencies --    254.1280               285.8176               303.5087
 Red. masses --      2.3072                 1.4907                 2.7172
 Frc consts  --      0.0878                 0.0718                 0.1475
 IR Inten    --     13.2163                 2.2372                 1.5213

                     16                     17                     18
                      A                      A                      A
 Frequencies --    343.7550               401.6942               430.5397
 Red. masses --      3.0227                 2.6207                 2.3443
 Frc consts  --      0.2104                 0.2492                 0.2560
 IR Inten    --      4.9059                 5.1038                 5.3470

                     19                     20                     21
                      A                      A                      A
 Frequencies --    445.2766               502.2839               561.5609
 Red. masses --      2.1396                 2.2570                 2.9853
 Frc consts  --      0.2499                 0.3355                 0.5547
 IR Inten    --     11.0356                 4.4210                19.9544

                     22                     23                     24
                      A                      A                      A
 Frequencies --    604.1879               623.5830               650.0739
 Red. masses --      3.8056                 4.1913                 4.4155
 Frc consts  --      0.8185                 0.9603                 1.0994
 IR Inten    --      2.4249                 8.7788                 9.6491

                     25                     26                     27
                      A                      A                      A
 Frequencies --    774.0642               832.1609               905.0385
 Red. masses --      1.8433                 2.1856                 2.1308
 Frc consts  --      0.6507                 0.8917                 1.0283
 IR Inten    --     10.4619                13.3524                 9.0757

                     28                     29                     30
                      A                      A                      A
 Frequencies --    930.9403               948.4947               949.8370
 Red. masses --      4.3960                 4.2991                 3.9291
 Frc consts  --      2.2447                 2.2788                 2.0885
 IR Inten    --      6.0383                30.1488                48.9463

                     31                     32                     33
                      A                      A                      A
 Frequencies --    987.1794              1008.4007              1037.5458
 Red. masses --      2.0169                 1.3331                 2.5073
 Frc consts  --      1.1581                 0.7987                 1.5903
 IR Inten    --     19.3898                 0.6066               103.6699

                     34                     35                     36
                      A                      A                      A
 Frequencies --   1052.8831              1080.2088              1087.4928
 Red. masses --      2.3240                 3.2311                 3.1437
 Frc consts  --      1.5179                 2.2214                 2.1905
 IR Inten    --     17.1054                18.5762               413.5391

                     37                     38                     39
                      A                      A                      A
 Frequencies --   1129.8991              1137.0587              1152.8984
 Red. masses --      2.8702                 3.1995                 2.3932
 Frc consts  --      2.1590                 2.4373                 1.8742
 IR Inten    --     20.7539               114.5955                64.4069

                     40                     41                     42
                      A                      A                      A
 Frequencies --   1168.4488              1187.6448              1190.9141
 Red. masses --      2.2411                 2.1756                 1.5424
 Frc consts  --      1.8027                 1.8080                 1.2889
 IR Inten    --     87.9517                78.1574                11.1395

                     43                     44                     45
                      A                      A                      A
 Frequencies --   1191.7168              1194.0419              1242.2425
 Red. masses --      1.4554                 1.8496                 1.5614
 Frc consts  --      1.2178                 1.5537                 1.4196
 IR Inten    --     27.2848                51.5573                13.0961

                     46                     47                     48
                      A                      A                      A
 Frequencies --   1247.0020              1278.2773              1314.5405
 Red. masses --      1.6269                 1.2572                 1.1649
 Frc consts  --      1.4906                 1.2104                 1.1860
 IR Inten    --      7.6502                 4.0760                 6.6361

                     49                     50                     51
                      A                      A                      A
 Frequencies --   1347.0329              1347.4909              1370.9938
 Red. masses --      1.1177                 1.1184                 1.2543
 Frc consts  --      1.1949                 1.1965                 1.3890
 IR Inten    --      1.6068                 3.2062                 5.7399

                     52                     53                     54
                      A                      A                      A
 Frequencies --   1404.3329              1417.1401              1434.9647
 Red. masses --      1.2230                 1.1779                 1.2563
 Frc consts  --      1.4211                 1.3937                 1.5242
 IR Inten    --      5.9247                 5.0631                17.6030

                     55                     56                     57
                      A                      A                      A
 Frequencies --   1450.0096              1452.4374              1460.1803
 Red. masses --      1.2129                 1.1555                 1.3603
 Frc consts  --      1.5025                 1.4362                 1.7088
 IR Inten    --      0.9925                29.5432                 6.2981

                     58                     59                     60
                      A                      A                      A
 Frequencies --   1498.6883              1499.7041              1513.3746
 Red. masses --      1.1550                 1.1496                 1.0531
 Frc consts  --      1.5285                 1.5234                 1.4210
 IR Inten    --      2.0973                 5.8874                 2.3812

                     61                     62                     63
                      A                      A                      A
 Frequencies --   1514.0884              1518.9869              1525.0965
 Red. masses --      1.0557                 1.0632                 1.0645
 Frc consts  --      1.4259                 1.4453                 1.4588
 IR Inten    --      0.3034                 1.9231                 3.7237

                     64                     65                     66
                      A                      A                      A
 Frequencies --   1528.5328              1535.8258              1537.1591
 Red. masses --      1.0837                 1.0491                 1.0869
 Frc consts  --      1.4918                 1.4579                 1.5131
 IR Inten    --      6.7504                 4.0168                 2.5628

                     67                     68                     69
                      A                      A                      A
 Frequencies --   1541.5442              1545.1803              1731.5922
 Red. masses --      1.0695                 1.0767                 6.5222
 Frc consts  --      1.4974                 1.5146                11.5222
 IR Inten    --      5.4858                 0.4228                 1.4829

                     70                     71                     72
                      A                      A                      A
 Frequencies --   3014.3744              3016.1836              3029.7886
 Red. masses --      1.0453                 1.0427                 1.0608
 Frc consts  --      5.5958                 5.5888                 5.7372
 IR Inten    --     46.4504                58.5069               105.0628

                     73                     74                     75
                      A                      A                      A
 Frequencies --   3037.0378              3055.5020              3077.7130
 Red. masses --      1.0577                 1.0366                 1.0585
 Frc consts  --      5.7480                 5.7017                 5.9071
 IR Inten    --     82.1673                10.9705                23.5773

                     76                     77                     78
                      A                      A                      A
 Frequencies --   3088.4563              3096.0803              3096.5816
 Red. masses --      1.0948                 1.1009                 1.0916
 Frc consts  --      6.1530                 6.2179                 6.1671
 IR Inten    --     37.2174                40.2309                40.8472

                     79                     80                     81
                      A                      A                      A
 Frequencies --   3098.7222              3110.2018              3119.4390
 Red. masses --      1.1079                 1.0932                 1.1047
 Frc consts  --      6.2676                 6.2307                 6.3333
 IR Inten    --     36.1998                 4.3826                17.7818

                     82                     83                     84
                      A                      A                      A
 Frequencies --   3129.5145              3134.0540              3146.9608
 Red. masses --      1.0991                 1.1007                 1.1032
 Frc consts  --      6.3422                 6.3701                 6.4373
 IR Inten    --     16.5746                21.3869                28.8369

                     85                     86                     87
                      A                      A                      A
 Frequencies --   3151.0062              3153.7150              3177.1850
 Red. masses --      1.1017                 1.0854                 1.0951
 Frc consts  --      6.4451                 6.3604                 6.5134
 IR Inten    --     26.3407                11.1924                27.4820

 - Thermochemistry -
 -------------------
 Temperature   298.150 Kelvin.  Pressure   1.00000 Atm.
 Atom     1 has atomic number  6 and mass  12.00000

 Molecular mass:   190.12051 amu.
 Principal axes and moments of inertia in atomic units:
                           1         2         3
     Eigenvalues --  1397.537874364.940914893.23602
           X            0.99995   0.00873  -0.00451
           Y           -0.00856   0.99932   0.03578
           Z            0.00482  -0.03574   0.99935
 This molecule is an asymmetric top.
 Rotational symmetry number  1.
 Warning -- assumption of classical behavior for rotation
           may cause significant error
 Rotational temperatures (Kelvin)      0.06198     0.01984     0.01770
 Rotational constants (GHZ):           1.29137     0.41346     0.36882
 Zero-point vibrational energy     716388.1 (Joules/Mol)
                                  171.22086 (Kcal/Mol)
 Warning -- explicit consideration of  22 degrees of freedom as
           vibrations may cause significant error
 Vibrational temperatures:     22.14    45.54    64.11    70.67   127.68
          (Kelvin)            158.81   191.75   200.91   240.39   282.34
                              303.46   347.53   365.63   411.23   436.68
                              494.59   577.95   619.45   640.65   722.67
                              807.96   869.29   897.20   935.31  1113.71
                             1197.29  1302.15  1339.42  1364.67  1366.60
                             1420.33  1450.86  1492.80  1514.86  1554.18
                             1564.66  1625.67  1635.97  1658.76  1681.14
                             1708.76  1713.46  1714.61  1717.96  1787.31
                             1794.16  1839.16  1891.33  1938.08  1938.74
                             1972.55  2020.52  2038.95  2064.59  2086.24
                             2089.73  2100.87  2156.28  2157.74  2177.41
                             2178.44  2185.48  2194.27  2199.22  2209.71
                             2211.63  2217.94  2223.17  2491.37  4337.01
                             4339.62  4359.19  4369.62  4396.19  4428.14
                             4443.60  4454.57  4455.29  4458.37  4474.89
                             4488.18  4502.67  4509.20  4527.77  4533.60
                             4537.49  4571.26

 Zero-point correction=                           0.272858 (Hartree/Particle)
 Thermal correction to Energy=                    0.288445
 Thermal correction to Enthalpy=                  0.289389
 Thermal correction to Gibbs Free Energy=         0.227492
 Sum of electronic and zero-point Energies=           -654.391312
 Sum of electronic and thermal Energies=              -654.375725
 Sum of electronic and thermal Enthalpies=            -654.374781
 Sum of electronic and thermal Free Energies=         -654.436677

                     E (Thermal)             CV                S
                      KCal/Mol        Cal/Mol-Kelvin    Cal/Mol-Kelvin
 Total                  181.002             54.515            130.273
 Electronic               0.000              0.000              0.000
 Translational            0.889              2.981             41.633
 Rotational               0.889              2.981             31.768
 Vibrational            179.224             48.553             56.872
 Vibration     1          0.593              1.986              7.155
 Vibration     2          0.594              1.983              5.723
 Vibration     3          0.595              1.980              5.045
 Vibration     4          0.595              1.978              4.853
 Vibration     5          0.602              1.957              3.688
 Vibration     6          0.606              1.941              3.262
 Vibration     7          0.613              1.920              2.898
 Vibration     8          0.615              1.914              2.809
 Vibration     9          0.624              1.883              2.468
 Vibration    10          0.636              1.845              2.168
 Vibration    11          0.643              1.824              2.036
 Vibration    12          0.658              1.777              1.791
 Vibration    13          0.665              1.756              1.702
 Vibration    14          0.684              1.700              1.499
 Vibration    15          0.695              1.667              1.397
 Vibration    16          0.723              1.588              1.195
 Vibration    17          0.767              1.466              0.956
 Vibration    18          0.792              1.404              0.857
 Vibration    19          0.805              1.371              0.810
 Vibration    20          0.858              1.245              0.652
 Vibration    21          0.917              1.114              0.521
 Vibration    22          0.963              1.023              0.443

                           ! Non-Optimized Parameters !

 1\1\GINC-NODE212\Freq\RB3LYP\6-31G(d)\C9H18O4\VSC10255\14-Dec-2020\0\\
 #N Geom=AllCheck Guess=TCheck SCRF=Check GenChk RB3LYP/6-31G(d) Freq\\
 CID_134887207_JID_3981_neutraal\\0,1\C,0.3757918301,-0.3572554736,-0.4
 356560162\C,-0.5896807133,-1.3461222981,0.2166015801\C,0.1531611679,-2
 .4978933361,0.8621631384\C,-0.3091749534,-3.7487258466,0.9690001136\C,
 -1.6508548421,-4.2263413241,0.4877731045\O,-1.5507483821,-5.1212591562
 ,-0.6353593025\C,-1.0179046821,-4.5257585751,-1.7894443193\O,-1.784823
 8493,-3.455728294,-2.2849955132\C,-3.0857034195,-3.8425367788,-2.70655

 Normal termination of Gaussian 16 at Mon Dec 14 16:42:50 2020.

 ----------------------------------------------------------------------
 # B3LYP/6-311++G(d,p) empiricaldispersion=gd3bj scf=xqc pop=npa geom=c
 heck
 ----------------------------------------------------------------------

 ---------------------------------------
 CID_134887207_JID_3981_Energie_neutraal
 ---------------------------------------
 Structure from the checkpoint file:  "JID_3981.chk"
 Charge =  0 Multiplicity = 1

 SCF Done:  E(RB3LYP) =  -654.862175282     A.U. after   13 cycles
 Normal termination of Gaussian 16 at Mon Dec 14 16:46:17 2020.

 ----------------------------------------------------------------------
 # B3LYP/6-311++G(d,p) empiricaldispersion=gd3bj scf=xqc pop=npa geom=c
 heck
 ----------------------------------------------------------------------

 -------------------------------------
 CID_134887207_JID_3981_Energie_kation
 -------------------------------------
 Structure from the checkpoint file:  "JID_3981.chk"
 Charge =  1 Multiplicity = 2

 SCF Done:  E(UB3LYP) =  -654.531076347     A.U. after   27 cycles
 Normal termination of Gaussian 16 at Mon Dec 14 16:56:26 2020.
 Gaussian 16:  ES64L-G16RevA.03 25-Dec-2016

 ------------------------------------
 CID_134887207_JID_3981_Energie_anion
 ------------------------------------
 Structure from the checkpoint file:  "JID_3981.chk"
 Charge = -1 Multiplicity = 2

                         Standard orientation:
 ---------------------------------------------------------------------
 Center     Atomic      Atomic             Coordinates (Angstroms)
 Number     Number       Type             X           Y           Z
 ---------------------------------------------------------------------
      1          6           0       -1.006007    2.210591    1.044844
      2          6           0       -0.664929    0.962198    0.232062
      3          6           0       -0.611214   -0.270534    1.111054
      4          6           0        0.186293   -1.325565    0.909450
      5          6           0        1.151716   -1.483150   -0.232008
      6          8           0        2.526137   -1.428762    0.192650
      7          6           0        2.904947   -0.188860    0.730795
      8          8           0        2.794277    0.882986   -0.173417
      9          6           0        3.649386    0.758994   -1.301705
     10          8           0       -1.528776    0.780155   -0.915686
     11          6           0       -2.910089    0.761285   -0.677302
     12          8           0       -3.363967   -0.333725    0.075987
     13          6           0       -3.211927   -1.578676   -0.590165
     14          1           0       -1.926822    2.091084    1.625912
     15          1           0       -1.112614    3.079210    0.387100
     16          1           0       -0.193666    2.412586    1.751073
     17          1           0        0.313548    1.116716   -0.227293
     18          1           0       -1.292787   -0.281714    1.959808
     19          1           0        0.167434   -2.147592    1.624260
     20          1           0        1.048191   -2.476215   -0.679903
     21          1           0        0.967558   -0.741183   -1.014313
     22          1           0        2.272991    0.093856    1.579961
     23          1           0        3.946707   -0.327639    1.050576
     24          1           0        4.702992    0.692951   -0.990919
     25          1           0        3.405016   -0.126610   -1.899705
     26          1           0        3.507413    1.658553   -1.904501
     27          1           0       -3.242982    1.644670   -0.121931
     28          1           0       -3.360674    0.758368   -1.680000
     29          1           0       -3.717597   -1.566163   -1.567683
     30          1           0       -2.155726   -1.829509   -0.736395
     31          1           0       -3.679412   -2.334301    0.045520
 ---------------------------------------------------------------------

 SCF Done:  E(UB3LYP) =  -654.844463217     A.U. after   33 cycles
 SCF Done:  E(UB3LYP) =  -654.844463217     a.u. after    1 cycles

 The electronic state is 2-A.
 Alpha  occ. eigenvalues --  -19.03879 -19.03713 -19.03589 -19.03348 -10.16630
 Alpha  occ. eigenvalues --  -10.16579 -10.12964 -10.12248 -10.11548 -10.11060
 Alpha  occ. eigenvalues --  -10.08019 -10.07859 -10.07090  -0.97858  -0.97482
 Alpha  occ. eigenvalues --   -0.91812  -0.91617  -0.71477  -0.66470  -0.63192
 Alpha  occ. eigenvalues --   -0.62348  -0.59285  -0.56233  -0.52572  -0.49730
 Alpha  occ. eigenvalues --   -0.45607  -0.42781  -0.41877  -0.41178  -0.40489
 Alpha  occ. eigenvalues --   -0.40004  -0.38262  -0.36684  -0.35683  -0.33874
 Alpha  occ. eigenvalues --   -0.33406  -0.32793  -0.32658  -0.30363  -0.29275
 Alpha  occ. eigenvalues --   -0.28545  -0.28514  -0.27350  -0.26437  -0.24775
 Alpha  occ. eigenvalues --   -0.21525  -0.21166  -0.19246  -0.18771  -0.18533
 Alpha  occ. eigenvalues --   -0.17684  -0.16746   0.04532
 Alpha virt. eigenvalues --    0.06226   0.06765   0.07353   0.07954   0.08499
 Alpha virt. eigenvalues --    0.08970   0.09263   0.09559   0.09925   0.11251
 Alpha virt. eigenvalues --    0.11468   0.11898   0.11925   0.12661   0.13353

  Beta  occ. eigenvalues --  -19.03872 -19.03708 -19.03582 -19.03346 -10.16613
  Beta  occ. eigenvalues --  -10.16563 -10.12961 -10.12233 -10.11510 -10.11024
  Beta  occ. eigenvalues --  -10.08014 -10.07848 -10.07065  -0.97845  -0.97471
  Beta  occ. eigenvalues --   -0.91798  -0.91606  -0.71460  -0.66445  -0.63154
  Beta  occ. eigenvalues --   -0.62305  -0.59242  -0.56181  -0.52522  -0.49681
  Beta  occ. eigenvalues --   -0.45576  -0.42755  -0.41845  -0.41150  -0.40465
  Beta  occ. eigenvalues --   -0.39977  -0.38232  -0.36658  -0.35658  -0.33842
  Beta  occ. eigenvalues --   -0.33374  -0.32759  -0.32619  -0.30335  -0.29244
  Beta  occ. eigenvalues --   -0.28517  -0.28490  -0.27323  -0.26407  -0.24747
  Beta  occ. eigenvalues --   -0.21494  -0.21138  -0.19231  -0.18754  -0.18517
  Beta  occ. eigenvalues --   -0.17668  -0.16731
  Beta virt. eigenvalues --    0.06594   0.07106   0.07535   0.07899   0.08141
  Beta virt. eigenvalues --    0.09131   0.09434   0.09738   0.09991   0.10414
  Beta virt. eigenvalues --    0.11682   0.11945   0.12156   0.12339   0.12919

 Mulliken charges and spin densities:
               1          2
     1  C    0.634724  -1.202316
     2  C   -1.958317   1.328033
     3  C    0.440520  -0.284122
     4  C    0.309387  -0.220756
     5  C   -0.037933  -0.782111
     6  O   -0.100812   0.033026
     7  C    0.280503  -0.537748
     8  O   -0.169147   0.051529
     9  C    0.643066  -0.940710
    10  O   -0.019094   0.013490
    11  C    0.517371  -0.661458
    12  O   -0.176031   0.076497
    13  C    0.486524  -0.829973
    14  H   -0.040186   0.195328
    15  H   -0.202786   0.366851
    16  H    0.007158   0.148139
    17  H    0.553016  -0.228152
    18  H    0.216105   0.004571
    19  H   -0.264551   0.450504
    20  H   -0.366933   0.549635
    21  H    0.062064   0.137087
    22  H    0.056116   0.119355
    23  H   -0.305120   0.446942
    24  H   -0.348712   0.487975
    25  H   -0.035284   0.188127
    26  H   -0.361448   0.503161
    27  H   -0.034435   0.204652
    28  H   -0.197744   0.340580
    29  H   -0.221206   0.345321
    30  H   -0.013916   0.198640
    31  H   -0.352899   0.497904
 Sum of Mulliken charges =  -1.00000   1.00000

 Dipole moment (field-independent basis, Debye):
    X=             -1.0295    Y=              1.0023    Z=              1.6725  Tot=              2.2050
 Quadrupole moment (field-independent basis, Debye-Ang):
   XX=           -163.0867   YY=           -127.8531   ZZ=           -114.6895
   XY=             -7.3805   XZ=              1.3053   YZ=              0.7292

 Summary of Natural Population Analysis:

                                       Natural Population
                Natural  -----------------------------------------------
    Atom  No    Charge         Core      Valence    Rydberg      Total
 -----------------------------------------------------------------------
      C    1   -0.29956      0.99965     2.29409    0.00582     3.29956
      C    2    0.03408      0.99951     1.95163    0.01479     2.96592
      C    3   -0.09135      0.99950     2.08025    0.01160     3.09135
      C    4   -0.10463      0.99952     2.09413    0.01098     3.10463
      C    5   -0.03554      0.99954     2.02257    0.01343     3.03554
      O    6   -0.29977      0.99989     3.29079    0.00908     4.29977
      C    7    0.14210      0.99962     1.84063    0.01766     2.85790
      O    8   -0.30197      0.99989     3.29251    0.00957     4.30197
      C    9   -0.10304      0.99961     2.09373    0.00971     3.10304
      O   10   -0.30118      0.99989     3.29254    0.00875     4.30118
      C   11    0.14259      0.99961     1.83953    0.01827     2.85741
      O   12   -0.29960      0.99989     3.28997    0.00975     4.29960
      C   13   -0.10210      0.99961     2.09294    0.00956     3.10210
      H   14    0.09799      0.00000     0.40090    0.00111     0.40201
      H   15    0.10455      0.00000     0.39446    0.00099     0.39545
      H   16    0.10704      0.00000     0.39192    0.00104     0.39296
      H   17    0.10489      0.00000     0.39172    0.00339     0.39511
      H   18    0.09937      0.00000     0.39912    0.00151     0.40063
      H   19    0.09755      0.00000     0.40124    0.00122     0.40245
      H   20    0.09697      0.00000     0.40146    0.00157     0.40303
      H   21    0.09004      0.00000     0.40795    0.00200     0.40996
      H   22    0.07950      0.00000     0.41876    0.00173     0.42050
      H   23    0.07576      0.00000     0.42261    0.00163     0.42424
      H   24    0.08093      0.00000     0.41701    0.00206     0.41907
      H   25    0.08503      0.00000     0.41358    0.00139     0.41497
      H   26    0.09154      0.00000     0.40717    0.00129     0.40846
      H   27    0.07576      0.00000     0.42250    0.00174     0.42424
      H   28    0.07529      0.00000     0.42314    0.00156     0.42471
      H   29    0.07896      0.00000     0.41938    0.00165     0.42104
      H   30    0.08839      0.00000     0.40972    0.00188     0.41161
      H   31    0.09044      0.00000     0.40807    0.00149     0.40956
 =======================================================================
   * Total *    0.00000     12.99570    38.82606    0.17824    52.00000

 Normal termination of Gaussian 16 at Mon Dec 14 17:08:08 2020.
