 Gaussian 16, Revision A.03,

 -----------------------------------------------------------
 # opt freq B3LYP/6-31G(d) empiricaldispersion=gd3bj scf=xqc
 -----------------------------------------------------------

 -------------------------------
 CID_108108685_JID_5967_neutraal
 -------------------------------
 Symbolic Z-matrix:
 Charge =  0 Multiplicity = 1

 SCF Done:  E(RB3LYP) =  -759.431779710     A.U. after   16 cycles
 SCF Done:  E(RB3LYP) =  -759.441068996     A.U. after   13 cycles
 SCF Done:  E(RB3LYP) =  -759.441145825     A.U. after   14 cycles
 SCF Done:  E(RB3LYP) =  -759.443146720     A.U. after   12 cycles
 SCF Done:  E(RB3LYP) =  -759.443847641     A.U. after   13 cycles
 SCF Done:  E(RB3LYP) =  -759.443860541     A.U. after   13 cycles
 SCF Done:  E(RB3LYP) =  -759.443850145     A.U. after   13 cycles
 SCF Done:  E(RB3LYP) =  -759.444327255     A.U. after   12 cycles
 SCF Done:  E(RB3LYP) =  -759.444642289     A.U. after   12 cycles
 SCF Done:  E(RB3LYP) =  -759.444667577     A.U. after   11 cycles
 SCF Done:  E(RB3LYP) =  -759.444724044     A.U. after    8 cycles
 SCF Done:  E(RB3LYP) =  -759.444724466     A.U. after    8 cycles
 SCF Done:  E(RB3LYP) =  -759.444724675     A.U. after    8 cycles
 SCF Done:  E(RB3LYP) =  -759.444724752     A.U. after    8 cycles
 SCF Done:  E(RB3LYP) =  -759.444724804     A.U. after    7 cycles
 SCF Done:  E(RB3LYP) =  -759.444724843     A.U. after    7 cycles
 Optimization completed.
    -- Stationary point found.
 Normal termination of Gaussian 16 at Thu Dec 10 17:47:14 2020.

 --------------------------------------------------------------------
 #N Geom=AllCheck Guess=TCheck SCRF=Check GenChk RB3LYP/6-31G(d) Freq
 --------------------------------------------------------------------

 Structure from the checkpoint file:  "JID_5967.chk"
 -------------------------------
 CID_108108685_JID_5967_neutraal
 -------------------------------
 Charge =  0 Multiplicity = 1

 SCF Done:  E(RB3LYP) =  -759.444724843     A.U. after    1 cycles

  Exact polarizability: 142.338   7.541 110.614   8.791 -14.172  86.938
 Approx polarizability: 228.205  27.207 182.890  13.764 -41.466 148.938

                      1                      2                      3
                      A                      A                      A
 Frequencies --     31.2923                55.9362                69.5279
 Red. masses --      5.1592                 6.4240                 9.6436
 Frc consts  --      0.0030                 0.0118                 0.0275
 IR Inten    --      3.2079                 1.4163                 0.1229

                      4                      5                      6
                      A                      A                      A
 Frequencies --    116.5970               126.4068               139.2472
 Red. masses --      5.8054                 5.0582                 3.6433
 Frc consts  --      0.0465                 0.0476                 0.0416
 IR Inten    --      9.5755                 4.8919                 0.1675

                      7                      8                      9
                      A                      A                      A
 Frequencies --    170.0796               204.0506               219.9895
 Red. masses --      4.9239                 2.4077                 2.1706
 Frc consts  --      0.0839                 0.0591                 0.0619
 IR Inten    --      5.4038                 1.7173                 4.9999

                     10                     11                     12
                      A                      A                      A
 Frequencies --    265.2176               280.5350               351.3380
 Red. masses --      2.2095                 6.6415                 5.9740
 Frc consts  --      0.0916                 0.3080                 0.4345
 IR Inten    --      2.8121                 1.0024                 4.1420

                     13                     14                     15
                      A                      A                      A
 Frequencies --    366.5613               389.8338               449.7224
 Red. masses --      3.2346                 8.9251                 3.9677
 Frc consts  --      0.2561                 0.7991                 0.4728
 IR Inten    --      3.8714                 2.3538                 4.8816

                     16                     17                     18
                      A                      A                      A
 Frequencies --    481.0634               498.9965               517.7378
 Red. masses --      3.7149                 2.0192                 1.7109
 Frc consts  --      0.5065                 0.2962                 0.2702
 IR Inten    --      4.1092                 5.9816                70.1328

                     19                     20                     21
                      A                      A                      A
 Frequencies --    547.9825               584.6585               610.4580
 Red. masses --      3.1475                 2.8702                 3.4517
 Frc consts  --      0.5569                 0.5781                 0.7579
 IR Inten    --     12.2027                71.3396                34.8923

                     22                     23                     24
                      A                      A                      A
 Frequencies --    621.3445               646.7827               690.8320
 Red. masses --      2.5725                 3.9532                 4.5048
 Frc consts  --      0.5852                 0.9743                 1.2667
 IR Inten    --     42.9093                29.5389                21.5372

                     25                     26                     27
                      A                      A                      A
 Frequencies --    730.1590               745.0483               766.2665
 Red. masses --      3.0162                 4.5611                 4.0140
 Frc consts  --      0.9474                 1.4917                 1.3886
 IR Inten    --      3.0516                32.0039                49.5511

                     28                     29                     30
                      A                      A                      A
 Frequencies --    822.6983               838.5520               857.8794
 Red. masses --      1.8965                 4.0000                 5.4527
 Frc consts  --      0.7563                 1.6572                 2.3644
 IR Inten    --     32.2806                25.4041                 7.6736

                     31                     32                     33
                      A                      A                      A
 Frequencies --    890.3076               924.5146              1005.7436
 Red. masses --      1.4933                 2.9597                 1.2844
 Frc consts  --      0.6974                 1.4905                 0.7655
 IR Inten    --      1.2411                10.9346                 0.2390

                     34                     35                     36
                      A                      A                      A
 Frequencies --   1033.1844              1076.0856              1091.7514
 Red. masses --      2.7591                 2.5484                 1.9706
 Frc consts  --      1.7353                 1.7387                 1.3839
 IR Inten    --      4.4594                11.0304                15.5029

                     37                     38                     39
                      A                      A                      A
 Frequencies --   1149.7358              1160.0321              1161.3964
 Red. masses --      3.7591                 1.3070                 1.5897
 Frc consts  --      2.9277                 1.0363                 1.2634
 IR Inten    --    122.8424                16.5211                20.1844

                     40                     41                     42
                      A                      A                      A
 Frequencies --   1195.8985              1205.1785              1219.9719
 Red. masses --      2.3791                 2.0879                 1.6139
 Frc consts  --      2.0047                 1.7867                 1.4152
 IR Inten    --     16.9674                 0.8733               104.1592

                     43                     44                     45
                      A                      A                      A
 Frequencies --   1251.5901              1312.7665              1356.8416
 Red. masses --      1.9159                 1.4307                 1.3590
 Frc consts  --      1.7683                 1.4527                 1.4741
 IR Inten    --     54.9341                36.7257                 4.9320

                     46                     47                     48
                      A                      A                      A
 Frequencies --   1387.8865              1404.1346              1453.6629
 Red. masses --      2.1003                 2.3317                 2.2224
 Frc consts  --      2.3836                 2.7086                 2.7670
 IR Inten    --     45.4008               118.0775                36.1289

                     49                     50                     51
                      A                      A                      A
 Frequencies --   1472.0735              1488.8038              1506.9292
 Red. masses --      2.9539                 1.7483                 1.2398
 Frc consts  --      3.7714                 2.2832                 1.6587
 IR Inten    --     75.2746                22.4628                13.2574

                     52                     53                     54
                      A                      A                      A
 Frequencies --   1523.6605              1535.3882              1556.7008
 Red. masses --      1.1614                 1.0535                 1.1150
 Frc consts  --      1.5886                 1.4632                 1.5919
 IR Inten    --     23.6907                47.1651                43.3628

                     55                     56                     57
                      A                      A                      A
 Frequencies --   1605.1568              1664.0274              1754.7272
 Red. masses --      6.9428                 6.1584                 9.6850
 Frc consts  --     10.5395                10.0470                17.5698
 IR Inten    --     15.7600                16.7524               397.0225

                     58                     59                     60
                      A                      A                      A
 Frequencies --   1785.2823              1834.1964              3041.8594
 Red. masses --      7.6713                10.7266                 1.0455
 Frc consts  --     14.4057                21.2620                 5.7000
 IR Inten    --    351.8873               249.0803                35.0426

                     61                     62                     63
                      A                      A                      A
 Frequencies --   3118.8885              3126.0740              3162.0844
 Red. masses --      1.0922                 1.0633                 1.1036
 Frc consts  --      6.2595                 6.1219                 6.5013
 IR Inten    --     29.8315                18.5655                 2.7409

                     64                     65                     66
                      A                      A                      A
 Frequencies --   3198.6330              3201.7541              3238.7386
 Red. masses --      1.1012                 1.0897                 1.0940
 Frc consts  --      6.6384                 6.5816                 6.7613
 IR Inten    --      2.2713                12.1468                 2.4744

                     67                     68                     69
                      A                      A                      A
 Frequencies --   3254.3705              3603.5342              3694.5013
 Red. masses --      1.0930                 1.0761                 1.0641
 Frc consts  --      6.8205                 8.2327                 8.5575
 IR Inten    --      0.0356                28.6147               103.0216

 - Thermochemistry -
 -------------------
 Temperature   298.150 Kelvin.  Pressure   1.00000 Atm.
 Atom     1 has atomic number  6 and mass  12.00000

 Molecular mass:   210.06406 amu.
 Principal axes and moments of inertia in atomic units:
                           1         2         3
     Eigenvalues --  2296.828722857.990424008.78364
           X            0.99925  -0.03562   0.01546
           Y            0.03524   0.99908   0.02431
           Z           -0.01631  -0.02374   0.99959
 This molecule is an asymmetric top.
 Rotational symmetry number  1.
 Warning -- assumption of classical behavior for rotation
           may cause significant error
 Rotational temperatures (Kelvin)      0.03771     0.03031     0.02161
 Rotational constants (GHZ):           0.78575     0.63147     0.45020
 Zero-point vibrational energy     507485.0 (Joules/Mol)
                                  121.29182 (Kcal/Mol)
 Warning -- explicit consideration of  21 degrees of freedom as
           vibrations may cause significant error
 Vibrational temperatures:     45.02    80.48   100.04   167.76   181.87
          (Kelvin)            200.35   244.71   293.58   316.52   381.59
                              403.63   505.50   527.40   560.88   647.05
                              692.14   717.94   744.91   788.42   841.19
                              878.31   893.98   930.58   993.95  1050.54
                             1071.96  1102.49  1183.68  1206.49  1234.30
                             1280.95  1330.17  1447.04  1486.52  1548.25
                             1570.79  1654.21  1669.03  1670.99  1720.63
                             1733.98  1755.27  1800.76  1888.78  1952.19
                             1996.86  2020.24  2091.50  2117.99  2142.06
                             2168.13  2192.21  2209.08  2239.75  2309.46
                             2394.16  2524.66  2568.62  2639.00  4376.56
                             4487.38  4497.72  4549.53  4602.12  4606.61
                             4659.82  4682.31  5184.68  5315.56

 Zero-point correction=                           0.193291 (Hartree/Particle)
 Thermal correction to Energy=                    0.207063
 Thermal correction to Enthalpy=                  0.208007
 Thermal correction to Gibbs Free Energy=         0.152100
 Sum of electronic and zero-point Energies=           -759.251434
 Sum of electronic and thermal Energies=              -759.237662
 Sum of electronic and thermal Enthalpies=            -759.236718
 Sum of electronic and thermal Free Energies=         -759.292625

                     E (Thermal)             CV                S
                      KCal/Mol        Cal/Mol-Kelvin    Cal/Mol-Kelvin
 Total                  129.934             51.265            117.666
 Electronic               0.000              0.000              0.000
 Translational            0.889              2.981             41.930
 Rotational               0.889              2.981             31.643
 Vibrational            128.156             45.303             44.093
 Vibration     1          0.594              1.983              5.746
 Vibration     2          0.596              1.975              4.596
 Vibration     3          0.598              1.969              4.167
 Vibration     4          0.608              1.936              3.156
 Vibration     5          0.611              1.927              3.000
 Vibration     6          0.615              1.914              2.814
 Vibration     7          0.625              1.879              2.435
 Vibration     8          0.640              1.834              2.096
 Vibration     9          0.647              1.811              1.959
 Vibration    10          0.671              1.737              1.627
 Vibration    11          0.680              1.710              1.530
 Vibration    12          0.728              1.573              1.160
 Vibration    13          0.739              1.541              1.094
 Vibration    14          0.758              1.492              1.001
 Vibration    15          0.809              1.362              0.797
 Vibration    16          0.837              1.292              0.707
 Vibration    17          0.854              1.252              0.661
 Vibration    18          0.873              1.211              0.615
 Vibration    19          0.903              1.144              0.548
 Vibration    20          0.942              1.065              0.477
 Vibration    21          0.970              1.010              0.432

 Optimization completed.
    -- Stationary point found.
 Normal termination of Gaussian 16 at Thu Dec 10 17:56:06 2020.

 ----------------------------------------------------------------------
 # B3LYP/6-311++G(d,p) empiricaldispersion=gd3bj scf=xqc pop=npa geom=c
 heck
 ----------------------------------------------------------------------

 ---------------------------------------
 CID_108108685_JID_5967_Energie_neutraal
 ---------------------------------------
 Structure from the checkpoint file:  "JID_5967.chk"
 Charge =  0 Multiplicity = 1

 SCF Done:  E(RB3LYP) =  -759.674511704     A.U. after   16 cycles
 Normal termination of Gaussian 16 at Thu Dec 10 18:00:08 2020.

 ----------------------------------------------------------------------
 # B3LYP/6-311++G(d,p) empiricaldispersion=gd3bj scf=xqc pop=npa geom=c
 heck
 ----------------------------------------------------------------------

 -------------------------------------
 CID_108108685_JID_5967_Energie_kation
 -------------------------------------
 Structure from the checkpoint file:  "JID_5967.chk"
 Charge =  1 Multiplicity = 2

 SCF Done:  E(UB3LYP) =  -759.361670223     A.U. after   28 cycles
 Normal termination of Gaussian 16 at Thu Dec 10 18:09:42 2020.
 Gaussian 16:  ES64L-G16RevA.03 25-Dec-2016

 ----------------------------------------------------------------------
 # B3LYP/6-311++G(d,p) empiricaldispersion=gd3bj scf=xqc pop=npa geom=c
 heck
 ----------------------------------------------------------------------

 ------------------------------------
 CID_108108685_JID_5967_Energie_anion
 ------------------------------------
 Structure from the checkpoint file:  "JID_5967.chk"
 Charge = -1 Multiplicity = 2

                         Standard orientation:
 ---------------------------------------------------------------------
 Center     Atomic      Atomic             Coordinates (Angstroms)
 Number     Number       Type             X           Y           Z
 ---------------------------------------------------------------------
      1          6           0       -0.073274   -2.228136   -1.512680
      2          7           0        1.255317   -1.821137   -1.081653
      3          6           0        1.632111   -1.235881    0.088431
      4          8           0        2.803491   -0.961911    0.328224
      5          6           0        0.531541   -0.929196    1.111645
      6          7           0       -0.538703   -0.066147    0.580456
      7          6           0       -1.859000   -0.600802    0.632866
      8          8           0       -2.065819   -1.701776    1.144394
      9          6           0       -2.877834    0.218888    0.013719
     10          6           0       -2.581489    1.392460   -0.612113
     11          6           0       -1.243580    1.864604   -0.647021
     12          6           0       -0.263767    1.139407   -0.026895
     13          6           0        1.118950    1.722242   -0.012189
     14          8           0        1.621146    2.255086   -0.975249
     15          8           0        1.700010    1.648964    1.200079
     16          1           0       -0.675852   -2.554182   -0.662863
     17          1           0        0.025394   -3.072692   -2.199689
     18          1           0       -0.607208   -1.419528   -2.028773
     19          1           0        2.024358   -1.937309   -1.729461
     20          1           0        0.027430   -1.840009    1.439396
     21          1           0        1.011993   -0.453596    1.962914
     22          1           0       -3.885643   -0.176638    0.061654
     23          1           0       -3.366815    1.975330   -1.085057
     24          1           0       -0.975827    2.795517   -1.129150
     25          1           0        2.633317    1.909676    1.085242
 ---------------------------------------------------------------------

 SCF Done:  E(UB3LYP) =  -759.702948729     A.U. after   23 cycles

 The electronic state is 2-A.
 Alpha  occ. eigenvalues --  -19.02669 -18.97248 -18.95635 -18.93732 -14.22829
 Alpha  occ. eigenvalues --  -14.21573 -10.15723 -10.14440 -10.11892 -10.09509
 Alpha  occ. eigenvalues --  -10.07996 -10.06009 -10.02812 -10.02077 -10.00698
 Alpha  occ. eigenvalues --   -0.96609  -0.92387  -0.89268  -0.87366  -0.81686
 Alpha  occ. eigenvalues --   -0.80582  -0.67673  -0.61552  -0.60645  -0.58904
 Alpha  occ. eigenvalues --   -0.52713  -0.48698  -0.46645  -0.45843  -0.39888
 Alpha  occ. eigenvalues --   -0.38535  -0.37232  -0.35921  -0.34862  -0.33998
 Alpha  occ. eigenvalues --   -0.32857  -0.31905  -0.31270  -0.30052  -0.29773
 Alpha  occ. eigenvalues --   -0.28711  -0.28236  -0.26507  -0.26008  -0.25297
 Alpha  occ. eigenvalues --   -0.23556  -0.21879  -0.19965  -0.18538  -0.16037
 Alpha  occ. eigenvalues --   -0.14538  -0.14295  -0.13864  -0.11624  -0.07847
 Alpha  occ. eigenvalues --    0.03510
 Alpha virt. eigenvalues --    0.08031   0.09675   0.10264   0.11159   0.11641
 Alpha virt. eigenvalues --    0.11811   0.12361   0.13245   0.13557   0.14022
 Alpha virt. eigenvalues --    0.14172   0.15875   0.16388   0.17049   0.17418

  Beta  occ. eigenvalues --  -19.02609 -18.97240 -18.95340 -18.93708 -14.22827
  Beta  occ. eigenvalues --  -14.21262 -10.15704 -10.14241 -10.11913 -10.09509
  Beta  occ. eigenvalues --  -10.08012 -10.05648 -10.02622 -10.02080 -10.00388
  Beta  occ. eigenvalues --   -0.96327  -0.92359  -0.89121  -0.86931  -0.81489
  Beta  occ. eigenvalues --   -0.80283  -0.67222  -0.60899  -0.60486  -0.58785
  Beta  occ. eigenvalues --   -0.52103  -0.48499  -0.46413  -0.45519  -0.39618
  Beta  occ. eigenvalues --   -0.38509  -0.37020  -0.35618  -0.34562  -0.33909
  Beta  occ. eigenvalues --   -0.32455  -0.31388  -0.31089  -0.29822  -0.29346
  Beta  occ. eigenvalues --   -0.28605  -0.28033  -0.26121  -0.25880  -0.24914
  Beta  occ. eigenvalues --   -0.23419  -0.21587  -0.19076  -0.17459  -0.15038
  Beta  occ. eigenvalues --   -0.14520  -0.13923  -0.12977  -0.11449  -0.06289
  Beta virt. eigenvalues --    0.08018   0.09609   0.09757   0.10374   0.11155
  Beta virt. eigenvalues --    0.11730   0.12086   0.12406   0.13218   0.13544
  Beta virt. eigenvalues --    0.14021   0.14832   0.15931   0.16624   0.17094

 Mulliken charges and spin densities:
               1          2
     1  C   -0.372890  -0.010145
     2  N   -0.227271  -0.000392
     3  C    0.216907   0.017296
     4  O   -0.336667   0.003119
     5  C   -0.436695  -0.002141
     6  N    0.244134   0.076960
     7  C   -0.122981  -0.006180
     8  O   -0.394591   0.007750
     9  C   -0.228442   0.266937
    10  C   -0.276667   0.130050
    11  C   -0.476855   0.068507
    12  C    0.572552   0.235228
    13  C   -0.621216   0.102214
    14  O   -0.320855   0.096494
    15  O   -0.115427   0.005001
    16  H    0.168048  -0.002475
    17  H    0.133114  -0.001450
    18  H    0.187329   0.002339
    19  H    0.286441   0.000676
    20  H    0.210472   0.003139
    21  H    0.236771   0.017846
    22  H    0.136398  -0.016549
    23  H    0.122682  -0.013924
    24  H    0.162921   0.005764
    25  H    0.252788   0.013936
 Sum of Mulliken charges =  -1.00000   1.00000

 Dipole moment (field-independent basis, Debye):
    X=              1.2614    Y=             -2.1194    Z=             -1.6321  Tot=              2.9575
 Quadrupole moment (field-independent basis, Debye-Ang):
   XX=           -121.4265   YY=           -106.3278   ZZ=            -96.7104
   XY=             -6.4650   XZ=              5.6969   YZ=             11.4488

 Summary of Natural Population Analysis:

                                       Natural Population
                Natural  -----------------------------------------------
    Atom  No    Charge         Core      Valence    Rydberg      Total
 -----------------------------------------------------------------------
      C    1   -0.18740      0.99965     2.18097    0.00678     3.18740
      N    2   -0.31365      0.99966     2.80595    0.00803     3.81365
      C    3    0.34100      0.99967     1.63695    0.02238     2.65900
      O    4   -0.32999      0.99988     3.32273    0.00738     4.32999
      C    5   -0.13962      0.99956     2.13089    0.00916     3.13962
      N    6   -0.18669      0.99961     2.67708    0.01000     3.68669
      C    7    0.30937      0.99961     1.66850    0.02252     2.69063
      O    8   -0.35987      0.99988     3.35383    0.00616     4.35987
      C    9   -0.09985      0.99952     2.09035    0.00998     3.09985
      C   10   -0.05130      0.99957     2.04257    0.00916     3.05130
      C   11   -0.13281      0.99953     2.12501    0.00827     3.13281
      C   12    0.12092      0.99944     1.86386    0.01578     2.87908
      C   13    0.41369      0.99968     1.56240    0.02423     2.58631
      O   14   -0.28824      0.99987     3.28200    0.00638     4.28824
      O   15   -0.34638      0.99987     3.33896    0.00754     4.34638
      H   16    0.11334      0.00000     0.38522    0.00144     0.38666
      H   17    0.08801      0.00000     0.41112    0.00087     0.41199
      H   18    0.09957      0.00000     0.39942    0.00101     0.40043
      H   19    0.18808      0.00000     0.30937    0.00254     0.31192
      H   20    0.12418      0.00000     0.37442    0.00140     0.37582
      H   21    0.11705      0.00000     0.38195    0.00101     0.38295
      H   22    0.09298      0.00000     0.40556    0.00147     0.40702
      H   23    0.08793      0.00000     0.41099    0.00108     0.41207
      H   24    0.10463      0.00000     0.39441    0.00096     0.39537
      H   25    0.23505      0.00000     0.26085    0.00410     0.26495
 =======================================================================
   * Total *   -0.00000     14.99500    39.81536    0.18964    55.00000

 Normal termination of Gaussian 16 at Thu Dec 10 18:17:39 2020.
