 Gaussian 16, Revision A.03,

 -----------------------------------------------------------
 # opt freq B3LYP/6-31G(d) empiricaldispersion=gd3bj scf=xqc
 -----------------------------------------------------------

 ------------------------------
 CID_92338332_JID_6293_neutraal
 ------------------------------
 Symbolic Z-matrix:
 Charge =  0 Multiplicity = 1

 SCF Done:  E(RB3LYP) =  -672.545433700     A.U. after   14 cycles
 SCF Done:  E(RB3LYP) =  -672.547644138     A.U. after   12 cycles
 SCF Done:  E(RB3LYP) =  -672.547005755     A.U. after   12 cycles
 SCF Done:  E(RB3LYP) =  -672.546465461     A.U. after   12 cycles
 SCF Done:  E(RB3LYP) =  -672.545983018     A.U. after   12 cycles
 SCF Done:  E(RB3LYP) =  -672.547989534     A.U. after    9 cycles
 SCF Done:  E(RB3LYP) =  -672.548813605     A.U. after   12 cycles
 SCF Done:  E(RB3LYP) =  -672.549140350     A.U. after   12 cycles
 SCF Done:  E(RB3LYP) =  -672.549653215     A.U. after   12 cycles
 SCF Done:  E(RB3LYP) =  -672.550103683     A.U. after   11 cycles
 SCF Done:  E(RB3LYP) =  -672.556400550     A.U. after    9 cycles
 SCF Done:  E(RB3LYP) =  -672.556402092     A.U. after    9 cycles
 SCF Done:  E(RB3LYP) =  -672.556402264     A.U. after    7 cycles
 SCF Done:  E(RB3LYP) =  -672.556402283     A.U. after    7 cycles
 Optimization completed.
    -- Stationary point found.
 Normal termination of Gaussian 16 at Thu Dec 10 22:22:02 2020.

 --------------------------------------------------------------------
 #N Geom=AllCheck Guess=TCheck SCRF=Check GenChk RB3LYP/6-31G(d) Freq
 --------------------------------------------------------------------

 Structure from the checkpoint file:  "JID_6293.chk"
 ------------------------------
 CID_92338332_JID_6293_neutraal
 ------------------------------
 Charge =  0 Multiplicity = 1

 SCF Done:  E(RB3LYP) =  -672.556402283     A.U. after    1 cycles

  Exact polarizability: 163.025  -4.133 158.521  31.292   0.472 107.604
 Approx polarizability: 239.305 -11.966 264.406  67.570   0.635 182.885

                      1                      2                      3
                      A                      A                      A
 Frequencies --     29.3299                37.9937                71.8626
 Red. masses --      4.6207                 4.2278                 4.1982
 Frc consts  --      0.0023                 0.0036                 0.0128
 IR Inten    --      0.0244                 0.7609                 0.7960

                      4                      5                      6
                      A                      A                      A
 Frequencies --    105.4427               115.3930               214.0134
 Red. masses --      3.7128                 4.2086                 3.9306
 Frc consts  --      0.0243                 0.0330                 0.1061
 IR Inten    --      1.0646                 0.2925                 0.0693

                      7                      8                      9
                      A                      A                      A
 Frequencies --    221.9103               244.7490               270.2213
 Red. masses --      1.0789                 4.5039                 3.3018
 Frc consts  --      0.0313                 0.1590                 0.1421
 IR Inten    --      1.3061                 5.9454                 2.2988

                     10                     11                     12
                      A                      A                      A
 Frequencies --    302.0298               343.0857               364.3585
 Red. masses --      4.5095                 4.8911                 1.2254
 Frc consts  --      0.2424                 0.3392                 0.0958
 IR Inten    --      0.3083                12.9918                90.7918

                     13                     14                     15
                      A                      A                      A
 Frequencies --    380.2553               418.4826               419.9878
 Red. masses --      1.9712                 3.4967                 2.8200
 Frc consts  --      0.1679                 0.3608                 0.2931
 IR Inten    --     32.2642                12.5667                 4.4744

                     16                     17                     18
                      A                      A                      A
 Frequencies --    424.6526               477.1788               500.3676
 Red. masses --      2.9508                 3.9084                 3.3435
 Frc consts  --      0.3135                 0.5243                 0.4932
 IR Inten    --      4.0321                 1.7846                 1.7771

                     19                     20                     21
                      A                      A                      A
 Frequencies --    556.6574               593.4735               631.2975
 Red. masses --      3.2040                 3.4547                 5.6919
 Frc consts  --      0.5849                 0.7169                 1.3365
 IR Inten    --      6.7385                25.5220                 4.5472

                     22                     23                     24
                      A                      A                      A
 Frequencies --    637.4469               655.4586               718.9756
 Red. masses --      6.3259                 5.2659                 1.9340
 Frc consts  --      1.5145                 1.3330                 0.5890
 IR Inten    --      0.7935                 2.2711                22.8933

                     25                     26                     27
                      A                      A                      A
 Frequencies --    722.7558               764.2007               776.3916
 Red. masses --      4.0428                 1.7160                 1.9171
 Frc consts  --      1.2443                 0.5904                 0.6809
 IR Inten    --      7.0544                14.6001                 7.2303

                     28                     29                     30
                      A                      A                      A
 Frequencies --    795.2134               863.4380               871.6635
 Red. masses --      2.3960                 1.2469                 3.7028
 Frc consts  --      0.8927                 0.5477                 1.6576
 IR Inten    --     20.6295                 0.4269                 1.1160

                     31                     32                     33
                      A                      A                      A
 Frequencies --    887.0590               906.1378               928.9619
 Red. masses --      2.3916                 1.3984                 1.4267
 Frc consts  --      1.1088                 0.6765                 0.7254
 IR Inten    --      1.3197                 0.1314                 3.5986

                     34                     35                     36
                      A                      A                      A
 Frequencies --    948.0279               971.1913               972.0745
 Red. masses --      1.9813                 1.3577                 1.7543
 Frc consts  --      1.0492                 0.7545                 0.9767
 IR Inten    --     10.7669                 0.7773                18.1352

                     37                     38                     39
                      A                      A                      A
 Frequencies --    979.1942               994.6115              1004.7209
 Red. masses --      1.6322                 1.2389                 1.2975
 Frc consts  --      0.9221                 0.7221                 0.7717
 IR Inten    --      8.3836                 0.3687                 0.1409

                     40                     41                     42
                      A                      A                      A
 Frequencies --   1014.7761              1022.3695              1061.1999
 Red. masses --      6.5777                 5.7749                 2.5491
 Frc consts  --      3.9908                 3.5564                 1.6913
 IR Inten    --      8.6167                 0.7734                 5.9268

                     43                     44                     45
                      A                      A                      A
 Frequencies --   1074.8106              1081.9426              1112.7168
 Red. masses --      1.9686                 2.2879                 1.7293
 Frc consts  --      1.3399                 1.5780                 1.2615
 IR Inten    --     27.7076                 5.4978                10.3375

                     46                     47                     48
                      A                      A                      A
 Frequencies --   1129.8053              1135.9012              1173.3705
 Red. masses --      1.6170                 1.8865                 1.8071
 Frc consts  --      1.2161                 1.4341                 1.4659
 IR Inten    --      7.1488                13.3705                21.2055

                     49                     50                     51
                      A                      A                      A
 Frequencies --   1188.1104              1194.3567              1205.2974
 Red. masses --      1.1460                 1.0927                 1.7403
 Frc consts  --      0.9532                 0.9184                 1.4895
 IR Inten    --      1.3392                 0.0898                25.4332

                     52                     53                     54
                      A                      A                      A
 Frequencies --   1223.8920              1261.8502              1274.6290
 Red. masses --      1.1468                 2.1392                 2.5934
 Frc consts  --      1.0121                 2.0068                 2.4825
 IR Inten    --      1.7375                 2.7812                30.1098

                     55                     56                     57
                      A                      A                      A
 Frequencies --   1318.4542              1342.7376              1349.7993
 Red. masses --      3.7670                 2.3431                 1.7282
 Frc consts  --      3.8581                 2.4890                 1.8551
 IR Inten    --      5.9451                32.2256                46.5741

                     58                     59                     60
                      A                      A                      A
 Frequencies --   1352.9157              1370.3618              1400.7060
 Red. masses --      1.6757                 1.8034                 1.4469
 Frc consts  --      1.8071                 1.9953                 1.6725
 IR Inten    --      9.0445                 0.3399                38.0664

                     61                     62                     63
                      A                      A                      A
 Frequencies --   1445.0698              1481.6000              1494.9564
 Red. masses --      1.3333                 2.0795                 2.1821
 Frc consts  --      1.6404                 2.6894                 2.8733
 IR Inten    --     16.8923                17.0572                 7.1055

                     64                     65                     66
                      A                      A                      A
 Frequencies --   1501.6419              1511.6034              1525.4626
 Red. masses --      1.1268                 1.0882                 1.1571
 Frc consts  --      1.4970                 1.4650                 1.5865
 IR Inten    --      2.8943                 5.2012                 1.5175

                     67                     68                     69
                      A                      A                      A
 Frequencies --   1526.7161              1548.7856              1631.9136
 Red. masses --      1.9284                 2.0797                 5.6658
 Frc consts  --      2.6483                 2.9392                 8.8900
 IR Inten    --     19.8264                 7.3319                17.3232

                     70                     71                     72
                      A                      A                      A
 Frequencies --   1644.1640              1651.3045              1667.1150
 Red. masses --      5.4701                 5.4463                 5.5341
 Frc consts  --      8.7123                 8.7499                 9.0621
 IR Inten    --      0.5028                38.7729                 2.4502

                     73                     74                     75
                      A                      A                      A
 Frequencies --   3038.1256              3075.1833              3109.4001
 Red. masses --      1.0652                 1.0366                 1.0979
 Frc consts  --      5.7929                 5.7756                 6.2540
 IR Inten    --     28.6489                15.5950                13.3511

                     76                     77                     78
                      A                      A                      A
 Frequencies --   3144.6328              3170.3471              3174.7351
 Red. masses --      1.1037                 1.0891                 1.1001
 Frc consts  --      6.4306                 6.4496                 6.5329
 IR Inten    --     25.5788                26.2077                12.2744

                     79                     80                     81
                      A                      A                      A
 Frequencies --   3180.4751              3189.9721              3193.3633
 Red. masses --      1.0850                 1.0893                 1.0877
 Frc consts  --      6.4665                 6.5309                 6.5353
 IR Inten    --      0.5256                13.7751                 6.2027

                     82                     83                     84
                      A                      A                      A
 Frequencies --   3204.2853              3210.1166              3217.9452
 Red. masses --      1.0941                 1.0924                 1.0946
 Frc consts  --      6.6184                 6.6323                 6.6781
 IR Inten    --     34.0589                22.8676                28.3049

                     85                     86                     87
                      A                      A                      A
 Frequencies --   3218.1342              3221.2180              3729.4830
 Red. masses --      1.0950                 1.0933                 1.0658
 Frc consts  --      6.6814                 6.6842                 8.7342
 IR Inten    --      8.7531                 4.2702                 6.6664

 - Thermochemistry -
 -------------------
 Temperature   298.150 Kelvin.  Pressure   1.00000 Atm.
 Atom     1 has atomic number  6 and mass  12.00000

 Molecular mass:   213.11536 amu.
 Principal axes and moments of inertia in atomic units:
                           1         2         3
     Eigenvalues --  2266.757264048.799965348.47752
           X            0.99996  -0.00467   0.00816
           Y            0.00462   0.99997   0.00686
           Z           -0.00819  -0.00683   0.99994
 This molecule is an asymmetric top.
 Rotational symmetry number  1.
 Warning -- assumption of classical behavior for rotation
           may cause significant error
 Rotational temperatures (Kelvin)      0.03821     0.02139     0.01619
 Rotational constants (GHZ):           0.79618     0.44575     0.33743
 Zero-point vibrational energy     682577.3 (Joules/Mol)
                                  163.13990 (Kcal/Mol)
 Warning -- explicit consideration of  20 degrees of freedom as
           vibrations may cause significant error
 Vibrational temperatures:     42.20    54.66   103.39   151.71   166.02
          (Kelvin)            307.92   319.28   352.14   388.79   434.55
                              493.62   524.23   547.10   602.10   604.27
                              610.98   686.55   719.92   800.91   853.88
                              908.30   917.14   943.06  1034.45  1039.88
                             1099.51  1117.05  1144.13  1242.29  1254.13
                             1276.28  1303.73  1336.57  1364.00  1397.33
                             1398.60  1408.84  1431.02  1445.57  1460.04
                             1470.96  1526.83  1546.41  1556.67  1600.95
                             1625.54  1634.31  1688.22  1709.43  1718.41
                             1734.15  1760.91  1815.52  1833.91  1896.96
                             1931.90  1942.06  1946.54  1971.64  2015.30
                             2079.13  2131.69  2150.91  2160.53  2174.86
                             2194.80  2196.60  2228.36  2347.96  2365.59
                             2375.86  2398.61  4371.19  4424.50  4473.73
                             4524.43  4561.42  4567.74  4575.99  4589.66
                             4594.54  4610.25  4618.64  4629.91  4630.18
                             4634.61  5365.89

 Zero-point correction=                           0.259980 (Hartree/Particle)
 Thermal correction to Energy=                    0.273768
 Thermal correction to Enthalpy=                  0.274712
 Thermal correction to Gibbs Free Energy=         0.218648
 Sum of electronic and zero-point Energies=           -672.296422
 Sum of electronic and thermal Energies=              -672.282634
 Sum of electronic and thermal Enthalpies=            -672.281690
 Sum of electronic and thermal Free Energies=         -672.337754

                     E (Thermal)             CV                S
                      KCal/Mol        Cal/Mol-Kelvin    Cal/Mol-Kelvin
 Total                  171.792             54.944            117.997
 Electronic               0.000              0.000              0.000
 Translational            0.889              2.981             41.973
 Rotational               0.889              2.981             32.262
 Vibrational            170.015             48.983             43.762
 Vibration     1          0.593              1.984              5.874
 Vibration     2          0.594              1.982              5.361
 Vibration     3          0.598              1.967              4.102
 Vibration     4          0.605              1.945              3.351
 Vibration     5          0.608              1.937              3.176
 Vibration     6          0.644              1.820              2.009
 Vibration     7          0.648              1.808              1.943
 Vibration     8          0.660              1.771              1.768
 Vibration     9          0.674              1.728              1.595
 Vibration    10          0.694              1.670              1.406
 Vibration    11          0.722              1.589              1.198
 Vibration    12          0.738              1.546              1.103
 Vibration    13          0.750              1.512              1.038
 Vibration    14          0.781              1.430              0.897
 Vibration    15          0.783              1.427              0.892
 Vibration    16          0.787              1.417              0.876
 Vibration    17          0.834              1.301              0.718
 Vibration    18          0.856              1.249              0.657
 Vibration    19          0.912              1.125              0.531
 Vibration    20          0.951              1.046              0.461

 Optimization completed.
    -- Stationary point found.
 Normal termination of Gaussian 16 at Thu Dec 10 22:33:07 2020.

 ----------------------------------------------------------------------
 # B3LYP/6-311++G(d,p) empiricaldispersion=gd3bj scf=xqc pop=npa geom=c
 heck
 ----------------------------------------------------------------------

 --------------------------------------
 CID_92338332_JID_6293_Energie_neutraal
 --------------------------------------
 Structure from the checkpoint file:  "JID_6293.chk"
 Charge =  0 Multiplicity = 1

 SCF Done:  E(RB3LYP) =  -672.741310149     A.U. after   15 cycles
 Normal termination of Gaussian 16 at Thu Dec 10 22:37:25 2020.

 ----------------------------------------------------------------------
 # B3LYP/6-311++G(d,p) empiricaldispersion=gd3bj scf=xqc pop=npa geom=c
 heck
 ----------------------------------------------------------------------

 ------------------------------------
 CID_92338332_JID_6293_Energie_kation
 ------------------------------------
 Structure from the checkpoint file:  "JID_6293.chk"
 Charge =  1 Multiplicity = 2

 SCF Done:  E(UB3LYP) =  -672.428167751     A.U. after   33 cycles
 SCF Done:  E(UB3LYP) =  -672.428167751     a.u. after    1 cycles
 Normal termination of Gaussian 16 at Thu Dec 10 22:49:47 2020.
 Gaussian 16:  ES64L-G16RevA.03 25-Dec-2016

 ----------------------------------------------------------------------
 # B3LYP/6-311++G(d,p) empiricaldispersion=gd3bj scf=xqc pop=npa geom=c
 heck
 ----------------------------------------------------------------------

 -----------------------------------
 CID_92338332_JID_6293_Energie_anion
 -----------------------------------
 Structure from the checkpoint file:  "JID_6293.chk"
 Charge = -1 Multiplicity = 2

                         Standard orientation:
 ---------------------------------------------------------------------
 Center     Atomic      Atomic             Coordinates (Angstroms)
 Number     Number       Type             X           Y           Z
 ---------------------------------------------------------------------
      1          6           0       -0.392858    2.105166    1.426972
      2          6           0       -0.768978    1.566985    0.045936
      3          6           0        0.463309    1.520180   -0.912403
      4          6           0        1.541365    0.523611   -0.576500
      5          6           0        1.631407   -0.699587   -1.252882
      6          6           0        2.616854   -1.610205   -0.884119
      7          6           0        3.485708   -1.273742    0.152613
      8          6           0        3.324954   -0.030970    0.765001
      9          7           0        2.384013    0.853810    0.417058
     10          6           0       -1.438813    0.192906    0.144813
     11          6           0       -2.668296   -0.051434   -0.475265
     12          6           0       -3.264176   -1.312607   -0.421065
     13          6           0       -2.640862   -2.354477    0.263439
     14          6           0       -1.421955   -2.119621    0.901382
     15          6           0       -0.828896   -0.859831    0.844057
     16          8           0       -1.668899    2.546343   -0.488075
     17          1           0        0.356782    1.477877    1.910597
     18          1           0       -1.287448    2.154153    2.054536
     19          1           0        0.022361    3.111426    1.321915
     20          1           0        0.081662    1.301998   -1.918860
     21          1           0        0.891832    2.527180   -0.923852
     22          1           0        0.924814   -0.932764   -2.042932
     23          1           0        2.701835   -2.566279   -1.393016
     24          1           0        4.269434   -1.950620    0.478092
     25          1           0        3.986397    0.273393    1.574494
     26          1           0       -3.182391    0.760373   -0.977818
     27          1           0       -4.221947   -1.475180   -0.908166
     28          1           0       -3.103525   -3.336433    0.308756
     29          1           0       -0.929531   -2.918689    1.448968
     30          1           0        0.116637   -0.699830    1.349979
     31          1           0       -1.796400    2.347741   -1.429379
 ---------------------------------------------------------------------

 SCF Done:  E(UB3LYP) =  -672.731623638     A.U. after   33 cycles
 SCF Done:  E(UB3LYP) =  -672.731623638     a.u. after    1 cycles

 The electronic state is 2-A.
 Alpha  occ. eigenvalues --  -19.02170 -14.18320 -10.13466 -10.09614 -10.08805
 Alpha  occ. eigenvalues --  -10.07498 -10.06894 -10.06798 -10.06739 -10.06711
 Alpha  occ. eigenvalues --  -10.06569 -10.06526 -10.06506 -10.06383 -10.06091
 Alpha  occ. eigenvalues --  -10.05256  -0.92779  -0.82732  -0.75249  -0.69571
 Alpha  occ. eigenvalues --   -0.68547  -0.65615  -0.64048  -0.62520  -0.58943
 Alpha  occ. eigenvalues --   -0.52245  -0.51521  -0.49969  -0.49368  -0.46498
 Alpha  occ. eigenvalues --   -0.42932  -0.40460  -0.38384  -0.37796  -0.35846
 Alpha  occ. eigenvalues --   -0.35619  -0.34402  -0.33280  -0.31895  -0.31779
 Alpha  occ. eigenvalues --   -0.30984  -0.28990  -0.28188  -0.27885  -0.27527
 Alpha  occ. eigenvalues --   -0.26895  -0.25871  -0.24906  -0.24221  -0.23631
 Alpha  occ. eigenvalues --   -0.22579  -0.18506  -0.17592  -0.15315  -0.14457
 Alpha  occ. eigenvalues --   -0.14186  -0.14025   0.04580
 Alpha virt. eigenvalues --    0.06513   0.07051   0.07343   0.08399   0.08804
 Alpha virt. eigenvalues --    0.08843   0.09136   0.09320   0.09654   0.09966
 Alpha virt. eigenvalues --    0.10531   0.11223   0.11509   0.12749   0.13005

  Beta  occ. eigenvalues --  -19.02151 -14.18105 -10.13457 -10.09603 -10.08743
  Beta  occ. eigenvalues --  -10.07505 -10.06892 -10.06759 -10.06726 -10.06676
  Beta  occ. eigenvalues --  -10.06543 -10.06508 -10.06508 -10.06189 -10.06069
  Beta  occ. eigenvalues --  -10.05246  -0.92736  -0.82439  -0.75199  -0.69502
  Beta  occ. eigenvalues --   -0.68243  -0.65520  -0.63970  -0.62470  -0.58863
  Beta  occ. eigenvalues --   -0.52210  -0.51271  -0.49879  -0.49210  -0.46434
  Beta  occ. eigenvalues --   -0.42884  -0.40361  -0.38327  -0.37700  -0.35753
  Beta  occ. eigenvalues --   -0.35557  -0.34332  -0.33232  -0.31841  -0.31719
  Beta  occ. eigenvalues --   -0.30903  -0.28793  -0.27979  -0.27828  -0.27436
  Beta  occ. eigenvalues --   -0.26730  -0.25771  -0.24830  -0.24125  -0.23583
  Beta  occ. eigenvalues --   -0.22533  -0.18417  -0.16641  -0.15074  -0.14329
  Beta  occ. eigenvalues --   -0.13976  -0.13717
  Beta virt. eigenvalues --    0.06861   0.07475   0.07892   0.08271   0.08672
  Beta virt. eigenvalues --    0.09044   0.09092   0.09351   0.09638   0.09913
  Beta virt. eigenvalues --    0.10194   0.10687   0.11486   0.11645   0.12760

 Mulliken charges and spin densities:
               1          2
     1  C   -0.318439  -0.255313
     2  C    0.832204  -0.963633
     3  C    1.222421  -1.533069
     4  C   -1.034770   1.010406
     5  C   -0.241900   0.349454
     6  C   -0.079910  -0.442948
     7  C    0.738299  -0.797150
     8  C   -0.355361   0.266864
     9  N   -0.041348   0.116709
    10  C   -0.437162   0.848661
    11  C    0.952117  -0.575946
    12  C    0.188757  -0.405533
    13  C    0.587929  -1.145033
    14  C   -0.472005   0.189927
    15  C   -1.372397   0.882715
    16  O   -0.148385  -0.011081
    17  H    0.119746   0.062889
    18  H    0.134118   0.017025
    19  H    0.147528  -0.001283
    20  H   -0.249792   0.408543
    21  H    0.236455  -0.017986
    22  H   -0.044061   0.185754
    23  H   -0.359167   0.516204
    24  H   -0.218979   0.375987
    25  H    0.025811   0.124152
    26  H   -0.282843   0.403630
    27  H   -0.349130   0.520154
    28  H   -0.210145   0.348370
    29  H   -0.272971   0.454018
    30  H    0.224997  -0.102511
    31  H    0.078382   0.170023
 Sum of Mulliken charges =  -1.00000   1.00000

 Dipole moment (field-independent basis, Debye):
    X=              0.6927    Y=              2.3143    Z=              1.4488  Tot=              2.8169
 Quadrupole moment (field-independent basis, Debye-Ang):
   XX=           -156.0053   YY=           -140.8019   ZZ=           -118.7740
   XY=              2.0075   XZ=             -1.1691   YZ=             -0.2746

 Summary of Natural Population Analysis:

                                       Natural Population
                Natural  -----------------------------------------------
    Atom  No    Charge         Core      Valence    Rydberg      Total
 -----------------------------------------------------------------------
      C    1   -0.28730      0.99961     2.28156    0.00613     3.28730
      C    2    0.13419      0.99949     1.85153    0.01478     2.86581
      C    3   -0.20744      0.99955     2.19563    0.01225     3.20744
      C    4    0.10453      0.99953     1.88057    0.01537     2.89547
      C    5   -0.11523      0.99950     2.10667    0.00907     3.11523
      C    6   -0.04938      0.99956     2.03957    0.01025     3.04938
      C    7   -0.13183      0.99956     2.12276    0.00951     3.13183
      C    8    0.03306      0.99959     1.95266    0.01470     2.96694
      N    9   -0.22363      0.99968     2.71317    0.01078     3.72363
      C   10   -0.02766      0.99946     2.01541    0.01279     3.02766
      C   11   -0.10193      0.99950     2.09190    0.01053     3.10193
      C   12   -0.09590      0.99956     2.08625    0.01008     3.09590
      C   13   -0.10836      0.99956     2.09909    0.00972     3.10836
      C   14   -0.09374      0.99956     2.08370    0.01048     3.09374
      C   15   -0.09683      0.99951     2.08817    0.00915     3.09683
      O   16   -0.37505      0.99989     3.36854    0.00662     4.37505
      H   17    0.11038      0.00000     0.38868    0.00093     0.38962
      H   18    0.10013      0.00000     0.39908    0.00078     0.39987
      H   19    0.10169      0.00000     0.39748    0.00083     0.39831
      H   20    0.09925      0.00000     0.39947    0.00128     0.40075
      H   21    0.10886      0.00000     0.38980    0.00134     0.39114
      H   22    0.10306      0.00000     0.39536    0.00158     0.39694
      H   23    0.09851      0.00000     0.40041    0.00108     0.40149
      H   24    0.10006      0.00000     0.39898    0.00096     0.39994
      H   25    0.08418      0.00000     0.41484    0.00097     0.41582
      H   26    0.10329      0.00000     0.39534    0.00136     0.39671
      H   27    0.09865      0.00000     0.40027    0.00108     0.40135
      H   28    0.09917      0.00000     0.39982    0.00101     0.40083
      H   29    0.10045      0.00000     0.39859    0.00096     0.39955
      H   30    0.10634      0.00000     0.39188    0.00178     0.39366
      H   31    0.22844      0.00000     0.26849    0.00307     0.27156
 =======================================================================
   * Total *   -0.00000     15.99311    40.81568    0.19121    57.00000

 Normal termination of Gaussian 16 at Thu Dec 10 23:02:35 2020.
