 Gaussian 16, Revision A.03,

 -----------------------------------------------------------
 # opt freq B3LYP/6-31G(d) empiricaldispersion=gd3bj scf=xqc
 -----------------------------------------------------------

 -------------------------------
 CID_152318930_JID_1351_neutraal
 -------------------------------
 Symbolic Z-matrix:
 Charge =  0 Multiplicity = 1

 SCF Done:  E(RB3LYP) =  -478.127537108     A.U. after   15 cycles
 SCF Done:  E(RB3LYP) =  -478.127565240     A.U. after   14 cycles
 SCF Done:  E(RB3LYP) =  -478.129562872     A.U. after   13 cycles
 SCF Done:  E(RB3LYP) =  -478.129728087     A.U. after   11 cycles
 SCF Done:  E(RB3LYP) =  -478.129746547     A.U. after   12 cycles
 SCF Done:  E(RB3LYP) =  -478.129772447     A.U. after   10 cycles
 SCF Done:  E(RB3LYP) =  -478.129787235     A.U. after   12 cycles
 SCF Done:  E(RB3LYP) =  -478.129805913     A.U. after   12 cycles
 SCF Done:  E(RB3LYP) =  -478.129826338     A.U. after   13 cycles
 SCF Done:  E(RB3LYP) =  -478.130130444     A.U. after   16 cycles
 SCF Done:  E(RB3LYP) =  -478.130303534     A.U. after   13 cycles
 SCF Done:  E(RB3LYP) =  -478.130308666     A.U. after   11 cycles
 SCF Done:  E(RB3LYP) =  -478.130317529     A.U. after   11 cycles
 SCF Done:  E(RB3LYP) =  -478.130319930     A.U. after    9 cycles
 SCF Done:  E(RB3LYP) =  -478.130320328     A.U. after    8 cycles
 SCF Done:  E(RB3LYP) =  -478.130320401     A.U. after    7 cycles
 Optimization completed.
    -- Stationary point found.

 1\1\GINC-NODE311\FOpt\RB3LYP\6-31G(d)\C8H15N3\VSC10255\08-Dec-2020\0\\
 # opt freq B3LYP/6-31G(d) empiricaldispersion=gd3bj scf=xqc\\CID_15231
 8930_JID_1351_neutraal\\0,1\C,2.4943049148,-0.1179657155,-0.3142200296
 \C,1.0157280126,-0.1872343582,0.0833632165\C,0.3137870593,1.1625358317
 ,-0.1514597859\C,-1.1471421966,1.1511332361,0.3151325373\C,-1.92850525
 28,-0.003580291,-0.3233982547\C,-1.2264943874,-1.3438612925,-0.0659224
 833\C,0.232243245,-1.3558947675,-0.5674664808\C,0.271670198,-1.3747162
 103,-2.1064272806\N,1.5184124573,-2.0106963075,-2.6045375219\N,2.22801

 Normal termination of Gaussian 16 at Tue Dec  8 19:51:00 2020.

 --------------------------------------------------------------------
 #N Geom=AllCheck Guess=TCheck SCRF=Check GenChk RB3LYP/6-31G(d) Freq
 --------------------------------------------------------------------

 Structure from the checkpoint file:  "JID_1351.chk"
 -------------------------------
 CID_152318930_JID_1351_neutraal
 -------------------------------
 Charge =  0 Multiplicity = 1

 SCF Done:  E(RB3LYP) =  -478.130320401     A.U. after    1 cycles

  Exact polarizability: 119.939  11.108  94.536  -7.759  -5.043  86.917
 Approx polarizability: 170.100  28.230 142.984 -32.177 -21.925 147.688

                      1                      2                      3
                      A                      A                      A
 Frequencies --     44.6049                58.5470               130.3959
 Red. masses --      4.3128                 7.0845                 3.3281
 Frc consts  --      0.0051                 0.0143                 0.0333
 IR Inten    --      0.8216                 0.0356                 1.3972

                      4                      5                      6
                      A                      A                      A
 Frequencies --    165.9323               209.7374               258.1798
 Red. masses --      2.7305                 3.3953                 2.8372
 Frc consts  --      0.0443                 0.0880                 0.1114
 IR Inten    --      0.5584                 0.5091                 2.9657

                      7                      8                      9
                      A                      A                      A
 Frequencies --    291.1184               302.9475               320.2758
 Red. masses --      1.5307                 1.5515                 2.5989
 Frc consts  --      0.0764                 0.0839                 0.1571
 IR Inten    --      0.2858                 0.0093                 1.2761

                     10                     11                     12
                      A                      A                      A
 Frequencies --    337.1709               387.4219               413.2326
 Red. masses --      2.4637                 1.8899                 3.4044
 Frc consts  --      0.1650                 0.1671                 0.3425
 IR Inten    --      2.9242                 0.3673                 0.2784

                     13                     14                     15
                      A                      A                      A
 Frequencies --    495.5716               539.1919               563.5718
 Red. masses --      2.4655                 2.2804                13.6081
 Frc consts  --      0.3567                 0.3906                 2.5465
 IR Inten    --      1.6026                 0.7663                 9.1694

                     16                     17                     18
                      A                      A                      A
 Frequencies --    588.2245               680.6461               757.7324
 Red. masses --      2.3280                 5.4507                 2.4533
 Frc consts  --      0.4746                 1.4878                 0.8299
 IR Inten    --      0.7203                11.3451                 0.5661

                     19                     20                     21
                      A                      A                      A
 Frequencies --    828.5383               848.7883               880.3003
 Red. masses --      1.4770                 2.6990                 2.3064
 Frc consts  --      0.5974                 1.1457                 1.0530
 IR Inten    --      2.1135                 1.1124                 0.6868

                     22                     23                     24
                      A                      A                      A
 Frequencies --    900.1357               920.3291               947.7087
 Red. masses --      1.6885                 2.1386                 2.8226
 Frc consts  --      0.8061                 1.0672                 1.4937
 IR Inten    --      2.2506                 3.4074                14.5150

                     25                     26                     27
                      A                      A                      A
 Frequencies --    981.7101              1001.0537              1007.2573
 Red. masses --      1.8009                 1.8647                 1.6316
 Frc consts  --      1.0226                 1.1010                 0.9753
 IR Inten    --      2.9933                 0.9898                 0.9124

                     28                     29                     30
                      A                      A                      A
 Frequencies --   1030.2666              1064.5137              1106.2855
 Red. masses --      1.5786                 1.6379                 1.7272
 Frc consts  --      0.9872                 1.0936                 1.2454
 IR Inten    --      1.5036                 0.1466                 0.1553

                     31                     32                     33
                      A                      A                      A
 Frequencies --   1118.4550              1126.4845              1167.2162
 Red. masses --      2.7030                 1.3903                 1.5473
 Frc consts  --      1.9922                 1.0395                 1.2420
 IR Inten    --      1.7216                 1.6245                 0.5800

                     34                     35                     36
                      A                      A                      A
 Frequencies --   1187.6259              1253.0126              1258.1145
 Red. masses --      2.0981                 1.5437                 1.3026
 Frc consts  --      1.7436                 1.4280                 1.2148
 IR Inten    --      0.2406                 4.7466                 4.7928

                     37                     38                     39
                      A                      A                      A
 Frequencies --   1289.8881              1295.7085              1325.9328
 Red. masses --      1.3140                 1.2219                 1.2479
 Frc consts  --      1.2881                 1.2087                 1.2926
 IR Inten    --      1.7453                 0.3205                 3.8183

                     40                     41                     42
                      A                      A                      A
 Frequencies --   1353.9899              1356.4587              1378.2187
 Red. masses --      1.4297                 1.9270                 1.3370
 Frc consts  --      1.5443                 2.0891                 1.4963
 IR Inten    --     28.4162                74.6403                 0.7208

                     43                     44                     45
                      A                      A                      A
 Frequencies --   1386.2438              1392.5693              1400.1123
 Red. masses --      1.4099                 1.9967                 1.4271
 Frc consts  --      1.5963                 2.2814                 1.6483
 IR Inten    --      6.5705                19.0559                 1.8239

                     46                     47                     48
                      A                      A                      A
 Frequencies --   1402.7091              1422.2212              1430.8343
 Red. masses --      1.5088                 1.5649                 1.3625
 Frc consts  --      1.7491                 1.8649                 1.6435
 IR Inten    --      6.7568                 0.7762                 5.7013

                     49                     50                     51
                      A                      A                      A
 Frequencies --   1447.4780              1510.4411              1517.6679
 Red. masses --      1.2456                 1.0838                 1.0912
 Frc consts  --      1.5376                 1.4568                 1.4809
 IR Inten    --      2.8293                 3.9368                 4.3415

                     52                     53                     54
                      A                      A                      A
 Frequencies --   1523.0025              1525.2119              1529.2445
 Red. masses --      1.0829                 1.0618                 1.0730
 Frc consts  --      1.4800                 1.4552                 1.4784
 IR Inten    --      5.8101                 6.3756                16.5184

                     55                     56                     57
                      A                      A                      A
 Frequencies --   1536.1732              1544.9363              2263.6631
 Red. masses --      1.0947                 1.0554                13.6035
 Frc consts  --      1.5220                 1.4842                41.0699
 IR Inten    --      1.3272                 5.0444               519.7528

                     58                     59                     60
                      A                      A                      A
 Frequencies --   3000.8689              3021.7433              3025.7754
 Red. masses --      1.0821                 1.0706                 1.0659
 Frc consts  --      5.7411                 5.7596                 5.7496
 IR Inten    --     12.1714                12.0082                25.4581

                     61                     62                     63
                      A                      A                      A
 Frequencies --   3028.6864              3031.8663              3046.9437
 Red. masses --      1.0645                 1.0623                 1.0772
 Frc consts  --      5.7533                 5.7535                 5.8924
 IR Inten    --     15.8637                34.0847                36.6633

                     64                     65                     66
                      A                      A                      A
 Frequencies --   3051.3462              3053.7989              3068.4835
 Red. masses --      1.0406                 1.0597                 1.0957
 Frc consts  --      5.7084                 5.8225                 6.0783
 IR Inten    --     37.4449                21.3369                57.3472

                     67                     68                     69
                      A                      A                      A
 Frequencies --   3070.7319              3075.3368              3081.2239
 Red. masses --      1.0996                 1.0937                 1.1040
 Frc consts  --      6.1089                 6.0942                 6.1756
 IR Inten    --     31.6219                55.6899                83.0248

                     70                     71                     72
                      A                      A                      A
 Frequencies --   3100.9969              3112.4278              3125.3474
 Red. masses --      1.1067                 1.1013                 1.1023
 Frc consts  --      6.2704                 6.2856                 6.3440
 IR Inten    --     27.9051                40.7648                28.2042

 - Thermochemistry -
 -------------------
 Temperature   298.150 Kelvin.  Pressure   1.00000 Atm.
 Atom     1 has atomic number  6 and mass  12.00000

 Molecular mass:   153.12660 amu.
 Principal axes and moments of inertia in atomic units:
                           1         2         3
     Eigenvalues --   945.307802557.592422906.63127
           X            0.99983   0.01266   0.01331
           Y           -0.01292   0.99973   0.01952
           Z           -0.01306  -0.01969   0.99972
 This molecule is an asymmetric top.
 Rotational symmetry number  1.
 Warning -- assumption of classical behavior for rotation
           may cause significant error
 Rotational temperatures (Kelvin)      0.09163     0.03387     0.02980
 Rotational constants (GHZ):           1.90916     0.70564     0.62090
 Zero-point vibrational energy     609500.8 (Joules/Mol)
                                  145.67419 (Kcal/Mol)
 Warning -- explicit consideration of  16 degrees of freedom as
           vibrations may cause significant error
 Vibrational temperatures:     64.18    84.24   187.61   238.74   301.77
          (Kelvin)            371.46   418.85   435.87   460.81   485.11
                              557.41   594.55   713.02   775.78   810.85
                              846.32   979.30  1090.21  1192.08  1221.22
                             1266.56  1295.09  1324.15  1363.54  1412.46
                             1440.29  1449.22  1482.32  1531.60  1591.70
                             1609.21  1620.76  1679.36  1708.73  1802.81
                             1810.15  1855.86  1864.24  1907.72  1948.09
                             1951.64  1982.95  1994.50  2003.60  2014.45
                             2018.19  2046.26  2058.65  2082.60  2173.19
                             2183.59  2191.26  2194.44  2200.24  2210.21
                             2222.82  3256.91  4317.58  4347.61  4353.42
                             4357.60  4362.18  4383.87  4390.21  4393.74
                             4414.86  4418.10  4424.72  4433.19  4461.64
                             4478.09  4496.68

 Zero-point correction=                           0.232147 (Hartree/Particle)
 Thermal correction to Energy=                    0.242969
 Thermal correction to Enthalpy=                  0.243913
 Thermal correction to Gibbs Free Energy=         0.195386
 Sum of electronic and zero-point Energies=           -477.898174
 Sum of electronic and thermal Energies=              -477.887352
 Sum of electronic and thermal Enthalpies=            -477.886407
 Sum of electronic and thermal Free Energies=         -477.934935

                     E (Thermal)             CV                S
                      KCal/Mol        Cal/Mol-Kelvin    Cal/Mol-Kelvin
 Total                  152.465             41.504            102.134
 Electronic               0.000              0.000              0.000
 Translational            0.889              2.981             40.988
 Rotational               0.889              2.981             30.331
 Vibrational            150.688             35.543             30.815
 Vibration     1          0.595              1.980              5.043
 Vibration     2          0.596              1.974              4.506
 Vibration     3          0.612              1.923              2.940
 Vibration     4          0.624              1.884              2.481
 Vibration     5          0.642              1.826              2.046
 Vibration     6          0.667              1.749              1.674
 Vibration     7          0.687              1.690              1.467
 Vibration     8          0.694              1.668              1.401
 Vibration     9          0.706              1.635              1.309
 Vibration    10          0.718              1.601              1.226
 Vibration    11          0.756              1.497              1.010
 Vibration    12          0.777              1.442              0.915
 Vibration    13          0.851              1.260              0.669
 Vibration    14          0.894              1.163              0.567
 Vibration    15          0.919              1.110              0.517
 Vibration    16          0.945              1.057              0.470

                           ! Non-Optimized Parameters !

 1\1\GINC-NODE311\Freq\RB3LYP\6-31G(d)\C8H15N3\VSC10255\08-Dec-2020\0\\
 #N Geom=AllCheck Guess=TCheck SCRF=Check GenChk RB3LYP/6-31G(d) Freq\\
 CID_152318930_JID_1351_neutraal\\0,1\C,2.4943049148,-0.1179657155,-0.3
 142200296\C,1.0157280126,-0.1872343582,0.0833632165\C,0.3137870593,1.1
 625358317,-0.1514597859\C,-1.1471421966,1.1511332361,0.3151325373\C,-1
 .9285052528,-0.003580291,-0.3233982547\C,-1.2264943874,-1.3438612925,-
 0.0659224833\C,0.232243245,-1.3558947675,-0.5674664808\C,0.271670198,-
 1.3747162103,-2.1064272806\N,1.5184124573,-2.0106963075,-2.6045375219\

 Normal termination of Gaussian 16 at Tue Dec  8 19:56:43 2020.

 ----------------------------------------------------------------------
 # B3LYP/6-311++G(d,p) empiricaldispersion=gd3bj scf=xqc pop=npa geom=c
 heck
 ----------------------------------------------------------------------

 ---------------------------------------
 CID_152318930_JID_1351_Energie_neutraal
 ---------------------------------------
 Structure from the checkpoint file:  "JID_1351.chk"
 Charge =  0 Multiplicity = 1

 SCF Done:  E(RB3LYP) =  -478.259829521     A.U. after   14 cycles
 Normal termination of Gaussian 16 at Tue Dec  8 19:58:54 2020.

 ----------------------------------------------------------------------
 # B3LYP/6-311++G(d,p) empiricaldispersion=gd3bj scf=xqc pop=npa geom=c
 heck
 ----------------------------------------------------------------------

 -------------------------------------
 CID_152318930_JID_1351_Energie_kation
 -------------------------------------
 Structure from the checkpoint file:  "JID_1351.chk"
 Charge =  1 Multiplicity = 2

 SCF Done:  E(UB3LYP) =  -477.922227592     A.U. after   25 cycles
 Normal termination of Gaussian 16 at Tue Dec  8 20:04:30 2020.
 Gaussian 16:  ES64L-G16RevA.03 25-Dec-2016

 ------------------------------------
 CID_152318930_JID_1351_Energie_anion
 ------------------------------------
 Structure from the checkpoint file:  "JID_1351.chk"
 Charge = -1 Multiplicity = 2

                         Standard orientation:
 ---------------------------------------------------------------------
 Center     Atomic      Atomic             Coordinates (Angstroms)
 Number     Number       Type             X           Y           Z
 ---------------------------------------------------------------------
      1          6           0        0.710260    1.831436    0.815535
      2          6           0       -0.564157    0.992399    0.670835
      3          6           0       -1.293669    1.313316   -0.646195
      4          6           0       -2.617546    0.551111   -0.782371
      5          6           0       -2.412989   -0.958932   -0.610500
      6          6           0       -1.700963   -1.264460    0.714316
      7          6           0       -0.349015   -0.533019    0.844067
      8          6           0        0.688371   -1.146295   -0.114074
      9          7           0        2.070598   -0.952962    0.394868
     10          7           0        2.840024   -0.342078   -0.345186
     11          7           0        3.634628    0.223405   -0.943453
     12          1           0        1.372924    1.725672   -0.050483
     13          1           0        0.455071    2.894657    0.892282
     14          1           0        1.279317    1.552445    1.708558
     15          1           0       -1.240666    1.283309    1.489312
     16          1           0       -1.471188    2.394655   -0.705362
     17          1           0       -0.640721    1.069118   -1.497141
     18          1           0       -3.083525    0.767844   -1.751415
     19          1           0       -3.316647    0.906065   -0.011244
     20          1           0       -1.820897   -1.346789   -1.451822
     21          1           0       -3.376684   -1.481290   -0.646049
     22          1           0       -1.552752   -2.345651    0.831274
     23          1           0       -2.347428   -0.946570    1.543727
     24          1           0        0.037692   -0.708338    1.856543
     25          1           0        0.530388   -2.229226   -0.171097
     26          1           0        0.596617   -0.747802   -1.130356
 ---------------------------------------------------------------------

 SCF Done:  E(UB3LYP) =  -478.248731063     A.U. after   32 cycles

 The electronic state is 2-A.
 Alpha  occ. eigenvalues --  -14.34101 -14.24148 -14.23172 -10.09658 -10.06419
 Alpha  occ. eigenvalues --  -10.06304 -10.05594 -10.05455 -10.05340 -10.05309
 Alpha  occ. eigenvalues --  -10.04986  -1.00871  -0.85172  -0.73417  -0.66167
 Alpha  occ. eigenvalues --   -0.65479  -0.60195  -0.56231  -0.49744  -0.47883
 Alpha  occ. eigenvalues --   -0.44335  -0.41816  -0.39753  -0.37712  -0.36513
 Alpha  occ. eigenvalues --   -0.34311  -0.33466  -0.32510  -0.32032  -0.30866
 Alpha  occ. eigenvalues --   -0.29364  -0.27995  -0.26661  -0.25927  -0.24129
 Alpha  occ. eigenvalues --   -0.23993  -0.22175  -0.20951  -0.19236  -0.18872
 Alpha  occ. eigenvalues --   -0.18120  -0.12917   0.04782
 Alpha virt. eigenvalues --    0.07158   0.07724   0.08157   0.08969   0.10152
 Alpha virt. eigenvalues --    0.10441   0.10824   0.11439   0.11680   0.12802
 Alpha virt. eigenvalues --    0.13207   0.13703   0.14112   0.14255   0.15059

  Beta  occ. eigenvalues --  -14.33886 -14.23841 -14.23228 -10.09573 -10.06410
  Beta  occ. eigenvalues --  -10.06296 -10.05581 -10.05431 -10.05315 -10.05283
  Beta  occ. eigenvalues --  -10.04975  -1.00446  -0.84958  -0.73373  -0.66086
  Beta  occ. eigenvalues --   -0.65434  -0.60078  -0.56158  -0.49676  -0.47816
  Beta  occ. eigenvalues --   -0.44219  -0.41706  -0.39304  -0.37267  -0.36328
  Beta  occ. eigenvalues --   -0.34172  -0.33339  -0.32016  -0.31861  -0.30818
  Beta  occ. eigenvalues --   -0.29242  -0.27909  -0.26598  -0.25870  -0.24094
  Beta  occ. eigenvalues --   -0.23933  -0.22125  -0.20853  -0.19194  -0.18820
  Beta  occ. eigenvalues --   -0.17656  -0.12835
  Beta virt. eigenvalues --    0.07312   0.08351   0.08569   0.09079   0.10051
  Beta virt. eigenvalues --    0.10664   0.10948   0.11266   0.11797   0.11958
  Beta virt. eigenvalues --    0.13039   0.13590   0.14093   0.14442   0.14516

 Mulliken charges and spin densities:
               1          2
     1  C    0.064053  -0.845299
     2  C   -0.219327   0.423284
     3  C   -0.577547   0.360605
     4  C    0.719348  -1.238927
     5  C    0.343340  -0.667422
     6  C    0.678516  -1.199414
     7  C   -0.606595   1.110345
     8  C    0.968811  -1.832081
     9  N    0.026035  -0.212364
    10  N    0.123797   0.350868
    11  N   -0.452022   0.289528
    12  H    0.139141  -0.000193
    13  H   -0.076099   0.208878
    14  H   -0.007234   0.159671
    15  H   -0.244983   0.428215
    16  H    0.039398   0.112828
    17  H   -0.014343   0.145268
    18  H   -0.389851   0.547603
    19  H   -0.051948   0.184863
    20  H    0.038384   0.080955
    21  H   -0.672114   0.856301
    22  H   -0.271689   0.430471
    23  H   -0.304475   0.447357
    24  H   -0.164145   0.400499
    25  H   -0.278195   0.493770
    26  H    0.189744  -0.035609
 Sum of Mulliken charges =  -1.00000   1.00000

 Dipole moment (field-independent basis, Debye):
    X=              2.1818    Y=              1.7745    Z=             -0.6382  Tot=              2.8838
 Quadrupole moment (field-independent basis, Debye-Ang):
   XX=           -136.5215   YY=           -103.8366   ZZ=            -97.7325
   XY=             -4.2877   XZ=              0.8996   YZ=              2.0790

 Summary of Natural Population Analysis:

                                       Natural Population
                Natural  -----------------------------------------------
    Atom  No    Charge         Core      Valence    Rydberg      Total
 -----------------------------------------------------------------------
      C    1   -0.28669      0.99965     2.27974    0.00731     3.28669
      C    2   -0.10864      0.99958     2.09872    0.01034     3.10864
      C    3   -0.18883      0.99961     2.17984    0.00938     3.18883
      C    4   -0.18803      0.99963     2.17979    0.00861     3.18803
      C    5   -0.19021      0.99963     2.18190    0.00868     3.19021
      C    6   -0.18723      0.99961     2.17749    0.01013     3.18723
      C    7   -0.11330      0.99956     2.10128    0.01246     3.11330
      C    8   -0.08962      0.99955     2.07809    0.01198     3.08962
      N    9   -0.19942      0.99970     2.68567    0.01405     3.69942
      N   10    0.13232      0.99970     2.35294    0.01504     3.36768
      N   11   -0.03446      0.99982     2.52116    0.01348     3.53446
      H   12    0.09754      0.00000     0.40136    0.00110     0.40246
      H   13    0.09603      0.00000     0.40314    0.00082     0.40397
      H   14    0.10232      0.00000     0.39673    0.00094     0.39768
      H   15    0.09496      0.00000     0.40325    0.00179     0.40504
      H   16    0.09860      0.00000     0.40047    0.00093     0.40140
      H   17    0.09124      0.00000     0.40737    0.00139     0.40876
      H   18    0.09708      0.00000     0.40183    0.00109     0.40292
      H   19    0.09347      0.00000     0.40492    0.00162     0.40653
      H   20    0.09129      0.00000     0.40737    0.00134     0.40871
      H   21    0.10111      0.00000     0.39701    0.00188     0.39889
      H   22    0.09958      0.00000     0.39893    0.00149     0.40042
      H   23    0.09784      0.00000     0.40032    0.00184     0.40216
      H   24    0.10448      0.00000     0.39348    0.00204     0.39552
      H   25    0.09776      0.00000     0.40071    0.00153     0.40224
      H   26    0.09081      0.00000     0.40765    0.00154     0.40919
 =======================================================================
   * Total *    0.00000     10.99603    30.86115    0.14282    42.00000

 Normal termination of Gaussian 16 at Tue Dec  8 20:10:44 2020.
