 Gaussian 16, Revision A.03,

 -----------------------------------------------------------
 # opt freq B3LYP/6-31G(d) empiricaldispersion=gd3bj scf=xqc
 -----------------------------------------------------------

 --------------------------------
 CID_146345743_JID_10534_neutraal
 --------------------------------
 Symbolic Z-matrix:
 Charge =  0 Multiplicity = 1

 SCF Done:  E(RB3LYP) =  -1272.75729559     A.U. after   15 cycles
 SCF Done:  E(RB3LYP) =  -1272.76663167     A.U. after   13 cycles
 SCF Done:  E(RB3LYP) =  -1272.76844624     A.U. after   13 cycles
 SCF Done:  E(RB3LYP) =  -1272.77026228     A.U. after   12 cycles
 SCF Done:  E(RB3LYP) =  -1272.77057275     A.U. after   12 cycles
 SCF Done:  E(RB3LYP) =  -1272.77068315     A.U. after   11 cycles
 SCF Done:  E(RB3LYP) =  -1272.77075344     A.U. after   10 cycles
 SCF Done:  E(RB3LYP) =  -1272.77080576     A.U. after   11 cycles
 SCF Done:  E(RB3LYP) =  -1272.77081754     A.U. after   10 cycles
 SCF Done:  E(RB3LYP) =  -1272.77082587     A.U. after    9 cycles
 SCF Done:  E(RB3LYP) =  -1272.77084007     A.U. after    9 cycles
 SCF Done:  E(RB3LYP) =  -1272.77084161     A.U. after    9 cycles
 SCF Done:  E(RB3LYP) =  -1272.77084225     A.U. after    9 cycles
 SCF Done:  E(RB3LYP) =  -1272.77084294     A.U. after    8 cycles
 SCF Done:  E(RB3LYP) =  -1272.77084300     A.U. after    7 cycles
 Optimization completed.
    -- Stationary point found.
 Normal termination of Gaussian 16 at Sat Dec 12 15:56:05 2020.

 --------------------------------------------------------------------
 #N Geom=AllCheck Guess=TCheck SCRF=Check GenChk RB3LYP/6-31G(d) Freq
 --------------------------------------------------------------------

 Structure from the checkpoint file:  "JID_10534.chk"
 --------------------------------
 CID_146345743_JID_10534_neutraal
 --------------------------------
 Charge =  0 Multiplicity = 1

 SCF Done:  E(RB3LYP) =  -1272.77084300     A.U. after    1 cycles

  Exact polarizability: 249.370  16.254 208.483  11.241  -4.963 106.097
 Approx polarizability: 363.726  28.225 344.094  21.746 -10.093 165.119

                      1                      2                      3
                      A                      A                      A
 Frequencies --     20.0341                34.4982                48.6183
 Red. masses --      5.2139                 6.3250                 5.0388
 Frc consts  --      0.0012                 0.0044                 0.0070
 IR Inten    --      1.1111                 0.5925                 0.3648

                      4                      5                      6
                      A                      A                      A
 Frequencies --     73.1510                83.0666                86.4287
 Red. masses --      4.3510                 1.1785                 3.4117
 Frc consts  --      0.0137                 0.0048                 0.0150
 IR Inten    --      0.2243                 0.9899                 0.1596

                      7                      8                      9
                      A                      A                      A
 Frequencies --     99.5180               118.6083               128.1139
 Red. masses --      3.4132                 3.2304                 4.6122
 Frc consts  --      0.0199                 0.0268                 0.0446
 IR Inten    --      1.2505                 0.5161                 3.9949

                     10                     11                     12
                      A                      A                      A
 Frequencies --    156.1612               189.2504               233.1294
 Red. masses --      4.5279                 6.2918                 4.0000
 Frc consts  --      0.0651                 0.1328                 0.1281
 IR Inten    --      0.7210                 0.0725                 3.9709

                     13                     14                     15
                      A                      A                      A
 Frequencies --    241.6238               287.4347               316.3719
 Red. masses --      4.4040                 3.5650                 4.8571
 Frc consts  --      0.1515                 0.1735                 0.2864
 IR Inten    --      3.9103                 1.0842                 0.9639

                     16                     17                     18
                      A                      A                      A
 Frequencies --    348.9761               375.4190               385.3639
 Red. masses --      3.9034                 3.6764                 2.6017
 Frc consts  --      0.2801                 0.3053                 0.2276
 IR Inten    --      0.9847                17.0340                 8.2363

                     19                     20                     21
                      A                      A                      A
 Frequencies --    394.2727               403.1964               414.0052
 Red. masses --      3.0312                 7.4809                 1.2766
 Frc consts  --      0.2776                 0.7165                 0.1289
 IR Inten    --      9.5264                 0.0576                37.4625

                     22                     23                     24
                      A                      A                      A
 Frequencies --    429.2049               508.4715               520.5326
 Red. masses --      3.4317                 5.3475                 1.3666
 Frc consts  --      0.3725                 0.8146                 0.2182
 IR Inten    --      7.4235                 1.7300                 6.7431

                     25                     26                     27
                      A                      A                      A
 Frequencies --    523.1560               548.6917               561.2992
 Red. masses --      4.4652                 3.4371                 4.2926
 Frc consts  --      0.7200                 0.6097                 0.7968
 IR Inten    --      8.0962                24.7407                11.1077

                     28                     29                     30
                      A                      A                      A
 Frequencies --    568.8049               579.9765               629.8306
 Red. masses --      4.8356                 1.4648                 1.9194
 Frc consts  --      0.9218                 0.2903                 0.4486
 IR Inten    --      2.0806               101.4327                57.5732

                     31                     32                     33
                      A                      A                      A
 Frequencies --    642.1014               646.5309               661.6440
 Red. masses --      5.5133                 4.8885                 4.9593
 Frc consts  --      1.3393                 1.2040                 1.2791
 IR Inten    --     25.0322                44.1606                18.6983

                     34                     35                     36
                      A                      A                      A
 Frequencies --    724.5110               731.9616               758.4731
 Red. masses --      2.8953                 2.3083                 5.9257
 Frc consts  --      0.8954                 0.7287                 2.0085
 IR Inten    --     99.8262               109.9570                18.9159

                     37                     38                     39
                      A                      A                      A
 Frequencies --    760.7097               771.7992               803.6294
 Red. masses --      4.9045                 7.5021                 2.5423
 Frc consts  --      1.6722                 2.6330                 0.9674
 IR Inten    --      8.0052                47.9970                13.4391

                     40                     41                     42
                      A                      A                      A
 Frequencies --    816.7524               825.4371               869.5289
 Red. masses --      2.2676                 1.6090                 4.0397
 Frc consts  --      0.8912                 0.6459                 1.7996
 IR Inten    --     58.1804                 7.4556                15.5804

                     43                     44                     45
                      A                      A                      A
 Frequencies --    906.6429               919.0908               928.5114
 Red. masses --      2.4582                 1.2768                 3.4543
 Frc consts  --      1.1905                 0.6355                 1.7546
 IR Inten    --     11.2596                 0.8323                22.1316

                     46                     47                     48
                      A                      A                      A
 Frequencies --    970.1646               987.3853              1004.4322
 Red. masses --      2.0168                 2.8424                 2.4252
 Frc consts  --      1.1184                 1.6327                 1.4416
 IR Inten    --      7.4717                 6.9032                10.9762

                     49                     50                     51
                      A                      A                      A
 Frequencies --   1025.0542              1044.1220              1058.1470
 Red. masses --      2.8212                 2.2331                 2.1604
 Frc consts  --      1.7466                 1.4344                 1.4252
 IR Inten    --      5.9784                56.6463                 8.8948

                     52                     53                     54
                      A                      A                      A
 Frequencies --   1062.6166              1093.5656              1147.1678
 Red. masses --      1.4262                 1.6573                 2.4118
 Frc consts  --      0.9489                 1.1677                 1.8700
 IR Inten    --      0.9011                 4.7616                11.9268

                     55                     56                     57
                      A                      A                      A
 Frequencies --   1160.1836              1176.7176              1185.5074
 Red. masses --      1.7143                 2.7912                 1.7527
 Frc consts  --      1.3596                 2.2771                 1.4513
 IR Inten    --      2.6742                34.1541                51.9261

                     58                     59                     60
                      A                      A                      A
 Frequencies --   1200.9997              1220.5644              1226.8970
 Red. masses --      2.6953                 1.5866                 1.4909
 Frc consts  --      2.2906                 1.3926                 1.3222
 IR Inten    --     45.4558                28.2001               264.0464

                     61                     62                     63
                      A                      A                      A
 Frequencies --   1244.5245              1249.6833              1269.0924
 Red. masses --      1.7382                 1.6517                 1.6115
 Frc consts  --      1.5862                 1.5197                 1.5292
 IR Inten    --     38.4188                37.7535                11.8625

                     64                     65                     66
                      A                      A                      A
 Frequencies --   1282.4667              1334.4085              1338.5610
 Red. masses --      1.3680                 1.3617                 2.4640
 Frc consts  --      1.3256                 1.4286                 2.6011
 IR Inten    --     18.6518                 3.8451                98.5458

                     67                     68                     69
                      A                      A                      A
 Frequencies --   1346.6115              1356.4822              1368.5214
 Red. masses --      4.2998                 1.4175                 1.4222
 Frc consts  --      4.5939                 1.5368                 1.5693
 IR Inten    --     10.7725                22.1788                 1.7403

                     70                     71                     72
                      A                      A                      A
 Frequencies --   1381.6325              1401.1638              1432.5297
 Red. masses --      3.9477                 1.5105                 1.3019
 Frc consts  --      4.4399                 1.7473                 1.5742
 IR Inten    --      9.5042                14.0300                 6.7651

                     73                     74                     75
                      A                      A                      A
 Frequencies --   1453.9382              1462.9082              1484.7420
 Red. masses --      3.6650                 2.5838                 1.9229
 Frc consts  --      4.5648                 3.2579                 2.4975
 IR Inten    --     25.9244               129.0395               156.1729

                     76                     77                     78
                      A                      A                      A
 Frequencies --   1504.9868              1505.6435              1520.1906
 Red. masses --      1.0778                 1.0658                 1.0883
 Frc consts  --      1.4384                 1.4236                 1.4818
 IR Inten    --     13.9242                12.5356                 4.5012

                     79                     80                     81
                      A                      A                      A
 Frequencies --   1532.2340              1544.3852              1562.5408
 Red. masses --      3.8532                 1.1001                 1.0951
 Frc consts  --      5.3299                 1.5459                 1.5754
 IR Inten    --     83.6037                 1.4832                 3.7983

                     82                     83                     84
                      A                      A                      A
 Frequencies --   1605.8139              1621.1338              1639.6435
 Red. masses --      6.6690                 4.3829                 3.0620
 Frc consts  --     10.1321                 6.7866                 4.8502
 IR Inten    --     79.1879                 9.8000                18.4636

                     85                     86                     87
                      A                      A                      A
 Frequencies --   1671.2762              1849.7806              3015.9490
 Red. masses --      1.6620                 7.8400                 1.0720
 Frc consts  --      2.7351                15.8054                 5.7449
 IR Inten    --     82.3830               676.0500                42.1245

                     88                     89                     90
                      A                      A                      A
 Frequencies --   3056.8617              3061.8887              3085.6190
 Red. masses --      1.0370                 1.0615                 1.0643
 Frc consts  --      5.7094                 5.8632                 5.9703
 IR Inten    --     18.6460                21.1562                29.5233

                     91                     92                     93
                      A                      A                      A
 Frequencies --   3103.2042              3112.3834              3119.9163
 Red. masses --      1.0938                 1.1013                 1.1041
 Frc consts  --      6.2060                 6.2856                 6.3318
 IR Inten    --      9.8909                 8.6563                17.0811

                     94                     95                     96
                      A                      A                      A
 Frequencies --   3135.3611              3140.0711              3160.1168
 Red. masses --      1.0913                 1.0992                 1.1011
 Frc consts  --      6.3209                 6.3858                 6.4788
 IR Inten    --     14.8923                27.6247                 5.4928

                     97                     98                     99
                      A                      A                      A
 Frequencies --   3184.3972              3213.4085              3519.2592
 Red. masses --      1.0883                 1.0938                 1.0482
 Frc consts  --      6.5021                 6.6545                 7.6489
 IR Inten    --     12.5135                11.9578                12.5474

                    100                    101                    102
                      A                      A                      A
 Frequencies --   3625.2945              3631.7029              3738.2162
 Red. masses --      1.0763                 1.0962                 1.0646
 Frc consts  --      8.3340                 8.5187                 8.7656
 IR Inten    --     51.2251                14.9060                87.2221

 - Thermochemistry -
 -------------------
 Temperature   298.150 Kelvin.  Pressure   1.00000 Atm.
 Atom     1 has atomic number  6 and mass  12.00000

 Molecular mass:   292.09940 amu.
 Principal axes and moments of inertia in atomic units:
                           1         2         3
     Eigenvalues --  2975.41884********************
           X            0.99998   0.00368   0.00480
           Y           -0.00366   0.99999  -0.00294
           Z           -0.00481   0.00292   0.99998
 This molecule is an asymmetric top.
 Rotational symmetry number  1.
 Warning -- assumption of classical behavior for rotation
           may cause significant error
 Rotational temperatures (Kelvin)      0.02911     0.00809     0.00680
 Rotational constants (GHZ):           0.60655     0.16866     0.14170
 Zero-point vibrational energy     762658.9 (Joules/Mol)
                                  182.27984 (Kcal/Mol)
 Warning -- explicit consideration of  29 degrees of freedom as
           vibrations may cause significant error
 Vibrational temperatures:     28.82    49.64    69.95   105.25   119.51
          (Kelvin)            124.35   143.18   170.65   184.33   224.68
                              272.29   335.42   347.64   413.55   455.19
                              502.10   540.14   554.45   567.27   580.11
                              595.66   617.53   731.58   748.93   752.70
                              789.44   807.58   818.38   834.46   906.19
                              923.84   930.21   951.96  1042.41  1053.13
                             1091.27  1094.49  1110.45  1156.24  1175.12
                             1187.62  1251.06  1304.46  1322.37  1335.92
                             1395.85  1420.63  1445.15  1474.82  1502.26
                             1522.44  1528.87  1573.40  1650.52  1669.25
                             1693.03  1705.68  1727.97  1756.12  1765.23
                             1790.59  1798.02  1825.94  1845.18  1919.92
                             1925.89  1937.47  1951.68  1969.00  1987.86
                             2015.96  2061.09  2091.89  2104.80  2136.21
                             2165.34  2166.29  2187.22  2204.54  2222.03
                             2248.15  2310.41  2332.45  2359.08  2404.59
                             2661.42  4339.28  4398.14  4405.37  4439.52
                             4464.82  4478.03  4488.86  4511.09  4517.86
                             4546.70  4581.64  4623.38  5063.43  5215.99
                             5225.21  5378.46

 Zero-point correction=                           0.290481 (Hartree/Particle)
 Thermal correction to Energy=                    0.309003
 Thermal correction to Enthalpy=                  0.309947
 Thermal correction to Gibbs Free Energy=         0.242009
 Sum of electronic and zero-point Energies=          -1272.480362
 Sum of electronic and thermal Energies=             -1272.461840
 Sum of electronic and thermal Enthalpies=           -1272.460896
 Sum of electronic and thermal Free Energies=        -1272.528834

                     E (Thermal)             CV                S
                      KCal/Mol        Cal/Mol-Kelvin    Cal/Mol-Kelvin
 Total                  193.902             70.760            142.987
 Electronic               0.000              0.000              0.000
 Translational            0.889              2.981             42.913
 Rotational               0.889              2.981             34.360
 Vibrational            192.125             64.799             65.713
 Vibration     1          0.593              1.986              6.631
 Vibration     2          0.594              1.983              5.552
 Vibration     3          0.595              1.978              4.873
 Vibration     4          0.599              1.967              4.067
 Vibration     5          0.600              1.961              3.817
 Vibration     6          0.601              1.959              3.739
 Vibration     7          0.604              1.949              3.464
 Vibration     8          0.609              1.934              3.123
 Vibration     9          0.611              1.925              2.974
 Vibration    10          0.620              1.896              2.596
 Vibration    11          0.633              1.855              2.235
 Vibration    12          0.654              1.790              1.855
 Vibration    13          0.658              1.777              1.791
 Vibration    14          0.685              1.697              1.489
 Vibration    15          0.703              1.642              1.329
 Vibration    16          0.726              1.577              1.171
 Vibration    17          0.746              1.522              1.058
 Vibration    18          0.754              1.501              1.018
 Vibration    19          0.761              1.482              0.984
 Vibration    20          0.769              1.463              0.951
 Vibration    21          0.778              1.440              0.913
 Vibration    22          0.791              1.407              0.861
 Vibration    23          0.864              1.231              0.637
 Vibration    24          0.876              1.205              0.609
 Vibration    25          0.878              1.199              0.603
 Vibration    26          0.904              1.143              0.547
 Vibration    27          0.917              1.115              0.521
 Vibration    28          0.925              1.099              0.507
 Vibration    29          0.937              1.075              0.485

                           ! Non-Optimized Parameters !
 Normal termination of Gaussian 16 at Sat Dec 12 16:16:44 2020.

 ----------------------------------------------------------------------
 # B3LYP/6-311++G(d,p) empiricaldispersion=gd3bj scf=xqc pop=npa geom=c
 heck
 ----------------------------------------------------------------------

 ----------------------------------------
 CID_146345743_JID_10534_Energie_neutraal
 ----------------------------------------
 Structure from the checkpoint file:  "JID_10534.chk"
 Charge =  0 Multiplicity = 1

 SCF Done:  E(RB3LYP) =  -1273.05086543     A.U. after   16 cycles
 Normal termination of Gaussian 16 at Sat Dec 12 16:26:25 2020.

 ----------------------------------------------------------------------
 # B3LYP/6-311++G(d,p) empiricaldispersion=gd3bj scf=xqc pop=npa geom=c
 heck
 ----------------------------------------------------------------------

 --------------------------------------
 CID_146345743_JID_10534_Energie_kation
 --------------------------------------
 Structure from the checkpoint file:  "JID_10534.chk"
 Charge =  1 Multiplicity = 2

 SCF Done:  E(UB3LYP) =  -1272.78698644     A.U. after   27 cycles
 Normal termination of Gaussian 16 at Sat Dec 12 16:49:43 2020.
 Gaussian 16:  ES64L-G16RevA.03 25-Dec-2016

 ----------------------------------------------------------------------
 # B3LYP/6-311++G(d,p) empiricaldispersion=gd3bj scf=xqc pop=npa geom=c
 heck
 ----------------------------------------------------------------------

 -------------------------------------
 CID_146345743_JID_10534_Energie_anion
 -------------------------------------
 Structure from the checkpoint file:  "JID_10534.chk"
 Charge = -1 Multiplicity = 2

                         Standard orientation:
 ---------------------------------------------------------------------
 Center     Atomic      Atomic             Coordinates (Angstroms)
 Number     Number       Type             X           Y           Z
 ---------------------------------------------------------------------
      1          6           0       -3.553095   -3.162946   -0.143432
      2          6           0       -3.138218   -1.726137   -0.135325
      3          7           0       -1.918548   -1.323006    0.022466
      4          6           0       -1.820841    0.064017   -0.012960
      5          6           0       -3.051148    0.739830   -0.202874
      6         16           0       -4.345877   -0.438218   -0.348185
      7          6           0       -3.118633    2.130891   -0.220577
      8          6           0       -1.940618    2.848909   -0.057165
      9          6           0       -0.700178    2.203849    0.113320
     10          6           0       -0.624918    0.794780    0.127286
     11          7           0        0.656727    0.215801    0.302169
     12          6           0        1.153727    0.110885    1.693183
     13          6           0        2.396451   -0.806616    1.580577
     14          6           0        2.478974   -1.181913    0.078094
     15          6           0        1.023449   -1.037438   -0.367614
     16          7           0        3.294441   -0.251191   -0.697719
     17          6           0        4.650462   -0.176454   -0.673106
     18          8           0        5.320016    0.718521   -1.159300
     19          8           0        5.202753   -1.258870   -0.046020
     20          7           0        0.468587    2.940424    0.314971
     21          1           0       -4.266718   -3.375013    0.660880
     22          1           0       -2.666667   -3.785626   -0.004798
     23          1           0       -4.033027   -3.431920   -1.091299
     24          1           0       -4.062517    2.648513   -0.356388
     25          1           0       -1.968462    3.935427   -0.065487
     26          1           0        0.390490   -0.339695    2.344300
     27          1           0        1.377188    1.108462    2.081787
     28          1           0        3.318893   -0.325415    1.912797
     29          1           0        2.260657   -1.710540    2.182171
     30          1           0        2.869256   -2.189091   -0.073752
     31          1           0        0.908570   -0.941006   -1.451112
     32          1           0        0.427731   -1.893478   -0.029369
     33          1           0        2.837272    0.596441   -1.004973
     34          1           0        6.162230   -1.118146   -0.118128
     35          1           0        1.294878    2.408110    0.059727
     36          1           0        0.461177    3.863129   -0.102475
 ---------------------------------------------------------------------

 SCF Done:  E(UB3LYP) =  -1273.00665081     A.U. after   33 cycles
 SCF Done:  E(UB3LYP) =  -1273.04530291     a.u. after   16 cycles

 The electronic state is 2-A.
 Alpha  occ. eigenvalues --  -88.74932 -19.06964 -19.00161 -14.24251 -14.21412
 Alpha  occ. eigenvalues --  -14.21223 -14.18155 -10.22589 -10.11948 -10.10151
 Alpha  occ. eigenvalues --  -10.09824 -10.09600 -10.09338 -10.08249 -10.08127
 Alpha  occ. eigenvalues --  -10.08093 -10.07636 -10.07217 -10.06365 -10.05186
 Alpha  occ. eigenvalues --   -7.83599  -5.79892  -5.79567  -5.79148  -1.01375
 Alpha  occ. eigenvalues --   -0.91791  -0.86013  -0.83934  -0.82567  -0.80445
 Alpha  occ. eigenvalues --   -0.72301  -0.69091  -0.66290  -0.64543  -0.63491
 Alpha  occ. eigenvalues --   -0.60850  -0.57920  -0.54748  -0.52797  -0.50351
 Alpha  occ. eigenvalues --   -0.49146  -0.46724  -0.44695  -0.43631  -0.41921
 Alpha  occ. eigenvalues --   -0.41022  -0.39335  -0.38377  -0.37763  -0.36731
 Alpha  occ. eigenvalues --   -0.35681  -0.35585  -0.34617  -0.33462  -0.33035
 Alpha  occ. eigenvalues --   -0.31534  -0.30859  -0.30575  -0.29888  -0.29339
 Alpha  occ. eigenvalues --   -0.28581  -0.27370  -0.27081  -0.26021  -0.25752
 Alpha  occ. eigenvalues --   -0.25541  -0.24682  -0.23385  -0.22972  -0.19724
 Alpha  occ. eigenvalues --   -0.18979  -0.17178  -0.16957  -0.15581  -0.13627
 Alpha  occ. eigenvalues --   -0.11150  -0.09016   0.04421
 Alpha virt. eigenvalues --    0.05677   0.07044   0.07216   0.08265   0.08460
 Alpha virt. eigenvalues --    0.09145   0.09751   0.10226   0.10856   0.10876
 Alpha virt. eigenvalues --    0.11266   0.11594   0.11891   0.12483   0.12885

  Beta  occ. eigenvalues --  -88.74916 -19.06923 -19.00150 -14.24244 -14.21419
  Beta  occ. eigenvalues --  -14.21211 -14.18128 -10.22587 -10.11942 -10.09873
  Beta  occ. eigenvalues --  -10.09678 -10.09587 -10.09331 -10.08169 -10.08075
  Beta  occ. eigenvalues --  -10.07995 -10.07624 -10.07250 -10.06323 -10.05023
  Beta  occ. eigenvalues --   -7.83585  -5.79891  -5.79567  -5.79083  -1.01322
  Beta  occ. eigenvalues --   -0.91747  -0.85947  -0.83726  -0.82422  -0.80434
  Beta  occ. eigenvalues --   -0.72119  -0.68974  -0.66093  -0.64293  -0.63457
  Beta  occ. eigenvalues --   -0.60702  -0.57783  -0.54689  -0.52687  -0.50307
  Beta  occ. eigenvalues --   -0.48962  -0.46654  -0.44434  -0.43556  -0.41865
  Beta  occ. eigenvalues --   -0.40946  -0.39294  -0.38177  -0.37731  -0.36694
  Beta  occ. eigenvalues --   -0.35587  -0.35523  -0.34509  -0.33103  -0.32682
  Beta  occ. eigenvalues --   -0.31435  -0.30803  -0.30505  -0.29762  -0.29151
  Beta  occ. eigenvalues --   -0.28398  -0.27258  -0.26984  -0.25932  -0.25721
  Beta  occ. eigenvalues --   -0.25410  -0.24473  -0.23253  -0.22937  -0.19144
  Beta  occ. eigenvalues --   -0.18930  -0.17102  -0.16558  -0.15493  -0.13263
  Beta  occ. eigenvalues --   -0.10246  -0.08587
  Beta virt. eigenvalues --    0.06579   0.07160   0.07319   0.08431   0.08569
  Beta virt. eigenvalues --    0.08787   0.09196   0.09807   0.10392   0.10816
  Beta virt. eigenvalues --    0.10849   0.11284   0.11820   0.11945   0.12526

 Mulliken charges and spin densities:
               1          2
     1  C    0.020278  -0.321091
     2  C   -0.035037   0.348046
     3  N    0.234502   0.004790
     4  C   -1.861450  -0.002878
     5  C    0.706762   0.097060
     6  S   -0.671691   0.033419
     7  C    0.595505   0.063582
     8  C   -0.273635   0.162955
     9  C   -0.132058   0.017159
    10  C   -0.140236   0.018531
    11  N    0.307833   0.003214
    12  C   -0.074431  -0.239082
    13  C   -0.353043  -0.006243
    14  C    0.139736  -0.300688
    15  C   -0.616834   0.133573
    16  N   -0.136379  -0.060734
    17  C    0.526764  -0.351713
    18  O   -0.367652   0.011213
    19  O   -0.235626   0.036252
    20  N   -0.331256  -0.012332
    21  H   -0.030840   0.195339
    22  H    0.082410   0.069601
    23  H    0.150665   0.000613
    24  H    0.127950   0.001015
    25  H    0.105370  -0.009530
    26  H    0.137111   0.018836
    27  H    0.152065   0.005963
    28  H    0.032360   0.144162
    29  H   -0.000773   0.141272
    30  H   -0.034619   0.312724
    31  H    0.135655   0.049911
    32  H    0.269440  -0.069166
    33  H    0.362403  -0.071091
    34  H   -0.253366   0.554295
    35  H    0.234161   0.019943
    36  H    0.227959   0.001079
 Sum of Mulliken charges =  -1.00000   1.00000

 Dipole moment (field-independent basis, Debye):
    X=             -3.9752    Y=              1.8200    Z=             -0.2069  Tot=              4.3769
 Quadrupole moment (field-independent basis, Debye-Ang):
   XX=           -235.7176   YY=           -148.7269   ZZ=           -143.7567
   XY=              1.2353   XZ=              7.2512   YZ=              1.7879

 Summary of Natural Population Analysis:

                                       Natural Population
                Natural  -----------------------------------------------
    Atom  No    Charge         Core      Valence    Rydberg      Total
 -----------------------------------------------------------------------
      C    1   -0.31181      0.99961     2.30676    0.00543     3.31181
      C    2    0.13759      0.99963     1.84581    0.01696     2.86241
      N    3   -0.26165      0.99962     2.75099    0.01103     3.76165
      C    4    0.07093      0.99940     1.91717    0.01250     2.92907
      C    5   -0.11013      0.99941     2.10060    0.01013     3.11013
      S    6    0.14535      4.99944     2.83698    0.01823     7.85465
      C    7   -0.10379      0.99951     2.09480    0.00948     3.10379
      C    8   -0.09866      0.99954     2.09035    0.00877     3.09866
      C    9    0.06964      0.99947     1.92080    0.01008     2.93036
      C   10    0.08114      0.99940     1.90891    0.01055     2.91886
      N   11   -0.28739      0.99969     2.77569    0.01201     3.78739
      C   12   -0.08099      0.99963     2.07324    0.00812     3.08099
      C   13   -0.19992      0.99962     2.19206    0.00824     3.19992
      C   14   -0.01623      0.99958     2.00241    0.01424     3.01623
      C   15   -0.08522      0.99961     2.07577    0.00984     3.08522
      N   16   -0.32959      0.99965     2.81867    0.01127     3.82959
      C   17    0.45643      0.99973     1.51902    0.02483     2.54357
      O   18   -0.33865      0.99987     3.33291    0.00587     4.33865
      O   19   -0.35512      0.99988     3.34884    0.00640     4.35512
      N   20   -0.40423      0.99972     2.89546    0.00906     3.90423
      H   21    0.10787      0.00000     0.39056    0.00157     0.39213
      H   22    0.10981      0.00000     0.38910    0.00108     0.39019
      H   23    0.10445      0.00000     0.39477    0.00079     0.39555
      H   24    0.09571      0.00000     0.40285    0.00144     0.40429
      H   25    0.08998      0.00000     0.40859    0.00143     0.41002
      H   26    0.08872      0.00000     0.40998    0.00130     0.41128
      H   27    0.09707      0.00000     0.40151    0.00142     0.40293
      H   28    0.10476      0.00000     0.39425    0.00099     0.39524
      H   29    0.10149      0.00000     0.39745    0.00106     0.39851
      H   30    0.10756      0.00000     0.39142    0.00102     0.39244
      H   31    0.10071      0.00000     0.39822    0.00107     0.39929
      H   32    0.10579      0.00000     0.39253    0.00168     0.39421
      H   33    0.19731      0.00000     0.29928    0.00341     0.30269
      H   34    0.24552      0.00000     0.24403    0.01045     0.25448
      H   35    0.18653      0.00000     0.31107    0.00239     0.31347
      H   36    0.17902      0.00000     0.31960    0.00137     0.32098
 =======================================================================
   * Total *    0.00000     23.99202    52.75248    0.25550    77.00000

 Normal termination of Gaussian 16 at Sat Dec 12 19:15:17 2020.
