 Gaussian 16, Revision A.03,

 -----------------------------------------------------------
 # opt freq B3LYP/6-31G(d) empiricaldispersion=gd3bj scf=xqc
 -----------------------------------------------------------

 ------------------------------
 CID_64274377_JID_8302_neutraal
 ------------------------------
 Symbolic Z-matrix:
 Charge =  0 Multiplicity = 1

 SCF Done:  E(RB3LYP) =  -774.562911688     A.U. after   15 cycles
 SCF Done:  E(RB3LYP) =  -774.567962153     A.U. after   13 cycles
 SCF Done:  E(RB3LYP) =  -774.568516963     A.U. after   14 cycles
 SCF Done:  E(RB3LYP) =  -774.569796605     A.U. after   12 cycles
 SCF Done:  E(RB3LYP) =  -774.570869773     A.U. after   13 cycles
 SCF Done:  E(RB3LYP) =  -774.521682530     A.U. after   16 cycles
 SCF Done:  E(RB3LYP) =  -774.568177059     A.U. after   14 cycles
 SCF Done:  E(RB3LYP) =  -774.572077814     A.U. after   12 cycles
 SCF Done:  E(RB3LYP) =  -774.564771772     A.U. after   16 cycles
 SCF Done:  E(RB3LYP) =  -774.578521281     A.U. after   14 cycles
 SCF Done:  E(RB3LYP) =  -774.589631944     A.U. after   11 cycles
 SCF Done:  E(RB3LYP) =  -774.589656691     A.U. after   11 cycles
 SCF Done:  E(RB3LYP) =  -774.589659775     A.U. after   10 cycles
 SCF Done:  E(RB3LYP) =  -774.589660381     A.U. after    8 cycles
 SCF Done:  E(RB3LYP) =  -774.589660514     A.U. after    8 cycles
 SCF Done:  E(RB3LYP) =  -774.589660585     A.U. after    7 cycles
 Optimization completed.
    -- Stationary point found.

 1\1\GINC-NODE300\FOpt\RB3LYP\6-31G(d)\C13H9N5\VSC10255\11-Dec-2020\0\\
 # opt freq B3LYP/6-31G(d) empiricaldispersion=gd3bj scf=xqc\\CID_64274
 377_JID_8302_neutraal\\0,1\C,1.2953836777,0.4921109318,0.3599359535\C,
 0.5760562439,-0.2883707976,1.4270226083\C,0.887775277,-1.6382224701,1.
 6945560584\C,0.2572242764,-2.3243040605,2.7328160212\C,-0.7073317726,-
 1.6823248655,3.5190509967\C,-1.0526045182,-0.3508606832,3.2432231788\C
 ,-0.4132200901,0.3217383625,2.2091906135\C,-1.3443563845,-2.3901570695
 ,4.5888200425\N,-1.8600968401,-2.9640512798,5.4588285112\N,1.885954271

 Normal termination of Gaussian 16 at Fri Dec 11 20:00:59 2020.

 --------------------------------------------------------------------
 #N Geom=AllCheck Guess=TCheck SCRF=Check GenChk RB3LYP/6-31G(d) Freq
 --------------------------------------------------------------------

 Structure from the checkpoint file:  "JID_8302.chk"
 ------------------------------
 CID_64274377_JID_8302_neutraal
 ------------------------------
 Charge =  0 Multiplicity = 1

 SCF Done:  E(RB3LYP) =  -774.589660585     A.U. after    1 cycles

  Exact polarizability: 283.643  11.733 133.661   5.737 -10.808 104.737
 Approx polarizability: 409.810  26.256 224.631   4.981 -28.868 191.399

                      1                      2                      3
                      A                      A                      A
 Frequencies --     24.2457                48.4191                70.2705
 Red. masses --      8.5391                 6.0955                 6.0550
 Frc consts  --      0.0030                 0.0084                 0.0176
 IR Inten    --      2.7988                 2.0521                 2.4458

                      4                      5                      6
                      A                      A                      A
 Frequencies --     88.4747               114.5247               139.2421
 Red. masses --      7.2793                 2.9645                 4.8534
 Frc consts  --      0.0336                 0.0229                 0.0554
 IR Inten    --      1.7348                 1.2262                 4.4535

                      7                      8                      9
                      A                      A                      A
 Frequencies --    143.9347               155.1390               196.0249
 Red. masses --      7.6991                 1.4328                 4.4987
 Frc consts  --      0.0940                 0.0203                 0.1019
 IR Inten    --      2.1508                 0.8926                 1.4573

                     10                     11                     12
                      A                      A                      A
 Frequencies --    246.4578               287.1435               293.4561
 Red. masses --      6.8480                 4.5509                 5.1705
 Frc consts  --      0.2451                 0.2211                 0.2623
 IR Inten    --      5.1595                 2.8175                 2.2133

                     13                     14                     15
                      A                      A                      A
 Frequencies --    327.2399               412.9489               415.3421
 Red. masses --      4.4416                 3.0849                 2.8250
 Frc consts  --      0.2802                 0.3099                 0.2871
 IR Inten    --      0.4716                35.7378                 7.1937

                     16                     17                     18
                      A                      A                      A
 Frequencies --    419.6887               445.0735               451.0747
 Red. masses --      4.4144                 2.7911                 2.2847
 Frc consts  --      0.4581                 0.3258                 0.2739
 IR Inten    --      9.0248                30.8382                53.9984

                     19                     20                     21
                      A                      A                      A
 Frequencies --    466.9049               502.4735               513.4214
 Red. masses --      6.2389                 6.7870                 5.5098
 Frc consts  --      0.8013                 1.0096                 0.8557
 IR Inten    --      8.4847                13.2465                28.7531

                     22                     23                     24
                      A                      A                      A
 Frequencies --    559.9059               573.9501               588.0557
 Red. masses --      8.3887                 6.6120                 4.4668
 Frc consts  --      1.5494                 1.2833                 0.9101
 IR Inten    --      3.3311                 2.1903                 3.8422

                     25                     26                     27
                      A                      A                      A
 Frequencies --    618.4484               657.0970               682.8706
 Red. masses --      5.3344                 8.2703                 6.7671
 Frc consts  --      1.2021                 2.1039                 1.8592
 IR Inten    --      5.5984                 1.3705                 0.5786

                     28                     29                     30
                      A                      A                      A
 Frequencies --    717.5859               726.1253               773.1921
 Red. masses --      4.2262                 5.5983                 4.7831
 Frc consts  --      1.2822                 1.7391                 1.6848
 IR Inten    --      3.0391                 0.8207                 2.9569

                     31                     32                     33
                      A                      A                      A
 Frequencies --    790.3706               795.2065               845.2585
 Red. masses --      6.2498                 5.3665                 1.3308
 Frc consts  --      2.3003                 1.9994                 0.5602
 IR Inten    --      4.1734                 3.0559                17.4596

                     34                     35                     36
                      A                      A                      A
 Frequencies --    890.0865               916.7964               918.7861
 Red. masses --      4.6874                 1.5222                 1.6179
 Frc consts  --      2.1880                 0.7538                 0.8047
 IR Inten    --      7.4778                12.7716                 3.7474

                     37                     38                     39
                      A                      A                      A
 Frequencies --    960.1309               972.7162               984.1081
 Red. masses --      1.3357                 1.3129                 2.7954
 Frc consts  --      0.7254                 0.7319                 1.5951
 IR Inten    --      1.8320                 0.5213                 1.6107

                     40                     41                     42
                      A                      A                      A
 Frequencies --   1032.3569              1037.7765              1078.4453
 Red. masses --      1.7526                 3.2620                 1.5218
 Frc consts  --      1.1005                 2.0698                 1.0428
 IR Inten    --     16.1603                29.2037                 6.8393

                     43                     44                     45
                      A                      A                      A
 Frequencies --   1164.0169              1194.1680              1234.6196
 Red. masses --      1.9924                 1.7260                 2.1724
 Frc consts  --      1.5905                 1.4502                 1.9510
 IR Inten    --     12.6174                 0.3605                 9.5213

                     46                     47                     48
                      A                      A                      A
 Frequencies --   1249.0697              1269.3756              1294.9030
 Red. masses --      4.1277                 3.8785                 4.3318
 Frc consts  --      3.7943                 3.6821                 4.2795
 IR Inten    --     27.0666                 0.9459                26.4388

                     49                     50                     51
                      A                      A                      A
 Frequencies --   1310.5062              1326.4652              1340.3956
 Red. masses --      1.8794                 1.8169                 1.4420
 Frc consts  --      1.9018                 1.8835                 1.5264
 IR Inten    --      5.7980                30.6291                20.3285

                     52                     53                     54
                      A                      A                      A
 Frequencies --   1350.8175              1424.3167              1430.4474
 Red. masses --      5.7467                 5.1900                 2.5676
 Frc consts  --      6.1782                 6.2034                 3.0955
 IR Inten    --     18.1993               248.9436                 3.3920

                     55                     56                     57
                      A                      A                      A
 Frequencies --   1448.2018              1493.0572              1509.6481
 Red. masses --      1.2586                 2.1481                 1.0760
 Frc consts  --      1.5553                 2.8214                 1.4448
 IR Inten    --      2.8907                 0.5463                22.3927

                     58                     59                     60
                      A                      A                      A
 Frequencies --   1520.4105              1548.8250              1553.9380
 Red. masses --      1.1178                 2.8216                 5.1692
 Frc consts  --      1.5225                 3.9880                 7.3543
 IR Inten    --      7.3237               149.3599               156.8926

                     61                     62                     63
                      A                      A                      A
 Frequencies --   1593.8203              1614.7989              1629.3469
 Red. masses --      3.9146                 4.9217                 6.5852
 Frc consts  --      5.8589                 7.5614                10.3003
 IR Inten    --    318.9468                25.3260               269.1497

                     64                     65                     66
                      A                      A                      A
 Frequencies --   1667.9331              2354.1795              2354.6709
 Red. masses --      6.0127                12.6807                12.6787
 Frc consts  --      9.8555                41.4068                41.4178
 IR Inten    --      4.2574                46.9923                19.4484

                     67                     68                     69
                      A                      A                      A
 Frequencies --   3054.6793              3114.0362              3145.5339
 Red. masses --      1.0406                 1.0949                 1.1033
 Frc consts  --      5.7207                 6.2556                 6.4315
 IR Inten    --     12.3857                10.8082                11.2997

                     70                     71                     72
                      A                      A                      A
 Frequencies --   3198.1468              3199.7364              3202.4808
 Red. masses --      1.0925                 1.0894                 1.0915
 Frc consts  --      6.5834                 6.5717                 6.5957
 IR Inten    --     23.3319                 7.3096                 7.7418

                     73                     74                     75
                      A                      A                      A
 Frequencies --   3219.6569              3227.7817              3586.9468
 Red. masses --      1.0922                 1.0943                 1.0757
 Frc consts  --      6.6710                 6.7173                 8.1544
 IR Inten    --      1.3195                 2.8723                60.3485

 - Thermochemistry -
 -------------------
 Temperature   298.150 Kelvin.  Pressure   1.00000 Atm.
 Atom     1 has atomic number  6 and mass  12.00000

 Molecular mass:   235.08580 amu.
 Principal axes and moments of inertia in atomic units:
                           1         2         3
     Eigenvalues --  1689.175609593.88787**********
           X            0.99996  -0.00713   0.00465
           Y            0.00723   0.99972  -0.02251
           Z           -0.00449   0.02254   0.99974
 This molecule is an asymmetric top.
 Rotational symmetry number  1.
 Warning -- assumption of classical behavior for rotation
           may cause significant error
 Rotational temperatures (Kelvin)      0.05128     0.00903     0.00855
 Rotational constants (GHZ):           1.06842     0.18811     0.17819
 Zero-point vibrational energy     524608.5 (Joules/Mol)
                                  125.38445 (Kcal/Mol)
 Warning -- explicit consideration of  25 degrees of freedom as
           vibrations may cause significant error
 Vibrational temperatures:     34.88    69.66   101.10   127.30   164.78
          (Kelvin)            200.34   207.09   223.21   282.04   354.60
                              413.14   422.22   470.83   594.14   597.58
                              603.84   640.36   649.00   671.77   722.95
                              738.70   805.58   825.79   846.08   889.81
                              945.42   982.50  1032.45  1044.73  1112.45
                             1137.17  1144.12  1216.14  1280.64  1319.07
                             1321.93  1381.41  1399.52  1415.91  1485.33
                             1493.13  1551.64  1674.76  1718.14  1776.34
                             1797.13  1826.35  1863.08  1885.53  1908.49
                             1928.53  1943.53  2049.27  2058.09  2083.64
                             2148.18  2172.05  2187.53  2228.41  2235.77
                             2293.15  2323.34  2344.27  2399.78  3387.14
                             3387.85  4395.00  4480.40  4525.72  4601.42
                             4603.71  4607.66  4632.37  4644.06  5160.82

 Zero-point correction=                           0.199813 (Hartree/Particle)
 Thermal correction to Energy=                    0.214993
 Thermal correction to Enthalpy=                  0.215937
 Thermal correction to Gibbs Free Energy=         0.156101
 Sum of electronic and zero-point Energies=           -774.389848
 Sum of electronic and thermal Energies=              -774.374667
 Sum of electronic and thermal Enthalpies=            -774.373723
 Sum of electronic and thermal Free Energies=         -774.433560

                     E (Thermal)             CV                S
                      KCal/Mol        Cal/Mol-Kelvin    Cal/Mol-Kelvin
 Total                  134.910             57.301            125.936
 Electronic               0.000              0.000              0.000
 Translational            0.889              2.981             42.266
 Rotational               0.889              2.981             33.462
 Vibrational            133.133             51.339             50.209
 Vibration     1          0.593              1.985              6.252
 Vibration     2          0.595              1.978              4.881
 Vibration     3          0.598              1.968              4.146
 Vibration     4          0.601              1.957              3.694
 Vibration     5          0.607              1.937              3.191
 Vibration     6          0.615              1.914              2.814
 Vibration     7          0.616              1.909              2.751
 Vibration     8          0.620              1.897              2.608
 Vibration     9          0.636              1.845              2.170
 Vibration    10          0.661              1.769              1.756
 Vibration    11          0.684              1.698              1.491
 Vibration    12          0.688              1.686              1.454
 Vibration    13          0.711              1.621              1.274
 Vibration    14          0.777              1.442              0.916
 Vibration    15          0.779              1.437              0.908
 Vibration    16          0.782              1.427              0.893
 Vibration    17          0.804              1.372              0.811
 Vibration    18          0.810              1.359              0.793
 Vibration    19          0.824              1.323              0.746
 Vibration    20          0.858              1.245              0.652
 Vibration    21          0.868              1.220              0.625
 Vibration    22          0.916              1.118              0.524
 Vibration    23          0.930              1.088              0.497
 Vibration    24          0.945              1.057              0.471
 Vibration    25          0.978              0.993              0.419

                           ! Non-Optimized Parameters !

 1\1\GINC-NODE300\Freq\RB3LYP\6-31G(d)\C13H9N5\VSC10255\11-Dec-2020\0\\
 #N Geom=AllCheck Guess=TCheck SCRF=Check GenChk RB3LYP/6-31G(d) Freq\\
 CID_64274377_JID_8302_neutraal\\0,1\C,1.2953836777,0.4921109318,0.3599
 359535\C,0.5760562439,-0.2883707976,1.4270226083\C,0.887775277,-1.6382
 224701,1.6945560584\C,0.2572242764,-2.3243040605,2.7328160212\C,-0.707
 3317726,-1.6823248655,3.5190509967\C,-1.0526045182,-0.3508606832,3.243
 2231788\C,-0.4132200901,0.3217383625,2.2091906135\C,-1.3443563845,-2.3
 901570695,4.5888200425\N,-1.8600968401,-2.9640512798,5.4588285112\N,1.

 Normal termination of Gaussian 16 at Fri Dec 11 20:09:49 2020.

 ----------------------------------------------------------------------
 # B3LYP/6-311++G(d,p) empiricaldispersion=gd3bj scf=xqc pop=npa geom=c
 heck
 ----------------------------------------------------------------------

 --------------------------------------
 CID_64274377_JID_8302_Energie_neutraal
 --------------------------------------
 Structure from the checkpoint file:  "JID_8302.chk"
 Charge =  0 Multiplicity = 1

 SCF Done:  E(RB3LYP) =  -774.790233916     A.U. after   16 cycles
 Normal termination of Gaussian 16 at Fri Dec 11 20:13:18 2020.

 ----------------------------------------------------------------------
 # B3LYP/6-311++G(d,p) empiricaldispersion=gd3bj scf=xqc pop=npa geom=c
 heck
 ----------------------------------------------------------------------

 ------------------------------------
 CID_64274377_JID_8302_Energie_kation
 ------------------------------------
 Structure from the checkpoint file:  "JID_8302.chk"
 Charge =  1 Multiplicity = 2

 SCF Done:  E(UB3LYP) =  -774.474341603     A.U. after   25 cycles
 Normal termination of Gaussian 16 at Fri Dec 11 20:20:46 2020.
 Gaussian 16:  ES64L-G16RevA.03 25-Dec-2016

 -----------------------------------
 CID_64274377_JID_8302_Energie_anion
 -----------------------------------
 Structure from the checkpoint file:  "JID_8302.chk"
 Charge = -1 Multiplicity = 2

                         Standard orientation:
 ---------------------------------------------------------------------
 Center     Atomic      Atomic             Coordinates (Angstroms)
 Number     Number       Type             X           Y           Z
 ---------------------------------------------------------------------
      1          6           0       -0.428364    2.502371    0.549683
      2          6           0       -1.472425    1.464728    0.235850
      3          6           0       -1.296350    0.108379    0.582486
      4          6           0       -2.304414   -0.826094    0.344042
      5          6           0       -3.505526   -0.430112   -0.256955
      6          6           0       -3.681753    0.908363   -0.638423
      7          6           0       -2.671317    1.829254   -0.390622
      8          6           0       -4.539489   -1.393155   -0.490840
      9          7           0       -5.379955   -2.174524   -0.678823
     10          7           0       -0.108623   -0.324810    1.226750
     11          6           0        1.148108   -0.327532    0.684234
     12          7           0        2.134454   -0.758207    1.487532
     13          6           0        3.365980   -0.749596    0.984684
     14          6           0        3.635086   -0.312827   -0.319120
     15          7           0        2.641683    0.089787   -1.139054
     16          6           0        1.414608    0.077048   -0.650143
     17          6           0        4.978705   -0.300249   -0.820034
     18          7           0        6.081976   -0.301589   -1.187178
     19          1           0       -0.871857    3.501386    0.566602
     20          1           0        0.376791    2.510535   -0.195356
     21          1           0        0.037551    2.308839    1.520680
     22          1           0       -2.150506   -1.864285    0.618449
     23          1           0       -4.607367    1.215865   -1.112423
     24          1           0       -2.820581    2.869013   -0.666718
     25          1           0       -0.184211   -0.830194    2.101435
     26          1           0        4.167696   -1.100166    1.629854
     27          1           0        0.608652    0.370953   -1.316176
 ---------------------------------------------------------------------

 SCF Done:  E(UB3LYP) =  -774.827480699     A.U. after   28 cycles

 The electronic state is 2-A.
 Alpha  occ. eigenvalues --  -14.23720 -14.20559 -14.19445 -14.19378 -14.19017
 Alpha  occ. eigenvalues --  -10.13567 -10.12251 -10.10896 -10.10788 -10.10622
 Alpha  occ. eigenvalues --  -10.10523 -10.09433 -10.09406 -10.09262 -10.08870
 Alpha  occ. eigenvalues --  -10.08198 -10.07923 -10.07695  -0.88436  -0.83990
 Alpha  occ. eigenvalues --   -0.80675  -0.79478  -0.78483  -0.76300  -0.69594
 Alpha  occ. eigenvalues --   -0.67500  -0.64772  -0.61461  -0.56235  -0.55729
 Alpha  occ. eigenvalues --   -0.52602  -0.51661  -0.46662  -0.44848  -0.43589
 Alpha  occ. eigenvalues --   -0.40638  -0.39309  -0.37994  -0.36527  -0.34850
 Alpha  occ. eigenvalues --   -0.33942  -0.33035  -0.32673  -0.31448  -0.30540
 Alpha  occ. eigenvalues --   -0.29512  -0.28157  -0.27018  -0.26815  -0.25876
 Alpha  occ. eigenvalues --   -0.25535  -0.24266  -0.23380  -0.22802  -0.21989
 Alpha  occ. eigenvalues --   -0.20586  -0.19133  -0.17037  -0.15899  -0.14018
 Alpha  occ. eigenvalues --   -0.11566   0.01491
 Alpha virt. eigenvalues --    0.03985   0.06604   0.06863   0.07786   0.08398
 Alpha virt. eigenvalues --    0.08543   0.09634   0.10792   0.10831   0.11298
 Alpha virt. eigenvalues --    0.12541   0.12841   0.12908   0.13260   0.13502

  Beta  occ. eigenvalues --  -14.23691 -14.20432 -14.19296 -14.19142 -14.18461
  Beta  occ. eigenvalues --  -10.13438 -10.12306 -10.10923 -10.10745 -10.10618
  Beta  occ. eigenvalues --  -10.10405 -10.09472 -10.09409 -10.09139 -10.08869
  Beta  occ. eigenvalues --  -10.08114 -10.07703 -10.07687  -0.88091  -0.83624
  Beta  occ. eigenvalues --   -0.80465  -0.79197  -0.78016  -0.76044  -0.69325
  Beta  occ. eigenvalues --   -0.67262  -0.64532  -0.61299  -0.55960  -0.55319
  Beta  occ. eigenvalues --   -0.52251  -0.51573  -0.46536  -0.44684  -0.43389
  Beta  occ. eigenvalues --   -0.40480  -0.39169  -0.37811  -0.36395  -0.34714
  Beta  occ. eigenvalues --   -0.33833  -0.32658  -0.31943  -0.31306  -0.30414
  Beta  occ. eigenvalues --   -0.28927  -0.27950  -0.26892  -0.26456  -0.25481
  Beta  occ. eigenvalues --   -0.25396  -0.23751  -0.23291  -0.22729  -0.21001
  Beta  occ. eigenvalues --   -0.19336  -0.18603  -0.16318  -0.15032  -0.13490
  Beta  occ. eigenvalues --   -0.10828
  Beta virt. eigenvalues --    0.05409   0.06381   0.06835   0.07671   0.08052
  Beta virt. eigenvalues --    0.08512   0.08605   0.09648   0.10760   0.10849
  Beta virt. eigenvalues --    0.11289   0.12539   0.12913   0.12922   0.13261

 Mulliken charges and spin densities:
               1          2
     1  C   -0.530990  -0.014994
     2  C    0.657320   0.054214
     3  C    0.069038  -0.000052
     4  C   -0.391224   0.216909
     5  C    1.973723   0.077820
     6  C   -0.602747  -0.025173
     7  C   -0.547686   0.099466
     8  C   -1.658386  -0.036528
     9  N   -0.250628   0.067465
    10  N   -0.141228   0.008400
    11  C   -0.633683   0.053760
    12  N   -0.077408   0.141375
    13  C   -0.044929  -0.005520
    14  C    1.266350   0.038733
    15  N   -0.060807   0.254202
    16  C    0.025058   0.025519
    17  C   -1.375912  -0.020970
    18  N   -0.290801   0.041520
    19  H    0.127308   0.019624
    20  H    0.175864   0.007524
    21  H    0.164071  -0.003135
    22  H    0.193380  -0.015148
    23  H    0.157140   0.002693
    24  H    0.139009  -0.006740
    25  H    0.283610   0.013175
    26  H    0.190380   0.000023
    27  H    0.184180   0.005836
 Sum of Mulliken charges =  -1.00000   1.00000

 Dipole moment (field-independent basis, Debye):
    X=             -3.8371    Y=              4.0165    Z=              3.5635  Tot=              6.5996
 Quadrupole moment (field-independent basis, Debye-Ang):
   XX=           -228.1504   YY=           -117.3246   ZZ=           -118.5118
   XY=            -18.1758   XZ=             10.8832   YZ=             -3.8975

 Summary of Natural Population Analysis:

                                       Natural Population
                Natural  -----------------------------------------------
    Atom  No    Charge         Core      Valence    Rydberg      Total
 -----------------------------------------------------------------------
      C    1   -0.29858      0.99964     2.29443    0.00451     3.29858
      C    2    0.01017      0.99948     1.98127    0.00908     2.98983
      C    3    0.06491      0.99943     1.92481    0.01086     2.93509
      C    4   -0.03493      0.99949     2.02690    0.00854     3.03493
      C    5   -0.07906      0.99942     2.06983    0.00981     3.07906
      C    6   -0.08666      0.99954     2.07963    0.00749     3.08666
      C    7   -0.08955      0.99953     2.08184    0.00818     3.08955
      C    8    0.15272      0.99964     1.82999    0.01765     2.84728
      N    9   -0.17496      0.99979     2.66443    0.01074     3.67496
      N   10   -0.30635      0.99964     2.79292    0.01379     3.80635
      C   11    0.21251      0.99954     1.77281    0.01514     2.78749
      N   12   -0.21298      0.99967     2.70228    0.01103     3.71298
      C   13    0.03289      0.99957     1.95549    0.01205     2.96711
      C   14   -0.01900      0.99944     2.00419    0.01536     3.01900
      N   15   -0.11846      0.99968     2.60846    0.01033     3.61846
      C   16   -0.01923      0.99957     2.00598    0.01368     3.01923
      C   17    0.15188      0.99964     1.83050    0.01798     2.84812
      N   18   -0.18909      0.99979     2.67842    0.01088     3.68909
      H   19    0.09852      0.00000     0.40068    0.00080     0.40148
      H   20    0.11296      0.00000     0.38601    0.00103     0.38704
      H   21    0.10912      0.00000     0.39000    0.00088     0.39088
      H   22    0.10369      0.00000     0.39550    0.00081     0.39631
      H   23    0.10162      0.00000     0.39751    0.00087     0.39838
      H   24    0.09642      0.00000     0.40270    0.00089     0.40358
      H   25    0.19692      0.00000     0.30155    0.00154     0.30308
      H   26    0.09011      0.00000     0.40872    0.00117     0.40989
      H   27    0.09443      0.00000     0.40428    0.00129     0.40557
 =======================================================================
   * Total *    0.00000     17.99251    42.79112    0.21637    61.00000

 Normal termination of Gaussian 16 at Fri Dec 11 20:29:17 2020.
