 Gaussian 16, Revision A.03,

 -----------------------------------------------------------
 # opt freq B3LYP/6-31G(d) empiricaldispersion=gd3bj scf=xqc
 -----------------------------------------------------------

 ------------------------------
 CID_58522544_JID_2509_neutraal
 ------------------------------
 Symbolic Z-matrix:
 Charge =  0 Multiplicity = 1

 SCF Done:  E(RB3LYP) =  -553.623886548     A.U. after   15 cycles
 SCF Done:  E(RB3LYP) =  -553.627262491     A.U. after   12 cycles
 SCF Done:  E(RB3LYP) =  -553.627410488     A.U. after   11 cycles
 SCF Done:  E(RB3LYP) =  -553.627423064     A.U. after   10 cycles
 SCF Done:  E(RB3LYP) =  -553.627432122     A.U. after    8 cycles
 SCF Done:  E(RB3LYP) =  -553.627438879     A.U. after    9 cycles
 SCF Done:  E(RB3LYP) =  -553.627442506     A.U. after    9 cycles
 SCF Done:  E(RB3LYP) =  -553.627445549     A.U. after    9 cycles
 SCF Done:  E(RB3LYP) =  -553.627446820     A.U. after    8 cycles
 SCF Done:  E(RB3LYP) =  -553.627446966     A.U. after    7 cycles
 SCF Done:  E(RB3LYP) =  -553.627447103     A.U. after    7 cycles
 Optimization completed.
    -- Stationary point found.
 Normal termination of Gaussian 16 at Wed Dec  9 17:26:15 2020.

 --------------------------------------------------------------------
 #N Geom=AllCheck Guess=TCheck SCRF=Check GenChk RB3LYP/6-31G(d) Freq
 --------------------------------------------------------------------

 Structure from the checkpoint file:  "JID_2509.chk"
 ------------------------------
 CID_58522544_JID_2509_neutraal
 ------------------------------
 Charge =  0 Multiplicity = 1

 SCF Done:  E(RB3LYP) =  -553.627447103     A.U. after    1 cycles

  Exact polarizability: 139.081  -3.220 120.447  -0.002   0.000  47.740
 Approx polarizability: 195.711  -3.963 218.979  -0.006   0.002  72.779

                      1                      2                      3
                      A                      A                      A
 Frequencies --     92.0745               109.1372               142.1913
 Red. masses --      3.1386                 6.8792                 1.6291
 Frc consts  --      0.0157                 0.0483                 0.0194
 IR Inten    --      3.3117                 4.4604                 0.0538

                      4                      5                      6
                      A                      A                      A
 Frequencies --    184.3989               211.0077               241.9558
 Red. masses --      1.7414                 5.1002                 2.7950
 Frc consts  --      0.0349                 0.1338                 0.0964
 IR Inten    --      0.6604                 2.8036                 2.1452

                      7                      8                      9
                      A                      A                      A
 Frequencies --    251.8846               306.7102               401.1484
 Red. masses --      3.5493                 3.7450                 6.8849
 Frc consts  --      0.1327                 0.2076                 0.6528
 IR Inten    --      4.3316                 5.8512                 7.5167

                     10                     11                     12
                      A                      A                      A
 Frequencies --    405.3143               455.4135               487.5072
 Red. masses --      1.1338                 5.8917                 3.9804
 Frc consts  --      0.1097                 0.7199                 0.5574
 IR Inten    --    106.7443                 4.5723                 7.5119

                     13                     14                     15
                      A                      A                      A
 Frequencies --    555.1381               572.9840               594.1113
 Red. masses --      4.4716                 3.7382                 4.8197
 Frc consts  --      0.8119                 0.7231                 1.0023
 IR Inten    --     10.8963                 0.2432                 7.3637

                     16                     17                     18
                      A                      A                      A
 Frequencies --    613.2111               685.1692               751.6522
 Red. masses --      6.0312                 4.4770                 6.4681
 Frc consts  --      1.3362                 1.2383                 2.1531
 IR Inten    --      2.3593                10.1832                 3.0346

                     19                     20                     21
                      A                      A                      A
 Frequencies --    772.6238               782.0164               796.3971
 Red. masses --      1.9608                 2.7070                 5.3604
 Frc consts  --      0.6896                 0.9754                 2.0031
 IR Inten    --     12.5047                37.3843                 2.1716

                     22                     23                     24
                      A                      A                      A
 Frequencies --    862.0451               959.1365               959.6868
 Red. masses --      1.3833                 1.2646                 4.7490
 Frc consts  --      0.6057                 0.6854                 2.5770
 IR Inten    --      0.4258                 0.1186                 9.2684

                     25                     26                     27
                      A                      A                      A
 Frequencies --   1026.7905              1031.5469              1073.3784
 Red. masses --      1.7361                 3.9650                 2.1068
 Frc consts  --      1.0784                 2.4858                 1.4301
 IR Inten    --      0.0231                92.1505                29.4637

                     28                     29                     30
                      A                      A                      A
 Frequencies --   1096.1200              1159.2159              1195.0820
 Red. masses --      2.0362                 1.2082                 1.8317
 Frc consts  --      1.4414                 0.9566                 1.5414
 IR Inten    --      2.4576                 0.2892                30.0714

                     31                     32                     33
                      A                      A                      A
 Frequencies --   1200.0773              1211.0945              1230.4111
 Red. masses --      1.2709                 1.1514                 1.7922
 Frc consts  --      1.0784                 0.9950                 1.5985
 IR Inten    --      0.4069                 2.6954                32.2965

                     34                     35                     36
                      A                      A                      A
 Frequencies --   1264.7810              1319.7261              1336.2320
 Red. masses --      1.9068                 3.5391                 2.0301
 Frc consts  --      1.7971                 3.6317                 2.1357
 IR Inten    --      9.5650                83.4514                81.7445

                     37                     38                     39
                      A                      A                      A
 Frequencies --   1343.5001              1402.0109              1441.4268
 Red. masses --      4.8778                 5.7321                 2.3472
 Frc consts  --      5.1874                 6.6385                 2.8733
 IR Inten    --     77.3115                63.2038               116.6387

                     40                     41                     42
                      A                      A                      A
 Frequencies --   1466.0893              1510.0999              1522.3281
 Red. masses --      1.2591                 2.5484                 1.0446
 Frc consts  --      1.5945                 3.4240                 1.4263
 IR Inten    --     29.3003                49.0219                 8.3520

                     43                     44                     45
                      A                      A                      A
 Frequencies --   1527.0109              1536.5031              1552.8336
 Red. masses --      1.1492                 2.7542                 1.1433
 Frc consts  --      1.5788                 3.8310                 1.6243
 IR Inten    --     25.6403                23.5922                10.1751

                     46                     47                     48
                      A                      A                      A
 Frequencies --   1663.1033              1679.3716              1809.7771
 Red. masses --      7.0184                 6.7917                11.7586
 Frc consts  --     11.4374                11.2856                22.6911
 IR Inten    --     52.8659                49.8178               387.9788

                     49                     50                     51
                      A                      A                      A
 Frequencies --   3007.4315              3026.4409              3029.4487
 Red. masses --      1.0558                 1.0380                 1.1059
 Frc consts  --      5.6264                 5.6018                 5.9797
 IR Inten    --     34.2255                96.7583                33.1418

                     52                     53                     54
                      A                      A                      A
 Frequencies --   3070.8018              3160.4854              3170.0997
 Red. masses --      1.1052                 1.0970                 1.0885
 Frc consts  --      6.1405                 6.4562                 6.4450
 IR Inten    --     41.0375                 1.5836                15.3498

                     55                     56                     57
                      A                      A                      A
 Frequencies --   3193.9211              3209.6598              3742.2210
 Red. masses --      1.0888                 1.0960                 1.0659
 Frc consts  --      6.5440                 6.6523                 8.7944
 IR Inten    --      9.7564                21.2507                46.5773

 - Thermochemistry -
 -------------------
 Temperature   298.150 Kelvin.  Pressure   1.00000 Atm.
 Atom     1 has atomic number  6 and mass  12.00000

 Molecular mass:   163.06333 amu.
 Principal axes and moments of inertia in atomic units:
                           1         2         3
     Eigenvalues --  1095.288272133.306543205.86218
           X            0.99971  -0.02412   0.00000
           Y            0.02412   0.99971   0.00000
           Z           -0.00000  -0.00000   1.00000
 This molecule is an asymmetric top.
 Rotational symmetry number  1.
 Warning -- assumption of classical behavior for rotation
           may cause significant error
 Rotational temperatures (Kelvin)      0.07908     0.04060     0.02702
 Rotational constants (GHZ):           1.64773     0.84598     0.56295
 Zero-point vibrational energy     439041.1 (Joules/Mol)
                                  104.93333 (Kcal/Mol)
 Warning -- explicit consideration of  16 degrees of freedom as
           vibrations may cause significant error
 Vibrational temperatures:    132.47   157.02   204.58   265.31   303.59
          (Kelvin)            348.12   362.41   441.29   577.16   583.16
                              655.24   701.41   798.72   824.40   854.79
                              882.27   985.81  1081.46  1111.63  1125.15
                             1145.84  1240.29  1379.98  1380.78  1477.32
                             1484.17  1544.35  1577.07  1667.85  1719.46
                             1726.64  1742.49  1770.29  1819.74  1898.79
                             1922.54  1933.00  2017.18  2073.89  2109.38
                             2172.70  2190.29  2197.03  2210.69  2234.18
                             2392.83  2416.24  2603.87  4327.02  4354.37
                             4358.70  4418.20  4547.23  4561.07  4595.34
                             4617.98  5384.22

 Zero-point correction=                           0.167222 (Hartree/Particle)
 Thermal correction to Energy=                    0.177388
 Thermal correction to Enthalpy=                  0.178332
 Thermal correction to Gibbs Free Energy=         0.131730
 Sum of electronic and zero-point Energies=           -553.460225
 Sum of electronic and thermal Energies=              -553.450059
 Sum of electronic and thermal Enthalpies=            -553.449115
 Sum of electronic and thermal Free Energies=         -553.495717

                     E (Thermal)             CV                S
                      KCal/Mol        Cal/Mol-Kelvin    Cal/Mol-Kelvin
 Total                  111.313             39.097             98.083
 Electronic               0.000              0.000              0.000
 Translational            0.889              2.981             41.176
 Rotational               0.889              2.981             30.394
 Vibrational            109.535             33.136             26.513
 Vibration     1          0.602              1.955              3.616
 Vibration     2          0.606              1.942              3.284
 Vibration     3          0.616              1.911              2.774
 Vibration     4          0.631              1.861              2.283
 Vibration     5          0.643              1.824              2.035
 Vibration     6          0.658              1.776              1.788
 Vibration     7          0.664              1.760              1.717
 Vibration     8          0.697              1.661              1.380
 Vibration     9          0.767              1.468              0.958
 Vibration    10          0.770              1.459              0.943
 Vibration    11          0.814              1.349              0.780
 Vibration    12          0.843              1.278              0.690
 Vibration    13          0.911              1.128              0.534
 Vibration    14          0.929              1.090              0.499
 Vibration    15          0.952              1.044              0.460
 Vibration    16          0.973              1.004              0.427

 Optimization completed.
    -- Stationary point found.
 Normal termination of Gaussian 16 at Wed Dec  9 17:30:46 2020.

 ----------------------------------------------------------------------
 # B3LYP/6-311++G(d,p) empiricaldispersion=gd3bj scf=xqc pop=npa geom=c
 heck
 ----------------------------------------------------------------------

 --------------------------------------
 CID_58522544_JID_2509_Energie_neutraal
 --------------------------------------
 Structure from the checkpoint file:  "JID_2509.chk"
 Charge =  0 Multiplicity = 1

 SCF Done:  E(RB3LYP) =  -553.785903864     A.U. after   16 cycles
 Normal termination of Gaussian 16 at Wed Dec  9 17:32:57 2020.

 ----------------------------------------------------------------------
 # B3LYP/6-311++G(d,p) empiricaldispersion=gd3bj scf=xqc pop=npa geom=c
 heck
 ----------------------------------------------------------------------

 ------------------------------------
 CID_58522544_JID_2509_Energie_kation
 ------------------------------------
 Structure from the checkpoint file:  "JID_2509.chk"
 Charge =  1 Multiplicity = 2

 SCF Done:  E(UB3LYP) =  -553.483365168     A.U. after   24 cycles
 Normal termination of Gaussian 16 at Wed Dec  9 17:38:52 2020.
 Gaussian 16:  ES64L-G16RevA.03 25-Dec-2016

 ----------------------------------------------------------------------
 # B3LYP/6-311++G(d,p) empiricaldispersion=gd3bj scf=xqc pop=npa geom=c
 heck
 ----------------------------------------------------------------------

 -----------------------------------
 CID_58522544_JID_2509_Energie_anion
 -----------------------------------
 Structure from the checkpoint file:  "JID_2509.chk"
 Charge = -1 Multiplicity = 2

                         Standard orientation:
 ---------------------------------------------------------------------
 Center     Atomic      Atomic             Coordinates (Angstroms)
 Number     Number       Type             X           Y           Z
 ---------------------------------------------------------------------
      1          6           0        3.389312   -0.230437    0.000157
      2          7           0        1.951850   -0.324914   -0.000245
      3          6           0        1.238731   -1.586350   -0.000066
      4          6           0       -0.208691   -1.154757   -0.000030
      5          6           0       -0.261732    0.240172   -0.000045
      6          6           0        1.124481    0.788117   -0.000054
      7          8           0        1.502856    1.948500    0.000050
      8          6           0       -1.494667    0.902411   -0.000005
      9          6           0       -2.660732    0.123783    0.000050
     10          6           0       -2.588755   -1.270774    0.000067
     11          6           0       -1.358588   -1.934222    0.000021
     12          8           0       -1.516626    2.258758   -0.000062
     13          1           0        3.821162   -0.705311   -0.891122
     14          1           0        3.820656   -0.706468    0.891063
     15          1           0        3.644101    0.831338    0.000897
     16          1           0        1.489209   -2.189354    0.886024
     17          1           0        1.489098   -2.189579   -0.886028
     18          1           0       -3.631088    0.616423    0.000071
     19          1           0       -3.511187   -1.844486    0.000112
     20          1           0       -1.310352   -3.019005    0.000025
     21          1           0       -2.440543    2.555116    0.000197
 ---------------------------------------------------------------------

 SCF Done:  E(UB3LYP) =  -553.769754992     A.U. after   33 cycles
 SCF Done:  E(UB3LYP) =  -553.769754992     a.u. after    1 cycles

 The electronic state is 2-A.
 Alpha  occ. eigenvalues --  -19.02110 -18.91802 -14.18490 -10.09783 -10.09203
 Alpha  occ. eigenvalues --  -10.07210 -10.06975 -10.02371 -10.02165 -10.02003
 Alpha  occ. eigenvalues --  -10.01872 -10.00645  -0.93289  -0.87500  -0.79798
 Alpha  occ. eigenvalues --   -0.70614  -0.63615  -0.60337  -0.56440  -0.55043
 Alpha  occ. eigenvalues --   -0.48170  -0.46068  -0.41813  -0.37970  -0.35989
 Alpha  occ. eigenvalues --   -0.34510  -0.34458  -0.32251  -0.30008  -0.28742
 Alpha  occ. eigenvalues --   -0.27468  -0.27316  -0.26037  -0.24792  -0.24625
 Alpha  occ. eigenvalues --   -0.23097  -0.21855  -0.20443  -0.19479  -0.11080
 Alpha  occ. eigenvalues --   -0.10090  -0.09707  -0.08439   0.06963
 Alpha virt. eigenvalues --    0.08069   0.08564   0.09734   0.10489   0.10782
 Alpha virt. eigenvalues --    0.12301   0.12856   0.13907   0.14440   0.14491
 Alpha virt. eigenvalues --    0.15971   0.17383   0.18014   0.18300   0.18972

  Beta  occ. eigenvalues --  -19.02100 -18.91554 -14.18450 -10.09640 -10.09192
  Beta  occ. eigenvalues --  -10.07241 -10.06970 -10.02472 -10.02076 -10.01682
  Beta  occ. eigenvalues --  -10.01529 -10.00457  -0.93257  -0.87118  -0.79580
  Beta  occ. eigenvalues --   -0.70236  -0.63265  -0.60012  -0.56204  -0.54807
  Beta  occ. eigenvalues --   -0.48074  -0.45525  -0.41675  -0.37690  -0.35891
  Beta  occ. eigenvalues --   -0.34261  -0.34198  -0.32052  -0.29884  -0.28483
  Beta  occ. eigenvalues --   -0.27289  -0.27013  -0.25888  -0.24694  -0.24396
  Beta  occ. eigenvalues --   -0.22056  -0.21692  -0.20285  -0.18569  -0.09439
  Beta  occ. eigenvalues --   -0.09379  -0.09199  -0.07789
  Beta virt. eigenvalues --    0.08306   0.08595   0.09647   0.10761   0.10781
  Beta virt. eigenvalues --    0.12266   0.12845   0.13285   0.13819   0.14352
  Beta virt. eigenvalues --    0.14804   0.15793   0.17502   0.17886   0.18266

 Mulliken charges and spin densities:
               1          2
     1  C   -0.121370  -0.174639
     2  N   -0.032197   0.034624
     3  C   -0.236226  -0.292691
     4  C    0.295947   0.155330
     5  C    0.631133   0.212468
     6  C    0.221526   0.067182
     7  O   -0.441162   0.083826
     8  C   -0.335332   0.035023
     9  C    0.030130   0.051354
    10  C   -0.216913   0.325136
    11  C   -1.156896  -0.143133
    12  O   -0.209179   0.006214
    13  H   -0.002997   0.128915
    14  H   -0.003179   0.129042
    15  H    0.171893  -0.000831
    16  H   -0.038815   0.203458
    17  H   -0.039639   0.204377
    18  H    0.057795  -0.008591
    19  H    0.102258  -0.023269
    20  H    0.083958   0.006826
    21  H    0.239265  -0.000621
 Sum of Mulliken charges =  -1.00000   1.00000

 Dipole moment (field-independent basis, Debye):
    X=             -2.6707    Y=             -0.8355    Z=              0.0032  Tot=              2.7983
 Quadrupole moment (field-independent basis, Debye-Ang):
   XX=            -93.2721   YY=            -94.0678   ZZ=            -85.9639
   XY=             -7.2513   XZ=              0.0002   YZ=             -0.0075

 Summary of Natural Population Analysis:

                                       Natural Population
                Natural  -----------------------------------------------
    Atom  No    Charge         Core      Valence    Rydberg      Total
 -----------------------------------------------------------------------
      C    1   -0.17521      0.99966     2.16828    0.00727     3.17521
      N    2   -0.25929      0.99965     2.75028    0.00935     3.75929
      C    3   -0.08235      0.99961     2.07491    0.00784     3.08235
      C    4    0.03724      0.99955     1.95103    0.01218     2.96276
      C    5   -0.00649      0.99936     1.99700    0.01013     3.00649
      C    6    0.34720      0.99965     1.62578    0.02737     2.65280
      O    7   -0.30932      0.99987     3.30410    0.00535     4.30932
      C    8    0.15789      0.99940     1.82437    0.01834     2.84211
      C    9   -0.14530      0.99954     2.13682    0.00894     3.14530
      C   10   -0.03034      0.99959     2.02060    0.01014     3.03034
      C   11   -0.15063      0.99951     2.14104    0.01007     3.15063
      O   12   -0.32967      0.99987     3.32303    0.00677     4.32967
      H   13    0.08432      0.00000     0.41382    0.00186     0.41568
      H   14    0.08431      0.00000     0.41382    0.00187     0.41569
      H   15    0.11018      0.00000     0.38868    0.00114     0.38982
      H   16    0.09352      0.00000     0.40434    0.00214     0.40648
      H   17    0.09353      0.00000     0.40432    0.00214     0.40647
      H   18    0.08455      0.00000     0.41415    0.00130     0.41545
      H   19    0.08455      0.00000     0.41414    0.00131     0.41545
      H   20    0.09165      0.00000     0.40743    0.00093     0.40835
      H   21    0.22315      0.00000     0.27425    0.00260     0.27685
 =======================================================================
   * Total *    0.00348     11.99528    30.85221    0.14903    42.99652

 Normal termination of Gaussian 16 at Wed Dec  9 17:45:28 2020.
