 Gaussian 16, Revision A.03,

 -----------------------------------------------------------
 # opt freq B3LYP/6-31G(d) empiricaldispersion=gd3bj scf=xqc
 -----------------------------------------------------------

 -------------------------------
 CID_150280396_JID_3928_neutraal
 -------------------------------
 Symbolic Z-matrix:
 Charge =  0 Multiplicity = 1

 SCF Done:  E(RB3LYP) =  -659.396979434     A.U. after   15 cycles
 SCF Done:  E(RB3LYP) =  -659.400647564     A.U. after   15 cycles
 SCF Done:  E(RB3LYP) =  -659.402486327     A.U. after   15 cycles
 SCF Done:  E(RB3LYP) =  -659.402973170     A.U. after   13 cycles
 SCF Done:  E(RB3LYP) =  -659.403188841     A.U. after   14 cycles
 SCF Done:  E(RB3LYP) =  -659.403328229     A.U. after   12 cycles
 SCF Done:  E(RB3LYP) =  -659.403423848     A.U. after   12 cycles
 SCF Done:  E(RB3LYP) =  -659.403518172     A.U. after   12 cycles
 SCF Done:  E(RB3LYP) =  -659.403627734     A.U. after   13 cycles
 SCF Done:  E(RB3LYP) =  -659.403760740     A.U. after   16 cycles
 SCF Done:  E(RB3LYP) =  -659.404462589     A.U. after    8 cycles
 SCF Done:  E(RB3LYP) =  -659.404462604     A.U. after    7 cycles
 SCF Done:  E(RB3LYP) =  -659.404462616     A.U. after    7 cycles
 SCF Done:  E(RB3LYP) =  -659.404462636     A.U. after    7 cycles
 SCF Done:  E(RB3LYP) =  -659.404462659     A.U. after    7 cycles
 Optimization completed.
    -- Stationary point found.
 Normal termination of Gaussian 16 at Mon Dec 14 16:38:50 2020.

 --------------------------------------------------------------------
 #N Geom=AllCheck Guess=TCheck SCRF=Check GenChk RB3LYP/6-31G(d) Freq
 --------------------------------------------------------------------

 Structure from the checkpoint file:  "JID_3928.chk"
 -------------------------------
 CID_150280396_JID_3928_neutraal
 -------------------------------
 Charge =  0 Multiplicity = 1

 SCF Done:  E(RB3LYP) =  -659.404462658     A.U. after    1 cycles

  Exact polarizability: 119.448  -8.941 105.757  -8.351 -14.435  84.369
 Approx polarizability: 147.131 -11.844 188.823 -12.827 -46.354 138.818

                      1                      2                      3
                      A                      A                      A
 Frequencies --     16.1263                24.3708                46.5958
 Red. masses --      3.1586                 7.1890                 9.8172
 Frc consts  --      0.0005                 0.0025                 0.0126
 IR Inten    --      0.5335                 0.3295                 0.1049

                      4                      5                      6
                      A                      A                      A
 Frequencies --     56.0033                75.2841                98.4855
 Red. masses --      6.5736                 3.6422                 1.2643
 Frc consts  --      0.0121                 0.0122                 0.0072
 IR Inten    --      0.9173                 2.5246                 1.5108

                      7                      8                      9
                      A                      A                      A
 Frequencies --    102.2406               140.6068               205.9980
 Red. masses --      3.8958                 3.8109                 1.1418
 Frc consts  --      0.0240                 0.0444                 0.0285
 IR Inten    --      1.5672                 3.5897                 0.0494

                     10                     11                     12
                      A                      A                      A
 Frequencies --    224.6390               254.8944               290.9255
 Red. masses --      4.1501                 5.4767                 4.1194
 Frc consts  --      0.1234                 0.2096                 0.2054
 IR Inten    --      0.7290                 9.6645                 4.0241

                     13                     14                     15
                      A                      A                      A
 Frequencies --    313.8757               319.1264               399.2544
 Red. masses --      2.7404                 3.5036                 2.8031
 Frc consts  --      0.1591                 0.2102                 0.2633
 IR Inten    --      1.9967                 1.5725                 0.3341

                     16                     17                     18
                      A                      A                      A
 Frequencies --    449.2687               468.8958               501.5100
 Red. masses --      1.2180                 2.3517                 3.1256
 Frc consts  --      0.1448                 0.3046                 0.4632
 IR Inten    --    104.9612                 7.0629                 1.0712

                     19                     20                     21
                      A                      A                      A
 Frequencies --    535.4109               567.5536               599.4545
 Red. masses --      3.4031                11.4589                 4.6697
 Frc consts  --      0.5748                 2.1747                 0.9887
 IR Inten    --      3.7727                 6.4562                 5.2609

                     22                     23                     24
                      A                      A                      A
 Frequencies --    644.7365               669.2241               746.5263
 Red. masses --      5.3096                 4.4722                12.2957
 Frc consts  --      1.3004                 1.1801                 4.0373
 IR Inten    --      4.6069                 6.6653                29.1637

                     25                     26                     27
                      A                      A                      A
 Frequencies --    829.2302               855.3384               897.5723
 Red. masses --      3.5765                 3.6727                 2.5515
 Frc consts  --      1.4490                 1.5831                 1.2111
 IR Inten    --      1.0834                11.6113                 4.4348

                     28                     29                     30
                      A                      A                      A
 Frequencies --    949.2955               980.8291               987.9843
 Red. masses --      6.7252                 1.2887                 4.0384
 Frc consts  --      3.5707                 0.7305                 2.3225
 IR Inten    --     17.6510                 4.0763               102.7590

                     31                     32                     33
                      A                      A                      A
 Frequencies --    995.5923               999.3579              1093.2282
 Red. masses --      1.4210                 3.1109                 2.1167
 Frc consts  --      0.8299                 1.8305                 1.4905
 IR Inten    --      0.9046               164.5977               151.1542

                     34                     35                     36
                      A                      A                      A
 Frequencies --   1103.9354              1118.3965              1158.4863
 Red. masses --      1.7214                 1.6822                 2.9019
 Frc consts  --      1.2360                 1.2397                 2.2946
 IR Inten    --     31.0741                 2.6959                38.6196

                     37                     38                     39
                      A                      A                      A
 Frequencies --   1253.2074              1294.4788              1303.7407
 Red. masses --      1.3987                 1.9805                 2.7661
 Frc consts  --      1.2942                 1.9553                 2.7701
 IR Inten    --     31.9052                93.9042                25.7927

                     40                     41                     42
                      A                      A                      A
 Frequencies --   1344.9786              1357.2395              1390.9479
 Red. masses --      1.9294                 3.1542                 1.3146
 Frc consts  --      2.0563                 3.4233                 1.4986
 IR Inten    --    294.4140               158.1048                 4.2689

                     43                     44                     45
                      A                      A                      A
 Frequencies --   1423.6943              1428.0276              1438.8482
 Red. masses --      1.3740                 1.2846                 1.3010
 Frc consts  --      1.6408                 1.5434                 1.5869
 IR Inten    --     33.3840                19.0479                13.2262

                     46                     47                     48
                      A                      A                      A
 Frequencies --   1486.3996              1501.8772              1505.6161
 Red. masses --      1.5101                 1.0826                 1.1180
 Frc consts  --      1.9658                 1.4387                 1.4932
 IR Inten    --     30.0371                15.7126                32.3535

                     49                     50                     51
                      A                      A                      A
 Frequencies --   1509.0215              1509.8868              1515.4512
 Red. masses --      1.0527                 1.0518                 1.0808
 Frc consts  --      1.4124                 1.4127                 1.4624
 IR Inten    --      6.0080                15.9173                 8.4255

                     52                     53                     54
                      A                      A                      A
 Frequencies --   1520.6524              1734.3938              1879.8769
 Red. masses --      1.0918                 7.9831                10.3328
 Frc consts  --      1.4875                14.1487                21.5142
 IR Inten    --      8.4293                13.4155               413.3745

                     55                     56                     57
                      A                      A                      A
 Frequencies --   2261.4909              3045.7809              3060.3705
 Red. masses --     13.6437                 1.0386                 1.0370
 Frc consts  --     41.1122                 5.6765                 5.7222
 IR Inten    --    417.0772                16.2946                 6.5923

                     58                     59                     60
                      A                      A                      A
 Frequencies --   3070.0459              3076.2408              3097.5796
 Red. masses --      1.0616                 1.0611                 1.1006
 Frc consts  --      5.8951                 5.9164                 6.2218
 IR Inten    --     22.7227                30.1535                14.2714

                     61                     62                     63
                      A                      A                      A
 Frequencies --   3119.7643              3126.3366              3136.0578
 Red. masses --      1.0990                 1.1040                 1.1061
 Frc consts  --      6.3024                 6.3574                 6.4094
 IR Inten    --      9.9225                16.3574                30.7345

                     64                     65                     66
                      A                      A                      A
 Frequencies --   3149.7885              3163.7784              3655.6584
 Red. masses --      1.1036                 1.1000                 1.0776
 Frc consts  --      6.4507                 6.4870                 8.4844
 IR Inten    --     16.9613                 6.7701                54.4229

 - Thermochemistry -
 -------------------
 Temperature   298.150 Kelvin.  Pressure   1.00000 Atm.
 Atom     1 has atomic number  6 and mass  12.00000

 Molecular mass:   185.09127 amu.
 Principal axes and moments of inertia in atomic units:
                           1         2         3
     Eigenvalues --  1444.854104157.229934493.76032
           X            0.99961  -0.01312  -0.02447
           Y            0.01228   0.99934  -0.03408
           Z            0.02490   0.03377   0.99912
 This molecule is an asymmetric top.
 Rotational symmetry number  1.
 Warning -- assumption of classical behavior for rotation
           may cause significant error
 Rotational temperatures (Kelvin)      0.05995     0.02083     0.01927
 Rotational constants (GHZ):           1.24908     0.43412     0.40161
 Zero-point vibrational energy     496937.6 (Joules/Mol)
                                  118.77094 (Kcal/Mol)
 Warning -- explicit consideration of  21 degrees of freedom as
           vibrations may cause significant error
 Vibrational temperatures:     23.20    35.06    67.04    80.58   108.32
          (Kelvin)            141.70   147.10   202.30   296.39   323.21
                              366.74   418.58   451.60   459.15   574.44
                              646.40   674.64   721.56   770.34   816.58
                              862.48   927.63   962.86  1074.08  1193.08
                             1230.64  1291.41  1365.82  1411.19  1421.49
                             1432.44  1437.85  1572.91  1588.32  1609.12
                             1666.80  1803.09  1862.47  1875.79  1935.12
                             1952.76  2001.26  2048.38  2054.61  2070.18
                             2138.60  2160.87  2166.25  2171.15  2172.39
                             2180.40  2187.88  2495.41  2704.72  3253.78
                             4382.20  4403.19  4417.11  4426.02  4456.73
                             4488.65  4498.10  4512.09  4531.84  4551.97
                             5259.68

 Zero-point correction=                           0.189274 (Hartree/Particle)
 Thermal correction to Energy=                    0.203804
 Thermal correction to Enthalpy=                  0.204748
 Thermal correction to Gibbs Free Energy=         0.144509
 Sum of electronic and zero-point Energies=           -659.215189
 Sum of electronic and thermal Energies=              -659.200659
 Sum of electronic and thermal Enthalpies=            -659.199715
 Sum of electronic and thermal Free Energies=         -659.259954

                     E (Thermal)             CV                S
                      KCal/Mol        Cal/Mol-Kelvin    Cal/Mol-Kelvin
 Total                  127.889             49.704            126.783
 Electronic               0.000              0.000              0.000
 Translational            0.889              2.981             41.553
 Rotational               0.889              2.981             31.668
 Vibrational            126.111             43.742             53.562
 Vibration     1          0.593              1.986              7.062
 Vibration     2          0.593              1.985              6.242
 Vibration     3          0.595              1.979              4.957
 Vibration     4          0.596              1.975              4.593
 Vibration     5          0.599              1.965              4.010
 Vibration     6          0.604              1.950              3.484
 Vibration     7          0.604              1.947              3.411
 Vibration     8          0.615              1.913              2.796
 Vibration     9          0.640              1.831              2.079
 Vibration    10          0.649              1.804              1.921
 Vibration    11          0.665              1.755              1.696
 Vibration    12          0.687              1.691              1.469
 Vibration    13          0.702              1.647              1.342
 Vibration    14          0.705              1.637              1.315
 Vibration    15          0.765              1.472              0.965
 Vibration    16          0.808              1.363              0.798
 Vibration    17          0.826              1.319              0.741
 Vibration    18          0.857              1.247              0.654
 Vibration    19          0.890              1.172              0.575
 Vibration    20          0.924              1.101              0.509
 Vibration    21          0.958              1.033              0.451

 Optimization completed.
    -- Stationary point found.
 Normal termination of Gaussian 16 at Mon Dec 14 16:44:03 2020.

 ----------------------------------------------------------------------
 # B3LYP/6-311++G(d,p) empiricaldispersion=gd3bj scf=xqc pop=npa geom=c
 heck
 ----------------------------------------------------------------------

 ---------------------------------------
 CID_150280396_JID_3928_Energie_neutraal
 ---------------------------------------
 Structure from the checkpoint file:  "JID_3928.chk"
 Charge =  0 Multiplicity = 1

 SCF Done:  E(RB3LYP) =  -659.597818903     A.U. after   15 cycles
 Normal termination of Gaussian 16 at Mon Dec 14 16:46:13 2020.

 ----------------------------------------------------------------------
 # B3LYP/6-311++G(d,p) empiricaldispersion=gd3bj scf=xqc pop=npa geom=c
 heck
 ----------------------------------------------------------------------

 -------------------------------------
 CID_150280396_JID_3928_Energie_kation
 -------------------------------------
 Structure from the checkpoint file:  "JID_3928.chk"
 Charge =  1 Multiplicity = 2

 SCF Done:  E(UB3LYP) =  -659.269990201     A.U. after   28 cycles
 Normal termination of Gaussian 16 at Mon Dec 14 16:51:53 2020.
 Gaussian 16:  ES64L-G16RevA.03 25-Dec-2016

 ----------------------------------------------------------------------
 # B3LYP/6-311++G(d,p) empiricaldispersion=gd3bj scf=xqc pop=npa geom=c
 heck
 ----------------------------------------------------------------------

 ------------------------------------
 CID_150280396_JID_3928_Energie_anion
 ------------------------------------
 Structure from the checkpoint file:  "JID_3928.chk"
 Charge = -1 Multiplicity = 2

                         Standard orientation:
 ---------------------------------------------------------------------
 Center     Atomic      Atomic             Coordinates (Angstroms)
 Number     Number       Type             X           Y           Z
 ---------------------------------------------------------------------
      1          6           0       -2.503702    1.735632   -0.042195
      2          6           0       -2.836451    0.301754    0.278775
      3          7           0       -2.046160   -0.693585    0.116635
      4          8           0       -0.807437   -0.233438   -0.415055
      5          6           0        0.093860   -1.264743   -0.607622
      6          8           0       -0.079337   -2.425504   -0.332564
      7          7           0        1.232864   -0.746154   -1.165644
      8          6           0        1.477463    0.645207   -1.503123
      9          6           0        1.801541    1.515268   -0.281934
     10          7           0        3.047263    1.087813    0.382722
     11          7           0        2.935798    0.136878    1.167091
     12          7           0        2.979963   -0.713581    1.927760
     13          6           0       -4.189491   -0.029433    0.840561
     14          1           0       -1.695416    2.094110    0.605721
     15          1           0       -3.374005    2.381393    0.097511
     16          1           0       -2.150663    1.827836   -1.074387
     17          1           0        1.962145   -1.429512   -1.303625
     18          1           0        2.321341    0.671271   -2.198040
     19          1           0        0.604498    1.061402   -2.016535
     20          1           0        1.972141    2.546591   -0.601746
     21          1           0        0.956654    1.502486    0.415735
     22          1           0       -4.356424    0.516819    1.777546
     23          1           0       -4.977768    0.278585    0.142132
     24          1           0       -4.275738   -1.101151    1.029922
 ---------------------------------------------------------------------

 SCF Done:  E(UB3LYP) =  -659.594462298     A.U. after   33 cycles
 SCF Done:  E(UB3LYP) =  -659.594462298     a.u. after    1 cycles

 The electronic state is 2-A.
 Alpha  occ. eigenvalues --  -19.08990 -18.99774 -14.35476 -14.26669 -14.25578
 Alpha  occ. eigenvalues --  -14.24593 -14.24335 -10.22200 -10.13146 -10.11787
 Alpha  occ. eigenvalues --  -10.11010 -10.08442 -10.07809  -1.02855  -1.02041
 Alpha  occ. eigenvalues --   -0.93824  -0.86582  -0.84268  -0.79355  -0.67603
 Alpha  occ. eigenvalues --   -0.65620  -0.61846  -0.57570  -0.52820  -0.45022
 Alpha  occ. eigenvalues --   -0.42641  -0.42066  -0.41637  -0.40255  -0.39241
 Alpha  occ. eigenvalues --   -0.38555  -0.37861  -0.35251  -0.34484  -0.33978
 Alpha  occ. eigenvalues --   -0.32699  -0.32173  -0.30976  -0.30673  -0.29707
 Alpha  occ. eigenvalues --   -0.28731  -0.27986  -0.26673  -0.19666  -0.19249
 Alpha  occ. eigenvalues --   -0.18556  -0.17729  -0.17076  -0.13966   0.03908
 Alpha virt. eigenvalues --    0.05769   0.07209   0.07757   0.07997   0.09098
 Alpha virt. eigenvalues --    0.09613   0.10083   0.10377   0.11526   0.11837
 Alpha virt. eigenvalues --    0.12125   0.13346   0.13713   0.13889   0.14270

  Beta  occ. eigenvalues --  -19.08984 -18.99767 -14.35299 -14.26666 -14.25316
  Beta  occ. eigenvalues --  -14.24589 -14.24382 -10.22196 -10.13143 -10.11758
  Beta  occ. eigenvalues --  -10.10934 -10.08411 -10.07750  -1.02846  -1.01682
  Beta  occ. eigenvalues --   -0.93813  -0.86419  -0.84231  -0.79337  -0.67503
  Beta  occ. eigenvalues --   -0.65566  -0.61768  -0.57428  -0.52777  -0.44969
  Beta  occ. eigenvalues --   -0.42546  -0.41885  -0.41579  -0.40138  -0.39015
  Beta  occ. eigenvalues --   -0.38146  -0.37763  -0.35187  -0.34432  -0.33505
  Beta  occ. eigenvalues --   -0.32609  -0.32071  -0.30924  -0.30612  -0.29605
  Beta  occ. eigenvalues --   -0.28539  -0.27940  -0.26636  -0.19498  -0.19076
  Beta  occ. eigenvalues --   -0.18540  -0.17649  -0.17016  -0.13891
  Beta virt. eigenvalues --    0.06479   0.07035   0.07858   0.08518   0.08756
  Beta virt. eigenvalues --    0.09805   0.10131   0.10585   0.10883   0.11749
  Beta virt. eigenvalues --    0.12127   0.12523   0.13594   0.13868   0.14118

 Mulliken charges and spin densities:
               1          2
     1  C    0.761948  -1.367690
     2  C   -1.216518   1.657094
     3  N   -0.317993   0.078899
     4  O    0.074386   0.003915
     5  C    0.151278   0.010139
     6  O   -0.280609   0.003829
     7  N   -0.390680   0.087630
     8  C    0.457917  -0.841506
     9  C    0.062718  -0.358788
    10  N   -0.881622   0.559810
    11  N    0.728420  -0.245568
    12  N    0.042107  -0.136861
    13  C    1.648364  -2.342845
    14  H   -0.172619   0.345271
    15  H   -0.750169   0.933638
    16  H   -0.225087   0.401402
    17  H    0.250258   0.080400
    18  H   -0.252116   0.439179
    19  H    0.080366   0.083739
    20  H   -0.695748   0.876192
    21  H    0.191603  -0.002565
    22  H   -0.135801   0.293679
    23  H   -0.166463   0.323092
    24  H    0.036059   0.117917
 Sum of Mulliken charges =  -1.00000   1.00000

 Dipole moment (field-independent basis, Debye):
    X=              0.8892    Y=             -2.6330    Z=             -0.9699  Tot=              2.9435
 Quadrupole moment (field-independent basis, Debye-Ang):
   XX=           -140.5691   YY=           -126.6755   ZZ=           -103.1203
   XY=              3.7064   XZ=             -3.2521   YZ=              7.2374

 Summary of Natural Population Analysis:

                                       Natural Population
                Natural  -----------------------------------------------
    Atom  No    Charge         Core      Valence    Rydberg      Total
 -----------------------------------------------------------------------
      C    1   -0.32060      0.99962     2.31408    0.00691     3.32060
      C    2    0.13323      0.99964     1.85124    0.01589     2.86677
      N    3   -0.07871      0.99960     2.56719    0.01192     3.57871
      O    4   -0.23071      0.99987     3.22271    0.00814     4.23071
      C    5    0.46360      0.99971     1.51141    0.02528     2.53640
      O    6   -0.31021      0.99986     3.30538    0.00496     4.31021
      N    7   -0.33224      0.99968     2.82308    0.00948     3.83224
      C    8   -0.09573      0.99961     2.08391    0.01221     3.09573
      C    9   -0.09653      0.99958     2.08525    0.01170     3.09653
      N   10   -0.20423      0.99971     2.69024    0.01428     3.70423
      N   11    0.12578      0.99970     2.35893    0.01559     3.37422
      N   12   -0.02182      0.99982     2.50841    0.01359     3.52182
      C   13   -0.30039      0.99961     2.29536    0.00542     3.30039
      H   14    0.11681      0.00000     0.38164    0.00155     0.38319
      H   15    0.10749      0.00000     0.39030    0.00221     0.39251
      H   16    0.11671      0.00000     0.38156    0.00173     0.38329
      H   17    0.19951      0.00000     0.29866    0.00183     0.30049
      H   18    0.10106      0.00000     0.39742    0.00151     0.39894
      H   19    0.10380      0.00000     0.39445    0.00174     0.39620
      H   20    0.10269      0.00000     0.39439    0.00291     0.39731
      H   21    0.09559      0.00000     0.40231    0.00209     0.40441
      H   22    0.10724      0.00000     0.39161    0.00116     0.39276
      H   23    0.10703      0.00000     0.39180    0.00117     0.39297
      H   24    0.11063      0.00000     0.38836    0.00101     0.38937
 =======================================================================
   * Total *   -0.00000     12.99601    35.82970    0.17429    49.00000

 Normal termination of Gaussian 16 at Mon Dec 14 16:58:32 2020.
