 Gaussian 16, Revision A.03,

 -----------------------------------------------------------
 # opt freq B3LYP/6-31G(d) empiricaldispersion=gd3bj scf=xqc
 -----------------------------------------------------------

 ------------------------------
 CID_82416286_JID_1493_neutraal
 ------------------------------
 Symbolic Z-matrix:
 Charge =  0 Multiplicity = 1

 SCF Done:  E(RB3LYP) =  -483.201498078     A.U. after   12 cycles
 SCF Done:  E(RB3LYP) =  -483.204681432     A.U. after   10 cycles
 SCF Done:  E(RB3LYP) =  -483.204858743     A.U. after   10 cycles
 SCF Done:  E(RB3LYP) =  -483.204864875     A.U. after    9 cycles
 SCF Done:  E(RB3LYP) =  -483.204884642     A.U. after    9 cycles
 SCF Done:  E(RB3LYP) =  -483.204886761     A.U. after    7 cycles
 SCF Done:  E(RB3LYP) =  -483.204888390     A.U. after    8 cycles
 SCF Done:  E(RB3LYP) =  -483.204889403     A.U. after    7 cycles
 SCF Done:  E(RB3LYP) =  -483.204890284     A.U. after    8 cycles
 SCF Done:  E(RB3LYP) =  -483.204890352     A.U. after    6 cycles
 Optimization completed.
    -- Stationary point found.
 Normal termination of Gaussian 16 at Tue Dec  8 20:08:08 2020.

 --------------------------------------------------------------------
 #N Geom=AllCheck Guess=TCheck SCRF=Check GenChk RB3LYP/6-31G(d) Freq
 --------------------------------------------------------------------

 Structure from the checkpoint file:  "JID_1493.chk"
 ------------------------------
 CID_82416286_JID_1493_neutraal
 ------------------------------
 Charge =  0 Multiplicity = 1

 SCF Done:  E(RB3LYP) =  -483.204890352     A.U. after    1 cycles

  Exact polarizability: 111.442  -0.965  95.727  -1.153  -0.896  88.428
 Approx polarizability: 139.062  -0.535 134.907  -0.801   2.205 136.895

                      1                      2                      3
                      A                      A                      A
 Frequencies --     78.3609               116.1798               147.6948
 Red. masses --      1.8054                 2.7563                 2.5155
 Frc consts  --      0.0065                 0.0219                 0.0323
 IR Inten    --      0.0460                 0.8577                 1.4813

                      4                      5                      6
                      A                      A                      A
 Frequencies --    175.8424               193.5286               246.1744
 Red. masses --      1.1348                 2.7850                 2.3854
 Frc consts  --      0.0207                 0.0615                 0.0852
 IR Inten    --     15.7709                 3.8456                 2.7321

                      7                      8                      9
                      A                      A                      A
 Frequencies --    276.8416               303.4059               367.7192
 Red. masses --      1.4259                 2.2810                 2.7585
 Frc consts  --      0.0644                 0.1237                 0.2198
 IR Inten    --     21.8699                10.3339                 3.3666

                     10                     11                     12
                      A                      A                      A
 Frequencies --    387.5750               408.8286               425.0977
 Red. masses --      2.8526                 2.2927                 3.2261
 Frc consts  --      0.2525                 0.2258                 0.3435
 IR Inten    --      3.0129                 2.2133                10.3541

                     13                     14                     15
                      A                      A                      A
 Frequencies --    511.9641               548.3288               614.7314
 Red. masses --      3.2074                 3.9002                 3.0598
 Frc consts  --      0.4953                 0.6909                 0.6813
 IR Inten    --      3.0959                 7.3484                 9.5383

                     16                     17                     18
                      A                      A                      A
 Frequencies --    622.3608               758.7333               769.1801
 Red. masses --      2.7473                 1.8396                 2.6221
 Frc consts  --      0.6270                 0.6239                 0.9140
 IR Inten    --      2.2049                 1.3753                 5.5016

                     19                     20                     21
                      A                      A                      A
 Frequencies --    789.1130               812.9110               875.7079
 Red. masses --      1.5203                 2.4882                 2.8528
 Frc consts  --      0.5578                 0.9688                 1.2889
 IR Inten    --      2.0004                 1.3926                56.2332

                     22                     23                     24
                      A                      A                      A
 Frequencies --    891.5298               904.9559               914.3383
 Red. masses --      1.6736                 2.6878                 1.9082
 Frc consts  --      0.7837                 1.2969                 0.9399
 IR Inten    --     65.1816                 1.3594                58.2761

                     25                     26                     27
                      A                      A                      A
 Frequencies --    951.6072               977.2848               978.9783
 Red. masses --      1.6419                 1.6398                 2.0927
 Frc consts  --      0.8760                 0.9228                 1.1817
 IR Inten    --     11.7287                 7.7277                 2.7360

                     28                     29                     30
                      A                      A                      A
 Frequencies --   1011.0817              1026.7571              1070.0259
 Red. masses --      2.3305                 2.0410                 1.5732
 Frc consts  --      1.4037                 1.2678                 1.0613
 IR Inten    --      1.7246                 3.7679                22.4056

                     31                     32                     33
                      A                      A                      A
 Frequencies --   1090.9141              1112.3320              1121.6024
 Red. masses --      1.6363                 2.2576                 2.2652
 Frc consts  --      1.1473                 1.6457                 1.6790
 IR Inten    --      1.4824                54.7147                13.4176

                     34                     35                     36
                      A                      A                      A
 Frequencies --   1143.0094              1154.4720              1174.2701
 Red. masses --      2.5974                 1.8354                 2.4889
 Frc consts  --      1.9993                 1.4413                 2.0221
 IR Inten    --     16.4178                 8.4243                84.5845

                     37                     38                     39
                      A                      A                      A
 Frequencies --   1198.4364              1210.1739              1242.8973
 Red. masses --      1.4882                 1.5220                 1.7643
 Frc consts  --      1.2593                 1.3133                 1.6058
 IR Inten    --      1.9652                 7.1616                 8.4061

                     40                     41                     42
                      A                      A                      A
 Frequencies --   1265.5619              1284.1465              1298.1651
 Red. masses --      1.3547                 1.2383                 1.3160
 Frc consts  --      1.2784                 1.2031                 1.3066
 IR Inten    --     22.4946                 0.8714                 8.4995

                     43                     44                     45
                      A                      A                      A
 Frequencies --   1313.4354              1335.6217              1340.3322
 Red. masses --      1.3445                 1.3737                 1.3449
 Frc consts  --      1.3666                 1.4438                 1.4235
 IR Inten    --      2.3563                 3.7080                 2.1158

                     46                     47                     48
                      A                      A                      A
 Frequencies --   1346.9223              1373.0547              1385.5093
 Red. masses --      1.3898                 1.4607                 1.4369
 Frc consts  --      1.4855                 1.6225                 1.6252
 IR Inten    --      2.2004                 4.6589                 2.1087

                     49                     50                     51
                      A                      A                      A
 Frequencies --   1400.0942              1404.3918              1416.7903
 Red. masses --      1.2897                 1.2618                 1.5209
 Frc consts  --      1.4895                 1.4663                 1.7987
 IR Inten    --      9.5904                 8.5429                 7.6861

                     52                     53                     54
                      A                      A                      A
 Frequencies --   1429.7398              1439.7080              1451.4323
 Red. masses --      1.4214                 1.2724                 1.3242
 Frc consts  --      1.7119                 1.5539                 1.6436
 IR Inten    --      9.3234                24.9022                 2.7171

                     55                     56                     57
                      A                      A                      A
 Frequencies --   1500.8160              1518.2628              1519.4176
 Red. masses --      1.0898                 1.0587                 1.0775
 Frc consts  --      1.4463                 1.4378                 1.4656
 IR Inten    --      4.2707                 3.3139                 0.2710

                     58                     59                     60
                      A                      A                      A
 Frequencies --   1528.5068              1530.2042              1546.5311
 Red. masses --      1.0899                 1.0554                 1.1055
 Frc consts  --      1.5002                 1.4560                 1.5578
 IR Inten    --      3.9835                 1.6667                 1.9070

                     61                     62                     63
                      A                      A                      A
 Frequencies --   1699.9787              2954.1017              3014.6342
 Red. masses --      1.0912                 1.0798                 1.0830
 Frc consts  --      1.8580                 5.5521                 5.7990
 IR Inten    --     23.7635                35.2524                15.3955

                     64                     65                     66
                      A                      A                      A
 Frequencies --   3039.5657              3046.7227              3053.3907
 Red. masses --      1.0793                 1.0657                 1.0760
 Frc consts  --      5.8752                 5.8283                 5.9104
 IR Inten    --     12.7352                37.0799                40.2741

                     67                     68                     69
                      A                      A                      A
 Frequencies --   3062.9673              3065.9108              3068.5345
 Red. masses --      1.0425                 1.0611                 1.0746
 Frc consts  --      5.7627                 5.8764                 5.9617
 IR Inten    --     24.9108                29.4677                49.6518

                     70                     71                     72
                      A                      A                      A
 Frequencies --   3075.1133              3094.0085              3106.0446
 Red. masses --      1.0640                 1.1001                 1.1007
 Frc consts  --      5.9282                 6.2047                 6.2568
 IR Inten    --     41.6465                19.2408                23.5601

                     73                     74                     75
                      A                      A                      A
 Frequencies --   3109.0270              3123.6669              3131.1627
 Red. masses --      1.1019                 1.1055                 1.1025
 Frc consts  --      6.2756                 6.3554                 6.3684
 IR Inten    --     17.4978                63.9278                28.5137

                     76                     77                     78
                      A                      A                      A
 Frequencies --   3138.2569              3474.8005              3561.0257
 Red. masses --      1.1004                 1.0495                 1.0914
 Frc consts  --      6.3851                 7.4658                 8.1543
 IR Inten    --     50.9759                 3.1637                 0.5344

 - Thermochemistry -
 -------------------
 Temperature   298.150 Kelvin.  Pressure   1.00000 Atm.
 Atom     1 has atomic number  6 and mass  12.00000

 Molecular mass:   155.13101 amu.
 Principal axes and moments of inertia in atomic units:
                           1         2         3
     Eigenvalues --  1076.910891852.277662420.19198
           X            0.99996  -0.00753   0.00391
           Y            0.00760   0.99983  -0.01662
           Z           -0.00378   0.01665   0.99985
 This molecule is an asymmetric top.
 Rotational symmetry number  1.
 Warning -- assumption of classical behavior for rotation
           may cause significant error
 Rotational temperatures (Kelvin)      0.08043     0.04676     0.03579
 Rotational constants (GHZ):           1.67585     0.97434     0.74570
 Zero-point vibrational energy     676204.1 (Joules/Mol)
                                  161.61667 (Kcal/Mol)
 Warning -- explicit consideration of  15 degrees of freedom as
           vibrations may cause significant error
 Vibrational temperatures:    112.74   167.16   212.50   253.00   278.44
          (Kelvin)            354.19   398.31   436.53   529.07   557.63
                              588.21   611.62   736.60   788.92   884.46
                              895.44  1091.65  1106.68  1135.36  1169.60
                             1259.95  1282.71  1302.03  1315.53  1369.15
                             1406.09  1408.53  1454.72  1477.27  1539.53
                             1569.58  1600.40  1613.74  1644.54  1661.03
                             1689.51  1724.28  1741.17  1788.25  1820.86
                             1847.60  1867.77  1889.74  1921.66  1928.44
                             1937.92  1975.52  1993.44  2014.42  2020.61
                             2038.45  2057.08  2071.42  2088.29  2159.34
                             2184.44  2186.10  2199.18  2201.62  2225.11
                             2445.89  4250.29  4337.39  4373.26  4383.55
                             4393.15  4406.93  4411.16  4414.94  4424.40
                             4451.59  4468.91  4473.20  4494.26  4505.04
                             4515.25  4999.46  5123.52

 Zero-point correction=                           0.257553 (Hartree/Particle)
 Thermal correction to Energy=                    0.268114
 Thermal correction to Enthalpy=                  0.269058
 Thermal correction to Gibbs Free Energy=         0.222101
 Sum of electronic and zero-point Energies=           -482.947338
 Sum of electronic and thermal Energies=              -482.936777
 Sum of electronic and thermal Enthalpies=            -482.935832
 Sum of electronic and thermal Free Energies=         -482.982789

                     E (Thermal)             CV                S
                      KCal/Mol        Cal/Mol-Kelvin    Cal/Mol-Kelvin
 Total                  168.244             42.267             98.828
 Electronic               0.000              0.000              0.000
 Translational            0.889              2.981             41.027
 Rotational               0.889              2.981             29.958
 Vibrational            166.466             36.305             27.844
 Vibration     1          0.600              1.964              3.932
 Vibration     2          0.608              1.936              3.163
 Vibration     3          0.617              1.905              2.702
 Vibration     4          0.628              1.872              2.372
 Vibration     5          0.635              1.849              2.194
 Vibration     6          0.661              1.769              1.758
 Vibration     7          0.678              1.716              1.553
 Vibration     8          0.695              1.667              1.398
 Vibration     9          0.740              1.539              1.089
 Vibration    10          0.756              1.497              1.009
 Vibration    11          0.773              1.451              0.931
 Vibration    12          0.787              1.416              0.875
 Vibration    13          0.867              1.223              0.629
 Vibration    14          0.904              1.143              0.548
 Vibration    15          0.974              1.001              0.425

 Optimization completed.
    -- Stationary point found.
 Normal termination of Gaussian 16 at Tue Dec  8 20:14:44 2020.

 ----------------------------------------------------------------------
 # B3LYP/6-311++G(d,p) empiricaldispersion=gd3bj scf=xqc pop=npa geom=c
 heck
 ----------------------------------------------------------------------

 --------------------------------------
 CID_82416286_JID_1493_Energie_neutraal
 --------------------------------------
 Structure from the checkpoint file:  "JID_1493.chk"
 Charge =  0 Multiplicity = 1

 SCF Done:  E(RB3LYP) =  -483.345995249     A.U. after   14 cycles
 Normal termination of Gaussian 16 at Tue Dec  8 20:17:13 2020.

 ----------------------------------------------------------------------
 # B3LYP/6-311++G(d,p) empiricaldispersion=gd3bj scf=xqc pop=npa geom=c
 heck
 ----------------------------------------------------------------------

 ------------------------------------
 CID_82416286_JID_1493_Energie_kation
 ------------------------------------
 Structure from the checkpoint file:  "JID_1493.chk"
 Charge =  1 Multiplicity = 2

 SCF Done:  E(UB3LYP) =  -483.031538952     A.U. after   21 cycles
 Normal termination of Gaussian 16 at Tue Dec  8 20:21:46 2020.
 Gaussian 16:  ES64L-G16RevA.03 25-Dec-2016

 ----------------------------------------------------------------------
 # B3LYP/6-311++G(d,p) empiricaldispersion=gd3bj scf=xqc pop=npa geom=c
 heck
 ----------------------------------------------------------------------

 -----------------------------------
 CID_82416286_JID_1493_Energie_anion
 -----------------------------------
 Structure from the checkpoint file:  "JID_1493.chk"
 Charge = -1 Multiplicity = 2

                         Standard orientation:
 ---------------------------------------------------------------------
 Center     Atomic      Atomic             Coordinates (Angstroms)
 Number     Number       Type             X           Y           Z
 ---------------------------------------------------------------------
      1          6           0        2.453044   -0.911610    1.004668
      2          6           0        1.807794   -0.833196   -0.383569
      3          6           0        1.702314    0.590379   -0.976358
      4          6           0        0.522642    1.446154   -0.462716
      5          6           0       -0.731648    0.559005   -0.549343
      6          6           0       -2.064475    1.026684    0.042031
      7          6           0       -2.875069   -0.293085    0.251195
      8          6           0       -1.861855   -1.461106    0.072070
      9          6           0       -0.503569   -0.773365    0.166176
     10          8           0        0.545751   -1.525559   -0.411798
     11          7           0        0.817963    2.036575    0.851318
     12          1           0        3.454180   -0.468073    0.983736
     13          1           0        2.540510   -1.959503    1.308468
     14          1           0        1.880952   -0.388345    1.775854
     15          1           0        2.435766   -1.421369   -1.061930
     16          1           0        2.640427    1.128259   -0.803823
     17          1           0        1.578038    0.481967   -2.060809
     18          1           0        0.414511    2.297449   -1.146876
     19          1           0       -0.884026    0.309622   -1.610322
     20          1           0       -1.892923    1.520892    1.006631
     21          1           0       -2.585479    1.745322   -0.598493
     22          1           0       -3.332929   -0.313961    1.245227
     23          1           0       -3.692724   -0.374559   -0.471224
     24          1           0       -1.991250   -2.260538    0.807460
     25          1           0       -1.948134   -1.910188   -0.923903
     26          1           0       -0.283760   -0.572296    1.230272
     27          1           0        0.090708    2.708603    1.090445
     28          1           0        0.789310    1.326017    1.579525
 ---------------------------------------------------------------------

 SCF Done:  E(UB3LYP) =  -483.329499193     A.U. after   26 cycles

 The electronic state is 2-A.
 Alpha  occ. eigenvalues --  -19.01371 -14.18208 -10.11636 -10.10493 -10.09058
 Alpha  occ. eigenvalues --  -10.06134 -10.05911 -10.05822 -10.05603 -10.05566
 Alpha  occ. eigenvalues --  -10.05533  -0.92836  -0.78129  -0.72729  -0.67361
 Alpha  occ. eigenvalues --   -0.63114  -0.59861  -0.58584  -0.51298  -0.49426
 Alpha  occ. eigenvalues --   -0.46510  -0.43818  -0.39692  -0.37710  -0.37540
 Alpha  occ. eigenvalues --   -0.35065  -0.34407  -0.32952  -0.31471  -0.30625
 Alpha  occ. eigenvalues --   -0.29734  -0.28397  -0.27418  -0.26490  -0.24406
 Alpha  occ. eigenvalues --   -0.23586  -0.23008  -0.22541  -0.22126  -0.21061
 Alpha  occ. eigenvalues --   -0.18536  -0.14784  -0.13313   0.04807
 Alpha virt. eigenvalues --    0.07108   0.07333   0.08106   0.09498   0.09666
 Alpha virt. eigenvalues --    0.10046   0.10506   0.10753   0.12110   0.12308
 Alpha virt. eigenvalues --    0.12893   0.13225   0.13762   0.14501   0.15558

  Beta  occ. eigenvalues --  -19.01368 -14.18169 -10.11627 -10.10476 -10.09043
  Beta  occ. eigenvalues --  -10.06114 -10.05902 -10.05810 -10.05594 -10.05533
  Beta  occ. eigenvalues --  -10.05502  -0.92824  -0.78062  -0.72696  -0.67320
  Beta  occ. eigenvalues --   -0.63065  -0.59816  -0.58533  -0.51240  -0.49382
  Beta  occ. eigenvalues --   -0.46445  -0.43762  -0.39640  -0.37668  -0.37490
  Beta  occ. eigenvalues --   -0.35027  -0.34366  -0.32920  -0.31429  -0.30588
  Beta  occ. eigenvalues --   -0.29697  -0.28359  -0.27370  -0.26453  -0.24370
  Beta  occ. eigenvalues --   -0.23542  -0.22981  -0.22502  -0.22089  -0.21023
  Beta  occ. eigenvalues --   -0.18507  -0.14763  -0.13278
  Beta virt. eigenvalues --    0.07105   0.07954   0.08149   0.08753   0.10027
  Beta virt. eigenvalues --    0.10193   0.10442   0.10988   0.11292   0.12455
  Beta virt. eigenvalues --    0.12758   0.13397   0.13586   0.14082   0.14938

 Mulliken charges and spin densities:
               1          2
     1  C    1.039476  -1.523950
     2  C   -1.267895   1.568329
     3  C    0.259353  -1.027314
     4  C    2.019609  -1.917193
     5  C   -2.052865   2.420699
     6  C    1.125692  -1.702221
     7  C    0.478866  -0.807350
     8  C    0.151025  -0.853451
     9  C    0.172121  -0.606374
    10  O   -0.065308   0.015550
    11  N   -0.319116  -0.014140
    12  H   -0.217905   0.358799
    13  H    0.040732   0.108362
    14  H   -0.454796   0.579846
    15  H   -0.484809   0.695451
    16  H   -0.072360   0.259720
    17  H   -0.025108   0.163917
    18  H   -0.142188   0.361193
    19  H   -0.145988   0.351310
    20  H   -0.096915   0.254160
    21  H   -0.456840   0.616035
    22  H   -0.352102   0.492996
    23  H    0.020306   0.110947
    24  H    0.007434   0.145848
    25  H    0.069542   0.087084
    26  H   -0.107017   0.279041
    27  H   -0.245534   0.491254
    28  H    0.122593   0.091452
 Sum of Mulliken charges =  -1.00000   1.00000

 Dipole moment (field-independent basis, Debye):
    X=             -0.0914    Y=             -2.7868    Z=             -1.5855  Tot=              3.2076
 Quadrupole moment (field-independent basis, Debye-Ang):
   XX=           -122.2261   YY=           -113.4084   ZZ=           -106.7433
   XY=              4.5759   XZ=              1.1017   YZ=             -2.1206

 Summary of Natural Population Analysis:

                                       Natural Population
                Natural  -----------------------------------------------
    Atom  No    Charge         Core      Valence    Rydberg      Total
 -----------------------------------------------------------------------
      C    1   -0.29609      0.99964     2.29105    0.00541     3.29609
      C    2    0.06502      0.99955     1.92055    0.01489     2.93498
      C    3   -0.20291      0.99959     2.19380    0.00952     3.20291
      C    4   -0.00994      0.99956     1.99573    0.01466     3.00994
      C    5   -0.12833      0.99954     2.11634    0.01245     3.12833
      C    6   -0.19151      0.99962     2.18275    0.00914     3.19151
      C    7   -0.18983      0.99965     2.18254    0.00764     3.18983
      C    8   -0.19163      0.99961     2.18426    0.00776     3.19163
      C    9    0.06477      0.99946     1.92027    0.01550     2.93523
      O   10   -0.30608      0.99988     3.29680    0.00940     4.30608
      N   11   -0.42268      0.99977     2.91227    0.01063     3.92268
      H   12    0.10183      0.00000     0.39703    0.00115     0.39817
      H   13    0.10096      0.00000     0.39787    0.00116     0.39904
      H   14    0.09541      0.00000     0.40324    0.00134     0.40459
      H   15    0.08961      0.00000     0.40904    0.00135     0.41039
      H   16    0.10699      0.00000     0.39176    0.00125     0.39301
      H   17    0.10153      0.00000     0.39716    0.00131     0.39847
      H   18    0.09377      0.00000     0.40458    0.00166     0.40623
      H   19    0.09987      0.00000     0.39842    0.00171     0.40013
      H   20    0.09833      0.00000     0.39891    0.00276     0.40167
      H   21    0.10175      0.00000     0.39666    0.00160     0.39825
      H   22    0.09834      0.00000     0.40029    0.00136     0.40166
      H   23    0.09666      0.00000     0.40236    0.00098     0.40334
      H   24    0.09891      0.00000     0.40000    0.00109     0.40109
      H   25    0.09800      0.00000     0.40041    0.00159     0.40200
      H   26    0.07801      0.00000     0.41937    0.00262     0.42199
      H   27    0.17785      0.00000     0.31960    0.00255     0.32215
      H   28    0.17139      0.00000     0.32589    0.00272     0.32861
 =======================================================================
   * Total *   -0.00000     10.99586    31.85895    0.14519    43.00000

 Normal termination of Gaussian 16 at Tue Dec  8 20:30:45 2020.
