 Gaussian 16, Revision A.03,

 -----------------------------------------------------------
 # opt freq B3LYP/6-31G(d) empiricaldispersion=gd3bj scf=xqc
 -----------------------------------------------------------

 -------------------------------
 CID_115613193_JID_5802_neutraal
 -------------------------------
 Symbolic Z-matrix:
 Charge =  0 Multiplicity = 1

 SCF Done:  E(RB3LYP) =  -631.816814169     A.U. after   15 cycles
 SCF Done:  E(RB3LYP) =  -631.821718057     A.U. after   13 cycles
 SCF Done:  E(RB3LYP) =  -631.823159326     A.U. after   12 cycles
 SCF Done:  E(RB3LYP) =  -631.824280782     A.U. after   12 cycles
 SCF Done:  E(RB3LYP) =  -631.825060289     A.U. after   12 cycles
 SCF Done:  E(RB3LYP) =  -631.825533745     A.U. after   13 cycles
 SCF Done:  E(RB3LYP) =  -631.825736529     A.U. after   12 cycles
 SCF Done:  E(RB3LYP) =  -631.825879605     A.U. after   12 cycles
 SCF Done:  E(RB3LYP) =  -631.825939133     A.U. after   12 cycles
 SCF Done:  E(RB3LYP) =  -631.825956691     A.U. after   11 cycles
 SCF Done:  E(RB3LYP) =  -631.825961836     A.U. after    8 cycles
 SCF Done:  E(RB3LYP) =  -631.825961985     A.U. after    8 cycles
 SCF Done:  E(RB3LYP) =  -631.825962160     A.U. after    8 cycles
 SCF Done:  E(RB3LYP) =  -631.825962245     A.U. after    8 cycles
 SCF Done:  E(RB3LYP) =  -631.825962266     A.U. after    7 cycles
 Optimization completed.
    -- Stationary point found.
 Normal termination of Gaussian 16 at Thu Dec 10 17:12:22 2020.

 --------------------------------------------------------------------
 #N Geom=AllCheck Guess=TCheck SCRF=Check GenChk RB3LYP/6-31G(d) Freq
 --------------------------------------------------------------------

 Structure from the checkpoint file:  "JID_5802.chk"
 -------------------------------
 CID_115613193_JID_5802_neutraal
 -------------------------------
 Charge =  0 Multiplicity = 1

 SCF Done:  E(RB3LYP) =  -631.825962266     A.U. after    1 cycles

  Exact polarizability: 190.842  12.821 154.733   4.187  -8.037  87.103
 Approx polarizability: 258.920  26.432 261.571   6.862 -23.049 133.188

                      1                      2                      3
                      A                      A                      A
 Frequencies --     16.4570                28.4542                57.2969
 Red. masses --      4.7513                 3.8732                 2.3722
 Frc consts  --      0.0008                 0.0018                 0.0046
 IR Inten    --      2.5979                 0.4580                 0.2341

                      4                      5                      6
                      A                      A                      A
 Frequencies --     61.2437                94.6799               127.6287
 Red. masses --      3.4627                 3.9048                 2.0984
 Frc consts  --      0.0077                 0.0206                 0.0201
 IR Inten    --      0.4969                 3.0264                 2.1168

                      7                      8                      9
                      A                      A                      A
 Frequencies --    153.4498               163.9933               212.8476
 Red. masses --      4.3987                 4.4979                 3.0717
 Frc consts  --      0.0610                 0.0713                 0.0820
 IR Inten    --      1.6458                 7.4354                 2.6616

                     10                     11                     12
                      A                      A                      A
 Frequencies --    222.6455               227.6367               242.1696
 Red. masses --      1.7707                 3.6903                 1.2715
 Frc consts  --      0.0517                 0.1127                 0.0439
 IR Inten    --      0.3094                 0.1305                 0.5884

                     13                     14                     15
                      A                      A                      A
 Frequencies --    265.4957               309.7859               346.2703
 Red. masses --      2.6609                 1.8295                 2.3465
 Frc consts  --      0.1105                 0.1034                 0.1658
 IR Inten    --      0.1794                 0.1789                 1.6525

                     16                     17                     18
                      A                      A                      A
 Frequencies --    402.8743               423.4112               474.6344
 Red. masses --      4.7248                 4.0118                 2.9386
 Frc consts  --      0.4518                 0.4238                 0.3900
 IR Inten    --      2.2427                 4.4118                12.6708

                     19                     20                     21
                      A                      A                      A
 Frequencies --    492.6952               531.5218               542.3186
 Red. masses --      1.7928                 3.1792                 2.8586
 Frc consts  --      0.2564                 0.5292                 0.4953
 IR Inten    --     55.5902                 0.1297                23.5586

                     22                     23                     24
                      A                      A                      A
 Frequencies --    563.8565               590.9655               607.8811
 Red. masses --      3.2055                 5.1482                 3.5939
 Frc consts  --      0.6005                 1.0593                 0.7824
 IR Inten    --     18.1305                 3.6768                 4.6913

                     25                     26                     27
                      A                      A                      A
 Frequencies --    641.6755               739.5679               766.1105
 Red. masses --      5.0258                 5.1528                 1.6888
 Frc consts  --      1.2192                 1.6606                 0.5840
 IR Inten    --     11.8585                 0.1470                 1.5960

                     28                     29                     30
                      A                      A                      A
 Frequencies --    769.7648               791.0849               799.8718
 Red. masses --      3.2634                 1.3160                 1.6155
 Frc consts  --      1.1393                 0.4852                 0.6090
 IR Inten    --     41.5850                 3.2694                 7.2506

                     31                     32                     33
                      A                      A                      A
 Frequencies --    835.1706               895.7729               922.8203
 Red. masses --      1.4697                 2.7358                 3.1771
 Frc consts  --      0.6040                 1.2934                 1.5941
 IR Inten    --      1.5455                 2.1289                 5.4318

                     34                     35                     36
                      A                      A                      A
 Frequencies --    974.6161               980.4160               981.5801
 Red. masses --      1.3154                 1.3851                 1.3392
 Frc consts  --      0.7362                 0.7844                 0.7602
 IR Inten    --      1.0333                 0.1505                 2.5980

                     37                     38                     39
                      A                      A                      A
 Frequencies --   1007.8561              1033.3644              1042.4749
 Red. masses --      1.8595                 1.7802                 1.5301
 Frc consts  --      1.1129                 1.1200                 0.9797
 IR Inten    --      1.0293                 1.6043                 2.1333

                     40                     41                     42
                      A                      A                      A
 Frequencies --   1074.7320              1083.0998              1115.1001
 Red. masses --      2.1595                 2.7859                 2.4577
 Frc consts  --      1.4696                 1.9255                 1.8006
 IR Inten    --      0.8949                 3.6116                 5.6551

                     43                     44                     45
                      A                      A                      A
 Frequencies --   1140.1647              1169.1018              1181.4567
 Red. masses --      1.7822                 2.1775                 2.2151
 Frc consts  --      1.3650                 1.7536                 1.8217
 IR Inten    --      8.1964                 1.1708                12.1612

                     46                     47                     48
                      A                      A                      A
 Frequencies --   1198.2761              1214.2721              1272.0505
 Red. masses --      1.9178                 2.1534                 1.7287
 Frc consts  --      1.6224                 1.8707                 1.6481
 IR Inten    --      0.4267                 5.8114                 2.5261

                     49                     50                     51
                      A                      A                      A
 Frequencies --   1284.6506              1292.6658              1306.4580
 Red. masses --      1.9449                 1.8203                 1.3506
 Frc consts  --      1.8912                 1.7922                 1.3582
 IR Inten    --     21.3597                36.1441                11.7840

                     52                     53                     54
                      A                      A                      A
 Frequencies --   1318.2383              1353.7059              1373.8426
 Red. masses --      1.1631                 1.2403                 1.3036
 Frc consts  --      1.1908                 1.3392                 1.4496
 IR Inten    --      0.5664                16.8059                 2.0852

                     55                     56                     57
                      A                      A                      A
 Frequencies --   1387.0305              1398.5689              1422.0698
 Red. masses --      2.1174                 1.5680                 1.4372
 Frc consts  --      2.4000                 1.8070                 1.7125
 IR Inten    --     14.4420                15.2683                15.4463

                     58                     59                     60
                      A                      A                      A
 Frequencies --   1425.0883              1442.9463              1450.8402
 Red. masses --      1.4686                 1.2442                 1.2702
 Frc consts  --      1.7573                 1.5262                 1.5753
 IR Inten    --      4.4533                 1.1681                 8.7522

                     61                     62                     63
                      A                      A                      A
 Frequencies --   1467.4257              1507.8812              1518.6628
 Red. masses --      1.5725                 2.6154                 1.0601
 Frc consts  --      1.9950                 3.5036                 1.4405
 IR Inten    --      1.6477               149.8234                 1.9568

                     64                     65                     66
                      A                      A                      A
 Frequencies --   1522.5491              1531.8038              1535.7852
 Red. masses --      1.0600                 1.0587                 1.0418
 Frc consts  --      1.4478                 1.4636                 1.4478
 IR Inten    --      3.3916                 5.6349                 0.8747

                     67                     68                     69
                      A                      A                      A
 Frequencies --   1540.2298              1545.1278              1549.1532
 Red. masses --      1.0675                 1.0801                 1.0765
 Frc consts  --      1.4920                 1.5192                 1.5221
 IR Inten    --     16.9445                21.9534                 6.6936

                     70                     71                     72
                      A                      A                      A
 Frequencies --   1572.8305              1614.8572              1654.9827
 Red. masses --      3.2645                 4.5533                 5.5363
 Frc consts  --      4.7581                 6.9959                 8.9341
 IR Inten    --    383.6699               100.9553               237.0246

                     73                     74                     75
                      A                      A                      A
 Frequencies --   2330.9237              2985.3205              3019.3786
 Red. masses --     12.6695                 1.0822                 1.0722
 Frc consts  --     40.5570                 5.6826                 5.7591
 IR Inten    --     53.3626                28.3524                28.7366

                     76                     77                     78
                      A                      A                      A
 Frequencies --   3043.2428              3046.4037              3047.8294
 Red. masses --      1.0580                 1.0597                 1.0444
 Frc consts  --      5.7733                 5.7944                 5.7159
 IR Inten    --     33.2122                 8.3214                45.8800

                     79                     80                     81
                      A                      A                      A
 Frequencies --   3055.3198              3075.2584              3081.3124
 Red. masses --      1.0381                 1.1012                 1.0978
 Frc consts  --      5.7098                 6.1360                 6.1413
 IR Inten    --     18.1051                16.9436                29.3913

                     82                     83                     84
                      A                      A                      A
 Frequencies --   3111.2705              3119.4336              3120.5853
 Red. masses --      1.1009                 1.1014                 1.1019
 Frc consts  --      6.2789                 6.3146                 6.3221
 IR Inten    --     34.3862                36.1339                54.0818

                     85                     86                     87
                      A                      A                      A
 Frequencies --   3123.6634              3132.9355              3171.5290
 Red. masses --      1.1015                 1.0917                 1.0899
 Frc consts  --      6.3324                 6.3135                 6.4594
 IR Inten    --     46.5725                10.6620                30.1450

                     88                     89                     90
                      A                      A                      A
 Frequencies --   3211.9468              3233.0765              3590.5035
 Red. masses --      1.0898                 1.0965                 1.0754
 Frc consts  --      6.6242                 6.7528                 8.1684
 IR Inten    --      3.2680                10.0568                38.8746

 - Thermochemistry -
 -------------------
 Temperature   298.150 Kelvin.  Pressure   1.00000 Atm.
 Atom     1 has atomic number  6 and mass  12.00000

 Molecular mass:   203.14225 amu.
 Principal axes and moments of inertia in atomic units:
                           1         2         3
     Eigenvalues --  1696.675605662.294886935.67135
           X            1.00000  -0.00050  -0.00174
           Y            0.00053   0.99989   0.01506
           Z            0.00173  -0.01506   0.99989
 This molecule is an asymmetric top.
 Rotational symmetry number  1.
 Warning -- assumption of classical behavior for rotation
           may cause significant error
 Rotational temperatures (Kelvin)      0.05105     0.01530     0.01249
 Rotational constants (GHZ):           1.06369     0.31873     0.26021
 Zero-point vibrational energy     725582.6 (Joules/Mol)
                                  173.41841 (Kcal/Mol)
 Warning -- explicit consideration of  24 degrees of freedom as
           vibrations may cause significant error
 Vibrational temperatures:     23.68    40.94    82.44    88.12   136.22
          (Kelvin)            183.63   220.78   235.95   306.24   320.34
                              327.52   348.43   381.99   445.71   498.21
                              579.65   609.19   682.89   708.88   764.74
                              780.28   811.26   850.27   874.61   923.23
                             1064.07  1102.26  1107.52  1138.19  1150.84
                             1201.62  1288.82  1327.73  1402.26  1410.60
                             1412.27  1450.08  1486.78  1499.89  1546.30
                             1558.34  1604.38  1640.44  1682.08  1699.85
                             1724.05  1747.07  1830.20  1848.33  1859.86
                             1879.70  1896.65  1947.68  1976.65  1995.63
                             2012.23  2046.04  2050.38  2076.08  2087.44
                             2111.30  2169.50  2185.02  2190.61  2203.92
                             2209.65  2216.05  2223.09  2228.89  2262.95
                             2323.42  2381.15  3353.68  4295.21  4344.21
                             4378.55  4383.10  4385.15  4395.92  4424.61
                             4433.32  4476.42  4488.17  4489.83  4494.25
                             4507.60  4563.12  4621.27  4651.68  5165.93

 Zero-point correction=                           0.276360 (Hartree/Particle)
 Thermal correction to Energy=                    0.291881
 Thermal correction to Enthalpy=                  0.292826
 Thermal correction to Gibbs Free Energy=         0.231551
 Sum of electronic and zero-point Energies=           -631.549602
 Sum of electronic and thermal Energies=              -631.534081
 Sum of electronic and thermal Enthalpies=            -631.533137
 Sum of electronic and thermal Free Energies=         -631.594412

                     E (Thermal)             CV                S
                      KCal/Mol        Cal/Mol-Kelvin    Cal/Mol-Kelvin
 Total                  183.158             57.252            128.964
 Electronic               0.000              0.000              0.000
 Translational            0.889              2.981             41.831
 Rotational               0.889              2.981             32.566
 Vibrational            181.381             51.290             54.568
 Vibration     1          0.593              1.986              7.021
 Vibration     2          0.593              1.984              5.934
 Vibration     3          0.596              1.975              4.548
 Vibration     4          0.597              1.973              4.417
 Vibration     5          0.603              1.953              3.561
 Vibration     6          0.611              1.926              2.981
 Vibration     7          0.619              1.899              2.629
 Vibration     8          0.623              1.887              2.503
 Vibration     9          0.644              1.821              2.019
 Vibration    10          0.648              1.807              1.937
 Vibration    11          0.651              1.799              1.898
 Vibration    12          0.658              1.776              1.787
 Vibration    13          0.671              1.736              1.625
 Vibration    14          0.699              1.655              1.363
 Vibration    15          0.724              1.583              1.183
 Vibration    16          0.768              1.464              0.952
 Vibration    17          0.786              1.419              0.880
 Vibration    18          0.831              1.306              0.725
 Vibration    19          0.848              1.266              0.677
 Vibration    20          0.886              1.180              0.584
 Vibration    21          0.897              1.157              0.560
 Vibration    22          0.920              1.109              0.516
 Vibration    23          0.948              1.051              0.465
 Vibration    24          0.967              1.015              0.436

 Optimization completed.
    -- Stationary point found.
 Normal termination of Gaussian 16 at Thu Dec 10 17:22:39 2020.

 ----------------------------------------------------------------------
 # B3LYP/6-311++G(d,p) empiricaldispersion=gd3bj scf=xqc pop=npa geom=c
 heck
 ----------------------------------------------------------------------

 ---------------------------------------
 CID_115613193_JID_5802_Energie_neutraal
 ---------------------------------------
 Structure from the checkpoint file:  "JID_5802.chk"
 Charge =  0 Multiplicity = 1

 SCF Done:  E(RB3LYP) =  -631.997227136     A.U. after   16 cycles
 Normal termination of Gaussian 16 at Thu Dec 10 17:27:57 2020.

 ----------------------------------------------------------------------
 # B3LYP/6-311++G(d,p) empiricaldispersion=gd3bj scf=xqc pop=npa geom=c
 heck
 ----------------------------------------------------------------------

 -------------------------------------
 CID_115613193_JID_5802_Energie_kation
 -------------------------------------
 Structure from the checkpoint file:  "JID_5802.chk"
 Charge =  1 Multiplicity = 2

 SCF Done:  E(UB3LYP) =  -631.703328874     A.U. after   23 cycles
 Normal termination of Gaussian 16 at Thu Dec 10 17:40:18 2020.
 Gaussian 16:  ES64L-G16RevA.03 25-Dec-2016

 ----------------------------------------------------------------------
 # B3LYP/6-311++G(d,p) empiricaldispersion=gd3bj scf=xqc pop=npa geom=c
 heck
 ----------------------------------------------------------------------

 ------------------------------------
 CID_115613193_JID_5802_Energie_anion
 ------------------------------------
 Structure from the checkpoint file:  "JID_5802.chk"
 Charge = -1 Multiplicity = 2

                         Standard orientation:
 ---------------------------------------------------------------------
 Center     Atomic      Atomic             Coordinates (Angstroms)
 Number     Number       Type             X           Y           Z
 ---------------------------------------------------------------------
      1          6           0        3.877355   -1.919831   -0.789603
      2          6           0        2.566031   -1.131002   -0.811785
      3          6           0        2.232352   -0.422579    0.514528
      4          6           0        3.299595    0.597153    0.961177
      5          6           0        3.516964    1.775340    0.004595
      6          6           0        0.856433    0.254211    0.443791
      7          7           0       -0.198951   -0.741428    0.320482
      8          6           0       -1.535541   -0.542091    0.172454
      9          6           0       -2.155880    0.707575   -0.133351
     10          6           0       -3.553544    0.732988   -0.272608
     11          6           0       -4.295502   -0.426738   -0.115061
     12          6           0       -3.592969   -1.598077    0.184992
     13          7           0       -2.274585   -1.664164    0.327428
     14          6           0       -1.448808    1.933263   -0.316114
     15          7           0       -0.921696    2.959321   -0.478870
     16          1           0        4.746230   -1.264254   -0.668393
     17          1           0        4.013206   -2.476648   -1.722954
     18          1           0        3.890088   -2.643621    0.034857
     19          1           0        2.594312   -0.387857   -1.619241
     20          1           0        1.741458   -1.809101   -1.063840
     21          1           0        2.181691   -1.192095    1.302915
     22          1           0        3.012524    0.984257    1.947829
     23          1           0        4.249419    0.070813    1.110286
     24          1           0        2.605341    2.367958   -0.129342
     25          1           0        4.289173    2.446322    0.395685
     26          1           0        3.845204    1.439286   -0.985107
     27          1           0        0.698764    0.875702    1.337413
     28          1           0        0.824335    0.921395   -0.419520
     29          1           0        0.009293   -1.680007    0.638362
     30          1           0       -4.032852    1.678643   -0.505191
     31          1           0       -5.374475   -0.430379   -0.216852
     32          1           0       -4.126000   -2.537795    0.321722
 ---------------------------------------------------------------------

 SCF Done:  E(UB3LYP) =  -632.000469446     A.U. after   33 cycles
 SCF Done:  E(UB3LYP) =  -632.000469446     a.u. after    1 cycles

 The electronic state is 2-A.
 Alpha  occ. eigenvalues --  -14.20908 -14.16094 -14.15734 -10.12235 -10.09296
 Alpha  occ. eigenvalues --  -10.08131 -10.07463 -10.07115 -10.06916 -10.06662
 Alpha  occ. eigenvalues --  -10.06613 -10.05641 -10.05425 -10.04018 -10.03602
 Alpha  occ. eigenvalues --   -0.84703  -0.77984  -0.76419  -0.72111  -0.67381
 Alpha  occ. eigenvalues --   -0.65751  -0.63851  -0.60335  -0.55508  -0.53097
 Alpha  occ. eigenvalues --   -0.51118  -0.49605  -0.45611  -0.42201  -0.40582
 Alpha  occ. eigenvalues --   -0.38387  -0.37859  -0.35135  -0.34731  -0.33428
 Alpha  occ. eigenvalues --   -0.32255  -0.31963  -0.31253  -0.29960  -0.28166
 Alpha  occ. eigenvalues --   -0.27847  -0.26963  -0.26465  -0.25629  -0.25323
 Alpha  occ. eigenvalues --   -0.23282  -0.22862  -0.22623  -0.22546  -0.22456
 Alpha  occ. eigenvalues --   -0.19196  -0.18474  -0.14796  -0.13027  -0.08724
 Alpha  occ. eigenvalues --    0.04484
 Alpha virt. eigenvalues --    0.05737   0.07566   0.08053   0.08684   0.09204
 Alpha virt. eigenvalues --    0.10272   0.10623   0.10869   0.11508   0.11726
 Alpha virt. eigenvalues --    0.11997   0.12442   0.13216   0.13895   0.14780

  Beta  occ. eigenvalues --  -14.20906 -14.15894 -14.15535 -10.12254 -10.09296
  Beta  occ. eigenvalues --  -10.08129 -10.07452 -10.07111 -10.06892 -10.06655
  Beta  occ. eigenvalues --  -10.06595 -10.05482 -10.05047 -10.03744 -10.03623
  Beta  occ. eigenvalues --   -0.84550  -0.77682  -0.76109  -0.72072  -0.66814
  Beta  occ. eigenvalues --   -0.65731  -0.63654  -0.60167  -0.55416  -0.53053
  Beta  occ. eigenvalues --   -0.50408  -0.49494  -0.45534  -0.42058  -0.40370
  Beta  occ. eigenvalues --   -0.38272  -0.37788  -0.35095  -0.34574  -0.33311
  Beta  occ. eigenvalues --   -0.32187  -0.31942  -0.31184  -0.29810  -0.27821
  Beta  occ. eigenvalues --   -0.27593  -0.26822  -0.26359  -0.25446  -0.25091
  Beta  occ. eigenvalues --   -0.23233  -0.22665  -0.22474  -0.22368  -0.21581
  Beta  occ. eigenvalues --   -0.19053  -0.17765  -0.13004  -0.12776  -0.08070
  Beta virt. eigenvalues --    0.06220   0.07730   0.08117   0.08656   0.09369
  Beta virt. eigenvalues --    0.10007   0.10282   0.10648   0.10915   0.11540
  Beta virt. eigenvalues --    0.11924   0.12078   0.12492   0.13253   0.13870

 Mulliken charges and spin densities:
               1          2
     1  C    0.501439  -1.150659
     2  C   -1.012092   0.798740
     3  C    0.642097  -0.007502
     4  C   -0.135477  -0.278770
     5  C   -0.284662  -0.334967
     6  C   -0.794278  -0.091051
     7  N    0.004131   0.006755
     8  C   -1.888252   0.023958
     9  C    3.261596   0.094327
    10  C   -0.397294   0.308929
    11  C   -0.098855  -0.076724
    12  C   -0.168852   0.301338
    13  N   -0.108043   0.076197
    14  C   -1.606136  -0.050015
    15  N   -0.276096   0.109704
    16  H   -0.088064   0.227326
    17  H   -0.060610   0.192405
    18  H   -0.118303   0.255367
    19  H    0.090381   0.037689
    20  H    0.175375  -0.013265
    21  H    0.121321   0.042968
    22  H    0.085386   0.042634
    23  H   -0.156988   0.326492
    24  H    0.173537   0.002145
    25  H    0.014676   0.117063
    26  H    0.108604   0.025031
    27  H    0.166339   0.035182
    28  H    0.220982  -0.009592
    29  H    0.246414   0.024894
    30  H    0.127399  -0.023361
    31  H    0.116344   0.007190
    32  H    0.137983  -0.020427
 Sum of Mulliken charges =  -1.00000   1.00000

 Dipole moment (field-independent basis, Debye):
    X=              2.0521    Y=             -1.5032    Z=              0.6395  Tot=              2.6229
 Quadrupole moment (field-independent basis, Debye-Ang):
   XX=           -152.5960   YY=           -132.8387   ZZ=           -106.5413
   XY=              3.9998   XZ=              0.1707   YZ=              1.8476

 Summary of Natural Population Analysis:

                                       Natural Population
                Natural  -----------------------------------------------
    Atom  No    Charge         Core      Valence    Rydberg      Total
 -----------------------------------------------------------------------
      C    1   -0.28688      0.99967     2.28237    0.00484     3.28688
      C    2   -0.19428      0.99962     2.18574    0.00892     3.19428
      C    3   -0.10884      0.99959     2.09907    0.01018     3.10884
      C    4   -0.18978      0.99962     2.18133    0.00883     3.18978
      C    5   -0.29302      0.99966     2.28725    0.00611     3.29302
      C    6   -0.08791      0.99959     2.07832    0.00999     3.08791
      N    7   -0.31092      0.99965     2.80051    0.01075     3.81092
      C    8    0.22430      0.99953     1.76221    0.01396     2.77570
      C    9   -0.12407      0.99939     2.11624    0.00845     3.12407
      C   10    0.01654      0.99956     1.97582    0.00809     2.98346
      C   11   -0.18341      0.99956     2.17461    0.00925     3.18341
      C   12    0.10698      0.99961     1.87871    0.01470     2.89302
      N   13   -0.24741      0.99968     2.73773    0.01001     3.74741
      C   14    0.15141      0.99965     1.83034    0.01860     2.84859
      N   15   -0.18770      0.99979     2.67729    0.01063     3.68770
      H   16    0.09622      0.00000     0.40277    0.00101     0.40378
      H   17    0.09819      0.00000     0.40110    0.00071     0.40181
      H   18    0.09578      0.00000     0.40325    0.00097     0.40422
      H   19    0.09545      0.00000     0.40354    0.00101     0.40455
      H   20    0.10198      0.00000     0.39656    0.00146     0.39802
      H   21    0.09122      0.00000     0.40671    0.00206     0.40878
      H   22    0.09624      0.00000     0.40284    0.00093     0.40376
      H   23    0.09695      0.00000     0.40204    0.00101     0.40305
      H   24    0.10487      0.00000     0.39426    0.00087     0.39513
      H   25    0.09730      0.00000     0.40199    0.00071     0.40270
      H   26    0.09559      0.00000     0.40367    0.00074     0.40441
      H   27    0.09083      0.00000     0.40774    0.00143     0.40917
      H   28    0.10413      0.00000     0.39394    0.00193     0.39587
      H   29    0.18748      0.00000     0.30792    0.00461     0.31252
      H   30    0.09254      0.00000     0.40655    0.00091     0.40746
      H   31    0.09529      0.00000     0.40362    0.00109     0.40471
      H   32    0.07494      0.00000     0.42380    0.00126     0.42506
 =======================================================================
   * Total *    0.00000     14.99417    39.82981    0.17602    55.00000

 Normal termination of Gaussian 16 at Thu Dec 10 17:54:41 2020.
