 Gaussian 16, Revision A.03,

 -----------------------------------------------------------
 # opt freq B3LYP/6-31G(d) empiricaldispersion=gd3bj scf=xqc
 -----------------------------------------------------------

 -------------------------------
 CID_149259975_JID_2308_neutraal
 -------------------------------
 Symbolic Z-matrix:
 Charge =  0 Multiplicity = 1

 SCF Done:  E(RB3LYP) =  -513.873853744     A.U. after   14 cycles
 SCF Done:  E(RB3LYP) =  -513.878600131     A.U. after   12 cycles
 SCF Done:  E(RB3LYP) =  -513.878926938     A.U. after   11 cycles
 SCF Done:  E(RB3LYP) =  -513.878957545     A.U. after   10 cycles
 SCF Done:  E(RB3LYP) =  -513.878960622     A.U. after    9 cycles
 SCF Done:  E(RB3LYP) =  -513.878961455     A.U. after    8 cycles
 Optimization completed.
    -- Stationary point found.

 1\1\GINC-NODE219\FOpt\RB3LYP\6-31G(d)\C9H11N3\VSC10255\13-Dec-2020\0\\
 # opt freq B3LYP/6-31G(d) empiricaldispersion=gd3bj scf=xqc\\CID_14925
 9975_JID_2308_neutraal\\0,1\C,0.993593839,-0.0507962004,0.0320694093\C
 ,0.5097040118,-1.4777068996,-0.2208133292\C,0.8690875515,-2.4662433695
 ,0.8635476454\N,1.4542091278,-2.0123408092,1.9829651784\C,1.7706139316
 ,-2.8850752777,2.9559124854\N,1.5585799552,-4.2182158636,2.9323572832\
 C,0.9802382833,-4.654771032,1.8202510366\C,0.6097452616,-3.8344642335,
 0.7474290521\C,0.0174410144,-4.7302854999,-0.2497644485\N,-0.005179644

 Normal termination of Gaussian 16 at Sun Dec 13 12:20:32 2020.

 --------------------------------------------------------------------
 #N Geom=AllCheck Guess=TCheck SCRF=Check GenChk RB3LYP/6-31G(d) Freq
 --------------------------------------------------------------------

 Structure from the checkpoint file:  "JID_2308.chk"
 -------------------------------
 CID_149259975_JID_2308_neutraal
 -------------------------------
 Charge =  0 Multiplicity = 1

 SCF Done:  E(RB3LYP) =  -513.878961455     A.U. after    1 cycles

  Exact polarizability: 136.571   2.695 126.972  -0.601   0.410  61.625
 Approx polarizability: 215.107   3.496 197.460  -1.583   0.893  95.395

 ******    1 imaginary frequencies (negative Signs) ******

                      1                      2                      3
                      A                      A                      A
 Frequencies --    -19.7601                 6.0363               110.0180
 Red. masses --      1.0283                 2.0465                 3.0092
 Frc consts  --      0.0002                 0.0000                 0.0215
 IR Inten    --      0.5614                 0.3443                 0.0740

                      4                      5                      6
                      A                      A                      A
 Frequencies --    147.5641               165.3776               216.7630
 Red. masses --      2.6290                 3.1825                 2.3445
 Frc consts  --      0.0337                 0.0513                 0.0649
 IR Inten    --      0.1041                 0.2495                 0.0833

                      7                      8                      9
                      A                      A                      A
 Frequencies --    251.4365               278.7569               289.6740
 Red. masses --      1.6813                 3.2357                 3.3654
 Frc consts  --      0.0626                 0.1481                 0.1664
 IR Inten    --      1.6228                 0.1030                13.1599

                     10                     11                     12
                      A                      A                      A
 Frequencies --    353.4355               456.4642               484.0258
 Red. masses --      3.0538                 2.1226                 5.4101
 Frc consts  --      0.2248                 0.2606                 0.7468
 IR Inten    --      5.2588                 6.6484                 0.4026

                     13                     14                     15
                      A                      A                      A
 Frequencies --    517.9942               551.7870               582.7742
 Red. masses --      4.9290                 3.2107                 4.3137
 Frc consts  --      0.7792                 0.5760                 0.8632
 IR Inten    --      2.3126                 2.4920                 1.6132

                     16                     17                     18
                      A                      A                      A
 Frequencies --    629.7485               674.9997               758.8754
 Red. masses --      3.3501                 4.5633                 2.0461
 Frc consts  --      0.7828                 1.2250                 0.6942
 IR Inten    --      0.0228                 0.4640                 0.3238

                     19                     20                     21
                      A                      A                      A
 Frequencies --    786.2836               823.4491               903.7366
 Red. masses --      7.4349                 1.8301                 4.3802
 Frc consts  --      2.7082                 0.7311                 2.1078
 IR Inten    --      9.3305                 9.1796                57.1369

                     22                     23                     24
                      A                      A                      A
 Frequencies --    906.2324               936.9025               967.6452
 Red. masses --      1.8898                 3.2665                 3.3917
 Frc consts  --      0.9144                 1.6894                 1.8711
 IR Inten    --      1.3867                12.0542                 2.4743

                     25                     26                     27
                      A                      A                      A
 Frequencies --    981.5498              1004.2727              1026.3167
 Red. masses --      5.9487                 1.8164                 1.6921
 Frc consts  --      3.3767                 1.0794                 1.0501
 IR Inten    --      9.5857                 1.5696                14.3956

                     28                     29                     30
                      A                      A                      A
 Frequencies --   1068.6254              1074.2306              1105.3189
 Red. masses --      2.1749                 1.6297                 2.4451
 Frc consts  --      1.4633                 1.1080                 1.7600
 IR Inten    --      1.3225                 4.9523                 1.1902

                     31                     32                     33
                      A                      A                      A
 Frequencies --   1114.3979              1181.9381              1197.8741
 Red. masses --      1.5891                 1.1166                 3.9645
 Frc consts  --      1.1627                 0.9191                 3.3517
 IR Inten    --      0.4853                 2.1877                15.1902

                     34                     35                     36
                      A                      A                      A
 Frequencies --   1269.3736              1277.6287              1303.5944
 Red. masses --      1.7360                 2.9809                 1.1622
 Frc consts  --      1.6481                 2.8669                 1.1636
 IR Inten    --      0.4811                 5.7654                 0.1975

                     37                     38                     39
                      A                      A                      A
 Frequencies --   1339.0713              1359.6491              1397.5650
 Red. masses --      1.9525                 2.1535                 2.4726
 Frc consts  --      2.0627                 2.3456                 2.8455
 IR Inten    --     16.7596                24.5974                 4.6684

                     40                     41                     42
                      A                      A                      A
 Frequencies --   1409.0229              1426.2422              1446.9767
 Red. masses --      2.8923                 2.1977                 1.3409
 Frc consts  --      3.3832                 2.6339                 1.6542
 IR Inten    --     12.8979                10.0895                 8.0450

                     43                     44                     45
                      A                      A                      A
 Frequencies --   1455.4207              1458.7935              1499.0064
 Red. masses --      1.3888                 2.1418                 1.0894
 Frc consts  --      1.7333                 2.6854                 1.4423
 IR Inten    --     18.1593                85.6132                 7.7350

                     46                     47                     48
                      A                      A                      A
 Frequencies --   1507.8897              1509.9137              1521.9021
 Red. masses --      1.0576                 1.1218                 1.0394
 Frc consts  --      1.4168                 1.5068                 1.4185
 IR Inten    --      6.5364                 9.2167                 5.4745

                     49                     50                     51
                      A                      A                      A
 Frequencies --   1529.6256              1596.6974              1632.1074
 Red. masses --      1.0619                 7.5066                10.0641
 Frc consts  --      1.4638                11.2756                15.7951
 IR Inten    --      8.5065                55.1563               128.1224

                     52                     53                     54
                      A                      A                      A
 Frequencies --   1650.1210              3028.1134              3054.3330
 Red. masses --      7.5648                 1.0622                 1.0990
 Frc consts  --     12.1361                 5.7385                 6.0405
 IR Inten    --    125.4645                13.1878                13.3519

                     55                     56                     57
                      A                      A                      A
 Frequencies --   3061.9649              3065.0752              3067.6917
 Red. masses --      1.0387                 1.0604                 1.0363
 Frc consts  --      5.7378                 5.8693                 5.7461
 IR Inten    --      8.9096                 5.1947                26.9317

                     58                     59                     60
                      A                      A                      A
 Frequencies --   3097.9262              3117.6241              3135.4250
 Red. masses --      1.1025                 1.0994                 1.1026
 Frc consts  --      6.2339                 6.2958                 6.3862
 IR Inten    --      3.4700                10.0685                29.1840

                     61                     62                     63
                      A                      A                      A
 Frequencies --   3147.6190              3172.3792              3185.6310
 Red. masses --      1.1024                 1.1019                 1.0934
 Frc consts  --      6.4352                 6.5335                 6.5379
 IR Inten    --     21.4325                 8.9937                26.1460

 - Thermochemistry -
 -------------------
 Temperature   298.150 Kelvin.  Pressure   1.00000 Atm.
 Atom     1 has atomic number  6 and mass  12.00000

 Molecular mass:   161.09530 amu.
 Principal axes and moments of inertia in atomic units:
                           1         2         3
     Eigenvalues --  1437.791112013.159203405.41456
           X            0.99841  -0.05644   0.00051
           Y            0.05644   0.99841  -0.00009
           Z           -0.00051   0.00011   1.00000
 This molecule is an asymmetric top.
 Rotational symmetry number  1.
 Warning -- assumption of classical behavior for rotation
           may cause significant error
 Rotational temperatures (Kelvin)      0.06024     0.04302     0.02543
 Rotational constants (GHZ):           1.25522     0.89647     0.52996
    1 imaginary frequencies ignored.
 Zero-point vibrational energy     498118.4 (Joules/Mol)
                                  119.05315 (Kcal/Mol)
 Warning -- explicit consideration of  14 degrees of freedom as
           vibrations may cause significant error
 Vibrational temperatures:      8.68   158.29   212.31   237.94   311.87
          (Kelvin)            361.76   401.07   416.78   508.51   656.75
                              696.41   745.28   793.90   838.48   906.07
                              971.17  1091.85  1131.29  1184.76  1300.28
                             1303.87  1347.99  1392.23  1412.23  1444.92
                             1476.64  1537.51  1545.58  1590.31  1603.37
                             1700.55  1723.47  1826.35  1838.22  1875.58
                             1926.62  1956.23  2010.78  2027.27  2052.04
                             2081.88  2094.03  2098.88  2156.74  2169.52
                             2172.43  2189.68  2200.79  2297.29  2348.24
                             2374.16  4356.78  4394.50  4405.48  4409.96
                             4413.72  4457.22  4485.57  4511.18  4528.72
                             4564.35  4583.41

 Zero-point correction=                           0.189723 (Hartree/Particle)
 Thermal correction to Energy=                    0.199869
 Thermal correction to Enthalpy=                  0.200813
 Thermal correction to Gibbs Free Energy=         0.151835
 Sum of electronic and zero-point Energies=           -513.689238
 Sum of electronic and thermal Energies=              -513.679093
 Sum of electronic and thermal Enthalpies=            -513.678149
 Sum of electronic and thermal Free Energies=         -513.727126

                     E (Thermal)             CV                S
                      KCal/Mol        Cal/Mol-Kelvin    Cal/Mol-Kelvin
 Total                  125.420             38.474            103.082
 Electronic               0.000              0.000              0.000
 Translational            0.889              2.981             41.139
 Rotational               0.889              2.981             30.667
 Vibrational            123.642             32.512             31.276
 Vibration     1          0.593              1.987              9.014
 Vibration     2          0.606              1.941              3.269
 Vibration     3          0.617              1.905              2.703
 Vibration     4          0.624              1.885              2.487
 Vibration     5          0.646              1.816              1.986
 Vibration     6          0.663              1.760              1.720
 Vibration     7          0.679              1.713              1.541
 Vibration     8          0.686              1.693              1.476
 Vibration     9          0.730              1.568              1.151
 Vibration    10          0.815              1.347              0.776
 Vibration    11          0.840              1.285              0.699
 Vibration    12          0.873              1.210              0.615
 Vibration    13          0.907              1.136              0.540
 Vibration    14          0.940              1.069              0.480

                           ! Non-Optimized Parameters !

 1\1\GINC-NODE219\Freq\RB3LYP\6-31G(d)\C9H11N3\VSC10255\13-Dec-2020\0\\
 #N Geom=AllCheck Guess=TCheck SCRF=Check GenChk RB3LYP/6-31G(d) Freq\\
 CID_149259975_JID_2308_neutraal\\0,1\C,0.993593839,-0.0507962004,0.032
 0694093\C,0.5097040118,-1.4777068996,-0.2208133292\C,0.8690875515,-2.4
 662433695,0.8635476454\N,1.4542091278,-2.0123408092,1.9829651784\C,1.7
 706139316,-2.8850752777,2.9559124854\N,1.5585799552,-4.2182158636,2.93
 23572832\C,0.9802382833,-4.654771032,1.8202510366\C,0.6097452616,-3.83
 44642335,0.7474290521\C,0.0174410144,-4.7302854999,-0.2497644485\N,-0.

 Normal termination of Gaussian 16 at Sun Dec 13 12:25:20 2020.

 ----------------------------------------------------------------------
 # B3LYP/6-311++G(d,p) empiricaldispersion=gd3bj scf=xqc pop=npa geom=c
 heck
 ----------------------------------------------------------------------

 ---------------------------------------
 CID_149259975_JID_2308_Energie_neutraal
 ---------------------------------------
 Structure from the checkpoint file:  "JID_2308.chk"
 Charge =  0 Multiplicity = 1

 SCF Done:  E(RB3LYP) =  -514.010604236     A.U. after   15 cycles
 Normal termination of Gaussian 16 at Sun Dec 13 12:27:22 2020.

 ----------------------------------------------------------------------
 # B3LYP/6-311++G(d,p) empiricaldispersion=gd3bj scf=xqc pop=npa geom=c
 heck
 ----------------------------------------------------------------------

 -------------------------------------
 CID_149259975_JID_2308_Energie_kation
 -------------------------------------
 Structure from the checkpoint file:  "JID_2308.chk"
 Charge =  1 Multiplicity = 2

 SCF Done:  E(UB3LYP) =  -513.678704278     A.U. after   29 cycles
 Normal termination of Gaussian 16 at Sun Dec 13 12:32:52 2020.
 Gaussian 16:  ES64L-G16RevA.03 25-Dec-2016

 ------------------------------------
 CID_149259975_JID_2308_Energie_anion
 ------------------------------------
 Structure from the checkpoint file:  "JID_2308.chk"
 Charge = -1 Multiplicity = 2

                         Standard orientation:
 ---------------------------------------------------------------------
 Center     Atomic      Atomic             Coordinates (Angstroms)
 Number     Number       Type             X           Y           Z
 ---------------------------------------------------------------------
      1          6           0        3.040773   -1.756726    0.067573
      2          6           0        1.529288   -1.942696   -0.054902
      3          6           0        0.732382   -0.659597   -0.026670
      4          7           0        1.391262    0.509740   -0.022214
      5          6           0        0.688915    1.656386   -0.004440
      6          7           0       -0.656457    1.768261    0.010867
      7          6           0       -1.296407    0.605382    0.006983
      8          6           0       -0.664864   -0.644395   -0.011124
      9          6           0       -1.745604   -1.634190   -0.006588
     10          7           0       -2.929275   -1.120069    0.011486
     11          6           0       -2.779928    0.343913    0.022564
     12          6           0        1.469924    2.940266   -0.005989
     13          1           0        3.427163   -1.138756   -0.746991
     14          1           0        3.543656   -2.728834    0.040468
     15          1           0        3.299897   -1.256199    1.005012
     16          1           0        1.288532   -2.470310   -0.989434
     17          1           0        1.158154   -2.594774    0.748030
     18          1           0       -1.607662   -2.713696   -0.017581
     19          1           0       -3.290938    0.774924   -0.847495
     20          1           0       -3.269854    0.759497    0.912036
     21          1           0        1.257132    3.509929   -0.918061
     22          1           0        1.168570    3.568329    0.839117
     23          1           0        2.539765    2.734314    0.049474
 ---------------------------------------------------------------------

 SCF Done:  E(UB3LYP) =  -514.016835220     A.U. after   29 cycles

 The electronic state is 2-A.
 Alpha  occ. eigenvalues --  -14.15069 -14.14627 -14.12055 -10.06410 -10.05637
 Alpha  occ. eigenvalues --  -10.04882 -10.04741 -10.04251 -10.04044 -10.03484
 Alpha  occ. eigenvalues --  -10.02809 -10.00761  -0.82296  -0.77338  -0.72750
 Alpha  occ. eigenvalues --   -0.65411  -0.62143  -0.57680  -0.56306  -0.52096
 Alpha  occ. eigenvalues --   -0.45882  -0.44293  -0.41032  -0.37714  -0.33034
 Alpha  occ. eigenvalues --   -0.32850  -0.31250  -0.29697  -0.29150  -0.28668
 Alpha  occ. eigenvalues --   -0.26078  -0.25081  -0.24420  -0.24220  -0.22474
 Alpha  occ. eigenvalues --   -0.22029  -0.21700  -0.17212  -0.15000  -0.14843
 Alpha  occ. eigenvalues --   -0.10191  -0.09826  -0.09285   0.05447
 Alpha virt. eigenvalues --    0.08484   0.09603   0.10432   0.11357   0.11504
 Alpha virt. eigenvalues --    0.11545   0.12405   0.13153   0.13512   0.14359
 Alpha virt. eigenvalues --    0.14431   0.14915   0.16654   0.16875   0.16993

  Beta  occ. eigenvalues --  -14.15235 -14.14536 -14.11408 -10.05985 -10.05637
  Beta  occ. eigenvalues --  -10.04774 -10.04483 -10.04280 -10.04043 -10.03409
  Beta  occ. eigenvalues --  -10.02845 -10.00652  -0.81959  -0.76613  -0.72459
  Beta  occ. eigenvalues --   -0.65092  -0.61890  -0.57399  -0.56157  -0.51819
  Beta  occ. eigenvalues --   -0.45368  -0.44086  -0.40619  -0.37501  -0.32756
  Beta  occ. eigenvalues --   -0.32580  -0.30730  -0.29358  -0.28608  -0.28571
  Beta  occ. eigenvalues --   -0.25999  -0.24923  -0.24094  -0.23901  -0.22318
  Beta  occ. eigenvalues --   -0.21657  -0.21542  -0.15515  -0.14855  -0.14291
  Beta  occ. eigenvalues --   -0.09729  -0.09070  -0.07538
  Beta virt. eigenvalues --    0.08413   0.09563   0.10416   0.11099   0.11411
  Beta virt. eigenvalues --    0.11902   0.12053   0.12305   0.13402   0.13776
  Beta virt. eigenvalues --    0.14313   0.14546   0.15014   0.16556   0.16815

 Mulliken charges and spin densities:
               1          2
     1  C   -0.592867   0.005813
     2  C   -0.378286  -0.086491
     3  C   -0.008644   0.214988
     4  N    0.065335  -0.094542
     5  C   -0.111180   0.259012
     6  N   -0.073249   0.037724
     7  C    0.233050  -0.030992
     8  C   -0.020967   0.152545
     9  C   -0.477136   0.061934
    10  N   -0.146105   0.289179
    11  C   -0.453532  -0.024724
    12  C   -0.330965  -0.030494
    13  H    0.160787  -0.001768
    14  H    0.096855   0.003890
    15  H    0.151472   0.000137
    16  H    0.035641   0.109794
    17  H    0.077292   0.051947
    18  H    0.127659  -0.010480
    19  H    0.148974   0.021028
    20  H    0.149375   0.019771
    21  H    0.112118   0.027387
    22  H    0.113064   0.023666
    23  H    0.121311   0.000677
 Sum of Mulliken charges =  -1.00000   1.00000

 Dipole moment (field-independent basis, Debye):
    X=              3.5332    Y=              0.1108    Z=              0.1594  Tot=              3.5386
 Quadrupole moment (field-independent basis, Debye-Ang):
   XX=           -106.2269   YY=            -94.2245   ZZ=            -78.6312
   XY=             -7.5498   XZ=              0.2976   YZ=             -0.4810

 Summary of Natural Population Analysis:

                                       Natural Population
                Natural  -----------------------------------------------
    Atom  No    Charge         Core      Valence    Rydberg      Total
 -----------------------------------------------------------------------
      C    1   -0.28173      0.99968     2.27758    0.00447     3.28173
      C    2   -0.20589      0.99962     2.19981    0.00646     3.20589
      C    3    0.19553      0.99951     1.79188    0.01308     2.80447
      N    4   -0.30080      0.99966     2.79222    0.00892     3.80080
      C    5    0.28058      0.99965     1.70363    0.01614     2.71942
      N    6   -0.26188      0.99964     2.75173    0.01051     3.76188
      C    7    0.12701      0.99948     1.85747    0.01604     2.87299
      C    8   -0.08376      0.99940     2.07358    0.01077     3.08376
      C    9    0.02913      0.99962     1.94964    0.02161     2.97087
      N   10   -0.14465      0.99972     2.63287    0.01206     3.64465
      C   11   -0.12643      0.99960     2.11673    0.01010     3.12643
      C   12   -0.30328      0.99964     2.29891    0.00472     3.30328
      H   13    0.10108      0.00000     0.39804    0.00088     0.39892
      H   14    0.08667      0.00000     0.41252    0.00081     0.41333
      H   15    0.09881      0.00000     0.40031    0.00088     0.40119
      H   16    0.10061      0.00000     0.39750    0.00189     0.39939
      H   17    0.09936      0.00000     0.39934    0.00130     0.40064
      H   18    0.08050      0.00000     0.41838    0.00112     0.41950
      H   19    0.10411      0.00000     0.39471    0.00118     0.39589
      H   20    0.10404      0.00000     0.39477    0.00118     0.39596
      H   21    0.10097      0.00000     0.39809    0.00094     0.39903
      H   22    0.10083      0.00000     0.39825    0.00092     0.39917
      H   23    0.09920      0.00000     0.39999    0.00081     0.40080
 =======================================================================
   * Total *    0.00000     11.99523    30.85796    0.14681    43.00000

 Normal termination of Gaussian 16 at Sun Dec 13 12:38:20 2020.
