 Gaussian 16, Revision A.03,

 -----------------------------------------------------------
 # opt freq B3LYP/6-31G(d) empiricaldispersion=gd3bj scf=xqc
 -----------------------------------------------------------

 --------------------------------
 CID_121906373_JID_10190_neutraal
 --------------------------------
 Symbolic Z-matrix:
 Charge =  0 Multiplicity = 1

 SCF Done:  E(RB3LYP) =  -904.093560330     A.U. after   15 cycles
 SCF Done:  E(RB3LYP) =  -904.097208137     A.U. after   13 cycles
 SCF Done:  E(RB3LYP) =  -904.094892167     A.U. after   13 cycles
 SCF Done:  E(RB3LYP) =  -904.096202734     A.U. after   13 cycles
 SCF Done:  E(RB3LYP) =  -904.099409546     A.U. after   11 cycles
 SCF Done:  E(RB3LYP) =  -904.100612267     A.U. after   12 cycles
 SCF Done:  E(RB3LYP) =  -904.100785248     A.U. after   12 cycles
 SCF Done:  E(RB3LYP) =  -904.101613821     A.U. after   12 cycles
 SCF Done:  E(RB3LYP) =  -904.101895996     A.U. after   12 cycles
 SCF Done:  E(RB3LYP) =  -904.102153845     A.U. after   12 cycles
 SCF Done:  E(RB3LYP) =  -904.104821410     A.U. after   11 cycles
 SCF Done:  E(RB3LYP) =  -904.104821867     A.U. after    9 cycles
 SCF Done:  E(RB3LYP) =  -904.104821968     A.U. after    8 cycles
 SCF Done:  E(RB3LYP) =  -904.104821939     A.U. after    8 cycles
 SCF Done:  E(RB3LYP) =  -904.104821942     A.U. after    6 cycles
 SCF Done:  E(RB3LYP) =  -904.104821934     A.U. after    6 cycles
 Optimization completed.
    -- Stationary point found.
 Normal termination of Gaussian 16 at Mon Dec 14 14:29:53 2020.

 --------------------------------------------------------------------
 #N Geom=AllCheck Guess=TCheck SCRF=Check GenChk RB3LYP/6-31G(d) Freq
 --------------------------------------------------------------------

 Structure from the checkpoint file:  "JID_10190.chk"
 --------------------------------
 CID_121906373_JID_10190_neutraal
 --------------------------------
 Charge =  0 Multiplicity = 1

 SCF Done:  E(RB3LYP) =  -904.104821934     A.U. after    1 cycles

  Exact polarizability: 207.113  -1.515 194.638 -23.836  -0.343 139.710
 Approx polarizability: 295.126  -3.371 302.893 -53.829  -1.386 212.602

                      1                      2                      3
                      A                      A                      A
 Frequencies --     12.2246                22.0722                29.2572
 Red. masses --      5.9476                 4.9648                 2.5182
 Frc consts  --      0.0005                 0.0014                 0.0013
 IR Inten    --      0.3638                 0.4366                 0.0269

                      4                      5                      6
                      A                      A                      A
 Frequencies --     47.0089                48.8653                68.5582
 Red. masses --      6.0205                 3.8669                 5.9416
 Frc consts  --      0.0078                 0.0054                 0.0165
 IR Inten    --      0.2629                 0.6741                 0.9029

                      7                      8                      9
                      A                      A                      A
 Frequencies --     82.8862               106.4012               118.5108
 Red. masses --      2.9624                 3.0970                 2.2603
 Frc consts  --      0.0120                 0.0207                 0.0187
 IR Inten    --      0.2937                 0.4181                 0.0357

                     10                     11                     12
                      A                      A                      A
 Frequencies --    136.2722               162.2461               178.8641
 Red. masses --      1.0874                 2.4143                 3.5974
 Frc consts  --      0.0119                 0.0374                 0.0678
 IR Inten    --      0.1101                 0.3006                 0.5302

                     13                     14                     15
                      A                      A                      A
 Frequencies --    188.7781               213.6123               236.4062
 Red. masses --      4.4143                 2.6061                 2.4187
 Frc consts  --      0.0927                 0.0701                 0.0796
 IR Inten    --      2.3973                 0.3481                 0.0574

                     16                     17                     18
                      A                      A                      A
 Frequencies --    245.7365               250.4705               287.4514
 Red. masses --      1.1728                 2.0308                 3.5727
 Frc consts  --      0.0417                 0.0751                 0.1739
 IR Inten    --      0.9994                 0.0819                 0.3526

                     19                     20                     21
                      A                      A                      A
 Frequencies --    301.1770               312.7554               325.8508
 Red. masses --      2.5180                 1.1698                 3.1932
 Frc consts  --      0.1346                 0.0674                 0.1998
 IR Inten    --      2.7395                 2.0968                 1.8934

                     22                     23                     24
                      A                      A                      A
 Frequencies --    351.0188               376.9647               386.5563
 Red. masses --      5.5169                 2.3210                 3.8211
 Frc consts  --      0.4005                 0.1943                 0.3364
 IR Inten    --      2.7174                 0.6428                 2.1379

                     25                     26                     27
                      A                      A                      A
 Frequencies --    415.4196               443.3824               444.4418
 Red. masses --      3.3483                 2.7956                 2.4677
 Frc consts  --      0.3404                 0.3238                 0.2872
 IR Inten    --      4.0404                 5.4582                 1.5208

                     28                     29                     30
                      A                      A                      A
 Frequencies --    472.1081               482.7081               525.5714
 Red. masses --      2.9842                 3.0570                 3.3164
 Frc consts  --      0.3919                 0.4197                 0.5397
 IR Inten    --      7.4346                11.0989                22.5364

                     31                     32                     33
                      A                      A                      A
 Frequencies --    544.9326               545.4888               585.8383
 Red. masses --      2.0878                 3.9124                 1.9067
 Frc consts  --      0.3653                 0.6859                 0.3856
 IR Inten    --     20.4294                 3.9587                12.1934

                     34                     35                     36
                      A                      A                      A
 Frequencies --    614.2574               632.9652               677.2360
 Red. masses --      4.3921                 1.6707                 4.2201
 Frc consts  --      0.9764                 0.3944                 1.1404
 IR Inten    --     84.3711                85.6129                14.1167

                     37                     38                     39
                      A                      A                      A
 Frequencies --    694.0554               734.5391               740.7582
 Red. masses --      3.9147                 3.7862                 3.8652
 Frc consts  --      1.1110                 1.2036                 1.2496
 IR Inten    --      8.9826                14.9270                 5.7495

                     40                     41                     42
                      A                      A                      A
 Frequencies --    757.9923               771.6904               805.6822
 Red. masses --      1.8795                 3.3738                 1.6754
 Frc consts  --      0.6362                 1.1837                 0.6407
 IR Inten    --     22.0087                58.1812                 1.3476

                     43                     44                     45
                      A                      A                      A
 Frequencies --    826.8641               853.5235               872.5473
 Red. masses --      4.7638                 1.4820                 3.0072
 Frc consts  --      1.9190                 0.6361                 1.3490
 IR Inten    --      3.7094                 4.0409                 2.2021

                     46                     47                     48
                      A                      A                      A
 Frequencies --    887.6012               911.2053               941.1079
 Red. masses --      2.4561                 1.7593                 1.2636
 Frc consts  --      1.1400                 0.8607                 0.6594
 IR Inten    --      1.3065                 1.9523                 1.1322

                     49                     50                     51
                      A                      A                      A
 Frequencies --    961.7626               971.9294               974.7024
 Red. masses --      1.4839                 1.6472                 1.3858
 Frc consts  --      0.8087                 0.9168                 0.7757
 IR Inten    --      6.1449                 3.1784                 0.2642

                     52                     53                     54
                      A                      A                      A
 Frequencies --    978.7003               986.0712              1030.6205
 Red. masses --      1.4875                 2.2443                 1.6591
 Frc consts  --      0.8395                 1.2857                 1.0383
 IR Inten    --      1.8484                10.4562                10.8087

                     55                     56                     57
                      A                      A                      A
 Frequencies --   1033.9013              1072.6265              1073.8951
 Red. masses --      1.8226                 1.9109                 1.6030
 Frc consts  --      1.1479                 1.2953                 1.0892
 IR Inten    --      1.5245                 2.6278                 4.9273

                     58                     59                     60
                      A                      A                      A
 Frequencies --   1099.6221              1120.9146              1132.1779
 Red. masses --      1.9787                 2.4879                 1.7281
 Frc consts  --      1.4097                 1.8418                 1.3051
 IR Inten    --      6.8997                38.8500                20.6467

                     61                     62                     63
                      A                      A                      A
 Frequencies --   1142.1342              1169.3154              1187.5429
 Red. masses --      1.9500                 1.7804                 2.0145
 Frc consts  --      1.4987                 1.4342                 1.6738
 IR Inten    --      9.6908                54.8083                27.2277

                     64                     65                     66
                      A                      A                      A
 Frequencies --   1204.1774              1219.7664              1225.0636
 Red. masses --      1.9681                 2.0212                 2.0683
 Frc consts  --      1.6814                 1.7718                 1.8289
 IR Inten    --    281.5878                 6.8354                35.1301

                     67                     68                     69
                      A                      A                      A
 Frequencies --   1268.9221              1276.5153              1296.2730
 Red. masses --      1.4483                 2.3616                 1.4101
 Frc consts  --      1.3740                 2.2673                 1.3960
 IR Inten    --     16.2234                28.4053                38.7668

                     70                     71                     72
                      A                      A                      A
 Frequencies --   1307.2398              1318.0607              1348.6928
 Red. masses --      1.4099                 1.4114                 1.7580
 Frc consts  --      1.4195                 1.4447                 1.8841
 IR Inten    --      4.0209                19.6378               166.8942

                     73                     74                     75
                      A                      A                      A
 Frequencies --   1357.2902              1365.7223              1379.2470
 Red. masses --      6.1889                 1.2917                 1.5075
 Frc consts  --      6.7175                 1.4195                 1.6897
 IR Inten    --      0.9595                28.1042                45.5378

                     76                     77                     78
                      A                      A                      A
 Frequencies --   1389.2317              1395.8402              1406.2011
 Red. masses --      1.4409                 2.4769                 1.3700
 Frc consts  --      1.6384                 2.8434                 1.5961
 IR Inten    --     25.5544               105.4779                15.6432

                     79                     80                     81
                      A                      A                      A
 Frequencies --   1422.3382              1433.7912              1444.4462
 Red. masses --      1.4319                 1.2664                 1.2654
 Frc consts  --      1.7068                 1.5339                 1.5555
 IR Inten    --      2.1118                 5.9975                 2.3582

                     82                     83                     84
                      A                      A                      A
 Frequencies --   1445.0325              1453.2009              1458.5027
 Red. masses --      1.2643                 1.2497                 1.7883
 Frc consts  --      1.5555                 1.5549                 2.2414
 IR Inten    --     11.3239                 7.9874                22.5937

                     85                     86                     87
                      A                      A                      A
 Frequencies --   1477.1236              1509.1704              1514.6113
 Red. masses --      3.2501                 1.0592                 1.0911
 Frc consts  --      4.1781                 1.4213                 1.4748
 IR Inten    --    117.2881                 8.5399                 3.8650

                     88                     89                     90
                      A                      A                      A
 Frequencies --   1519.8497              1520.3325              1521.5454
 Red. masses --      1.1203                 1.0648                 1.0439
 Frc consts  --      1.5247                 1.4501                 1.4239
 IR Inten    --      8.6727                 1.4555                 2.8444

                     91                     92                     93
                      A                      A                      A
 Frequencies --   1524.9918              1532.2418              1538.4185
 Red. masses --      1.0543                 1.0545                 1.0607
 Frc consts  --      1.4446                 1.4586                 1.4791
 IR Inten    --      0.6821                 3.3431                 8.7686

                     94                     95                     96
                      A                      A                      A
 Frequencies --   1539.7250              1546.8677              1550.8544
 Red. masses --      1.0549                 1.0507                 3.0162
 Frc consts  --      1.4735                 1.4813                 4.2742
 IR Inten    --     10.1334                16.5867                17.3954

                     97                     98                     99
                      A                      A                      A
 Frequencies --   1626.5253              1671.5802              1755.3529
 Red. masses --      6.2242                 6.3163                 7.5482
 Frc consts  --      9.7019                10.3985                13.7032
 IR Inten    --     13.4833                28.9147               325.7194

                    100                    101                    102
                      A                      A                      A
 Frequencies --   1819.1730              3031.8029              3043.0485
 Red. masses --      9.7934                 1.0791                 1.0566
 Frc consts  --     19.0955                 5.8442                 5.7650
 IR Inten    --    278.0210                11.6796                18.5635

                    103                    104                    105
                      A                      A                      A
 Frequencies --   3044.9879              3047.1921              3047.6981
 Red. masses --      1.0419                 1.0396                 1.0423
 Frc consts  --      5.6918                 5.6873                 5.7039
 IR Inten    --     33.1920                19.3590                35.9443

                    106                    107                    108
                      A                      A                      A
 Frequencies --   3050.7192              3060.4385              3062.5201
 Red. masses --      1.0400                 1.0734                 1.0796
 Frc consts  --      5.7029                 5.9237                 5.9660
 IR Inten    --     23.6622                 0.5592                18.8669

                    109                    110                    111
                      A                      A                      A
 Frequencies --   3076.3686              3099.5467              3106.8149
 Red. masses --      1.0889                 1.0976                 1.1020
 Frc consts  --      6.0718                 6.2130                 6.2672
 IR Inten    --     31.5935                13.4498                 6.8411

                    112                    113                    114
                      A                      A                      A
 Frequencies --   3108.3379              3111.0181              3112.3809
 Red. masses --      1.1002                 1.1011                 1.1011
 Frc consts  --      6.2629                 6.2786                 6.2842
 IR Inten    --     37.1807                13.9837                98.6395

                    115                    116                    117
                      A                      A                      A
 Frequencies --   3118.0611              3130.2615              3138.8699
 Red. masses --      1.1014                 1.1003                 1.1017
 Frc consts  --      6.3092                 6.3524                 6.3951
 IR Inten    --     42.7533                30.3017                18.1963

                    118                    119                    120
                      A                      A                      A
 Frequencies --   3151.2915              3192.6964              3235.7801
 Red. masses --      1.0987                 1.0898                 1.0926
 Frc consts  --      6.4287                 6.5448                 6.7404
 IR Inten    --     16.4234                14.8324                 2.6665

                    121                    122                    123
                      A                      A                      A
 Frequencies --   3268.3950              3551.8276              3700.0532
 Red. masses --      1.0904                 1.0743                 1.0642
 Frc consts  --      6.8632                 7.9849                 8.5838
 IR Inten    --      1.8657                21.9518                81.9383

 - Thermochemistry -
 -------------------
 Temperature   298.150 Kelvin.  Pressure   1.00000 Atm.
 Atom     1 has atomic number  6 and mass  12.00000

 Molecular mass:   277.16779 amu.
 Principal axes and moments of inertia in atomic units:
                           1         2         3
     Eigenvalues --  4303.584567704.607808800.31604
           X            0.99948   0.02776   0.01653
           Y           -0.02719   0.99906  -0.03363
           Z           -0.01745   0.03316   0.99930
 This molecule is an asymmetric top.
 Rotational symmetry number  1.
 Warning -- assumption of classical behavior for rotation
           may cause significant error
 Rotational temperatures (Kelvin)      0.02013     0.01124     0.00984
 Rotational constants (GHZ):           0.41936     0.23424     0.20508
 Zero-point vibrational energy     973053.3 (Joules/Mol)
                                  232.56532 (Kcal/Mol)
 Warning -- explicit consideration of  34 degrees of freedom as
           vibrations may cause significant error
 Vibrational temperatures:     17.59    31.76    42.09    67.64    70.31
          (Kelvin)             98.64   119.25   153.09   170.51   196.07
                              233.44   257.35   271.61   307.34   340.14
                              353.56   360.37   413.58   433.33   449.99
                              468.83   505.04   542.37   556.17   597.70
                              637.93   639.45   679.26   694.51   756.18
                              784.04   784.84   842.89   883.78   910.70
                              974.39   998.59  1056.84  1065.79  1090.58
                             1110.29  1159.20  1189.67  1228.03  1255.40
                             1277.06  1311.02  1354.04  1383.76  1398.39
                             1402.38  1408.13  1418.74  1482.83  1487.55
                             1543.27  1545.10  1582.11  1612.75  1628.95
                             1643.28  1682.38  1708.61  1732.54  1754.97
                             1762.59  1825.70  1836.62  1865.05  1880.83
                             1896.40  1940.47  1952.84  1964.97  1984.43
                             1998.79  2008.30  2023.21  2046.43  2062.91
                             2078.24  2079.08  2090.83  2098.46  2125.25
                             2171.36  2179.19  2186.72  2187.42  2189.16
                             2194.12  2204.55  2213.44  2215.32  2225.60
                             2231.33  2340.21  2405.03  2525.56  2617.38
                             4362.09  4378.27  4381.06  4384.23  4384.96
                             4389.30  4403.29  4406.28  4426.21  4459.56
                             4470.01  4472.20  4476.06  4478.02  4486.19
                             4503.75  4516.13  4534.01  4593.58  4655.57
                             4702.49  5110.29  5323.55

 Zero-point correction=                           0.370616 (Hartree/Particle)
 Thermal correction to Energy=                    0.392076
 Thermal correction to Enthalpy=                  0.393020
 Thermal correction to Gibbs Free Energy=         0.317689
 Sum of electronic and zero-point Energies=           -903.734206
 Sum of electronic and thermal Energies=              -903.712746
 Sum of electronic and thermal Enthalpies=            -903.711802
 Sum of electronic and thermal Free Energies=         -903.787133

                     E (Thermal)             CV                S
                      KCal/Mol        Cal/Mol-Kelvin    Cal/Mol-Kelvin
 Total                  246.031             79.810            158.548
 Electronic               0.000              0.000              0.000
 Translational            0.889              2.981             42.757
 Rotational               0.889              2.981             34.033
 Vibrational            244.254             73.848             81.758
 Vibration     1          0.593              1.987              7.612
 Vibration     2          0.593              1.985              6.438
 Vibration     3          0.593              1.984              5.879
 Vibration     4          0.595              1.979              4.939
 Vibration     5          0.595              1.978              4.863
 Vibration     6          0.598              1.969              4.194
 Vibration     7          0.600              1.961              3.821
 Vibration     8          0.605              1.944              3.334
 Vibration     9          0.609              1.934              3.125
 Vibration    10          0.614              1.917              2.856
 Vibration    11          0.622              1.889              2.523
 Vibration    12          0.629              1.868              2.340
 Vibration    13          0.633              1.855              2.240
 Vibration    14          0.644              1.820              2.013
 Vibration    15          0.655              1.785              1.830
 Vibration    16          0.660              1.770              1.761
 Vibration    17          0.663              1.762              1.727
 Vibration    18          0.685              1.697              1.489
 Vibration    19          0.693              1.671              1.410
 Vibration    20          0.701              1.649              1.348
 Vibration    21          0.710              1.624              1.281
 Vibration    22          0.728              1.573              1.162
 Vibration    23          0.748              1.519              1.051
 Vibration    24          0.755              1.499              1.013
 Vibration    25          0.779              1.437              0.908
 Vibration    26          0.803              1.375              0.816
 Vibration    27          0.804              1.373              0.813
 Vibration    28          0.829              1.312              0.732
 Vibration    29          0.839              1.288              0.703
 Vibration    30          0.881              1.193              0.597
 Vibration    31          0.900              1.151              0.555
 Vibration    32          0.901              1.150              0.554
 Vibration    33          0.943              1.062              0.475
 Vibration    34          0.974              1.002              0.426

 Optimization completed.
    -- Stationary point found.
 Normal termination of Gaussian 16 at Mon Dec 14 14:54:44 2020.

 ----------------------------------------------------------------------
 # B3LYP/6-311++G(d,p) empiricaldispersion=gd3bj scf=xqc pop=npa geom=c
 heck
 ----------------------------------------------------------------------

 ----------------------------------------
 CID_121906373_JID_10190_Energie_neutraal
 ----------------------------------------
 Structure from the checkpoint file:  "JID_10190.chk"
 Charge =  0 Multiplicity = 1

 SCF Done:  E(RB3LYP) =  -904.366609989     A.U. after   17 cycles
 Normal termination of Gaussian 16 at Mon Dec 14 15:05:47 2020.

 ----------------------------------------------------------------------
 # B3LYP/6-311++G(d,p) empiricaldispersion=gd3bj scf=xqc pop=npa geom=c
 heck
 ----------------------------------------------------------------------

 --------------------------------------
 CID_121906373_JID_10190_Energie_kation
 --------------------------------------
 Structure from the checkpoint file:  "JID_10190.chk"
 Charge =  1 Multiplicity = 2

 SCF Done:  E(UB3LYP) =  -904.053520215     A.U. after   30 cycles
 Normal termination of Gaussian 16 at Mon Dec 14 15:31:49 2020.
 Gaussian 16:  ES64L-G16RevA.03 25-Dec-2016

 ----------------------------------------------------------------------
 # B3LYP/6-311++G(d,p) empiricaldispersion=gd3bj scf=xqc pop=npa geom=c
 heck
 ----------------------------------------------------------------------

 -------------------------------------
 CID_121906373_JID_10190_Energie_anion
 -------------------------------------
 Structure from the checkpoint file:  "JID_10190.chk"
 Charge = -1 Multiplicity = 2

                         Standard orientation:
 ---------------------------------------------------------------------
 Center     Atomic      Atomic             Coordinates (Angstroms)
 Number     Number       Type             X           Y           Z
 ---------------------------------------------------------------------
      1          6           0       -2.927596    1.398463   -2.790530
      2          6           0       -1.902910    0.271113   -2.629866
      3          6           0       -1.198156    0.256905   -1.262056
      4          6           0       -2.127068   -0.135522   -0.095677
      5          6           0       -2.438860   -1.665888   -0.065133
      6          6           0       -1.287267   -2.517039    0.482025
      7          6           0       -3.743556   -1.979858    0.678098
      8          6           0       -1.787056    0.390437    1.305583
      9          8           0       -2.667787    0.453566    2.157263
     10          7           0       -0.526286    0.847825    1.651386
     11          6           0        0.717291    0.883374    0.960073
     12          6           0        1.244117    2.125872    0.550810
     13          6           0        2.472435    2.138218   -0.118596
     14          6           0        3.163876    0.960919   -0.391998
     15          6           0        2.635698   -0.263571    0.029419
     16          6           0        1.423491   -0.290482    0.725906
     17          6           0        3.304267   -1.560044   -0.235754
     18          8           0        2.849773   -2.648416    0.057663
     19          8           0        4.501288   -1.422835   -0.861282
     20          6           0        0.483281    3.398129    0.809787
     21          1           0       -3.757951    1.305094   -2.082022
     22          1           0       -3.357258    1.399155   -3.798267
     23          1           0       -2.460657    2.377484   -2.625177
     24          1           0       -2.387288   -0.695701   -2.817575
     25          1           0       -1.134039    0.376721   -3.405865
     26          1           0       -0.339197   -0.419588   -1.309131
     27          1           0       -0.784999    1.257441   -1.091702
     28          1           0       -3.090837    0.356070   -0.271761
     29          1           0       -2.586329   -1.952340   -1.114992
     30          1           0       -1.077928   -2.270250    1.530209
     31          1           0       -1.552921   -3.579239    0.445160
     32          1           0       -0.364149   -2.394385   -0.092259
     33          1           0       -4.583302   -1.415881    0.255998
     34          1           0       -3.976978   -3.048137    0.598119
     35          1           0       -3.669512   -1.714565    1.735374
     36          1           0       -0.546580    1.258447    2.579486
     37          1           0        2.884267    3.089272   -0.444786
     38          1           0        4.105526    0.987315   -0.927904
     39          1           0        1.035313   -1.236864    1.076298
     40          1           0        4.836209   -2.329449   -0.988887
     41          1           0       -0.540354    3.328835    0.424426
     42          1           0        0.398674    3.607544    1.883686
     43          1           0        0.976172    4.253572    0.340179
 ---------------------------------------------------------------------

 SCF Done:  E(UB3LYP) =  -904.379587879     A.U. after   30 cycles

 The electronic state is 2-A.
 Alpha  occ. eigenvalues --  -19.02138 -18.97376 -18.94411 -14.22175 -10.16207
 Alpha  occ. eigenvalues --  -10.12694 -10.07860 -10.07808 -10.07369 -10.07265
 Alpha  occ. eigenvalues --  -10.07200 -10.05941 -10.05616 -10.05290 -10.05098
 Alpha  occ. eigenvalues --  -10.03493 -10.03161 -10.02781 -10.02691 -10.02119
 Alpha  occ. eigenvalues --   -0.95626  -0.92831  -0.86076  -0.80787  -0.72364
 Alpha  occ. eigenvalues --   -0.71425  -0.68395  -0.64818  -0.62653  -0.60797
 Alpha  occ. eigenvalues --   -0.58192  -0.57466  -0.56229  -0.50960  -0.49397
 Alpha  occ. eigenvalues --   -0.48879  -0.47377  -0.44949  -0.43813  -0.40171
 Alpha  occ. eigenvalues --   -0.38169  -0.36972  -0.35420  -0.35098  -0.34362
 Alpha  occ. eigenvalues --   -0.34006  -0.33056  -0.32233  -0.31742  -0.31587
 Alpha  occ. eigenvalues --   -0.30653  -0.30246  -0.29958  -0.29432  -0.29296
 Alpha  occ. eigenvalues --   -0.28215  -0.28089  -0.27126  -0.26659  -0.25509
 Alpha  occ. eigenvalues --   -0.25223  -0.24537  -0.24480  -0.23160  -0.22576
 Alpha  occ. eigenvalues --   -0.22458  -0.21457  -0.21115  -0.20930  -0.18166
 Alpha  occ. eigenvalues --   -0.15439  -0.14390  -0.12913  -0.11919  -0.11352
 Alpha  occ. eigenvalues --    0.04355
 Alpha virt. eigenvalues --    0.06445   0.07832   0.08255   0.08793   0.09417
 Alpha virt. eigenvalues --    0.09938   0.10088   0.10485   0.10925   0.11164
 Alpha virt. eigenvalues --    0.11703   0.12174   0.12360   0.12813   0.13024

  Beta  occ. eigenvalues --  -19.02067 -18.97365 -18.94087 -14.22180 -10.16189
  Beta  occ. eigenvalues --  -10.12399 -10.07859 -10.07809 -10.07368 -10.07265
  Beta  occ. eigenvalues --  -10.07258 -10.05939 -10.05614 -10.05326 -10.05096
  Beta  occ. eigenvalues --  -10.03565 -10.02706 -10.02593 -10.02546 -10.01907
  Beta  occ. eigenvalues --   -0.95304  -0.92810  -0.85585  -0.80757  -0.72351
  Beta  occ. eigenvalues --   -0.71023  -0.68388  -0.64270  -0.62634  -0.60521
  Beta  occ. eigenvalues --   -0.58187  -0.57129  -0.56197  -0.50752  -0.49205
  Beta  occ. eigenvalues --   -0.48600  -0.47275  -0.44694  -0.43753  -0.39965
  Beta  occ. eigenvalues --   -0.38150  -0.36941  -0.35232  -0.34981  -0.34242
  Beta  occ. eigenvalues --   -0.33921  -0.32973  -0.31995  -0.31631  -0.31366
  Beta  occ. eigenvalues --   -0.30253  -0.29850  -0.29367  -0.29251  -0.28920
  Beta  occ. eigenvalues --   -0.28174  -0.28063  -0.27048  -0.26617  -0.25265
  Beta  occ. eigenvalues --   -0.25194  -0.24511  -0.24410  -0.23113  -0.22325
  Beta  occ. eigenvalues --   -0.22143  -0.21318  -0.20912  -0.20658  -0.16827
  Beta  occ. eigenvalues --   -0.15218  -0.14362  -0.12573  -0.10940  -0.09661
  Beta virt. eigenvalues --    0.06376   0.07757   0.08191   0.08713   0.09362
  Beta virt. eigenvalues --    0.09890   0.09953   0.10193   0.10703   0.10911
  Beta virt. eigenvalues --    0.11258   0.11934   0.12161   0.12376   0.12776

 Mulliken charges and spin densities:
               1          2
     1  C   -0.441038  -0.147255
     2  C   -0.284323   0.116653
     3  C   -0.459815  -0.061592
     4  C    0.565578   0.037083
     5  C    0.194571  -0.007493
     6  C   -0.637826   0.001544
     7  C   -0.625190  -0.046345
     8  C   -0.486598   0.013801
     9  O   -0.263824   0.004724
    10  N   -0.324946  -0.015023
    11  C    0.186573  -0.004741
    12  C    0.282602   0.270393
    13  C   -0.527012  -0.031506
    14  C   -0.498343   0.213479
    15  C    0.086747   0.053083
    16  C   -0.161825   0.137703
    17  C   -0.045349   0.166090
    18  O   -0.405615   0.116247
    19  O   -0.221682   0.016183
    20  C   -0.457262  -0.039929
    21  H    0.087846   0.046714
    22  H    0.057583   0.076537
    23  H    0.103202   0.029996
    24  H    0.103503   0.008329
    25  H    0.132616   0.021259
    26  H    0.201465  -0.015118
    27  H    0.186749  -0.041785
    28  H    0.237429  -0.014751
    29  H    0.135624   0.012168
    30  H    0.168803   0.000517
    31  H    0.140804   0.002455
    32  H    0.171134   0.005250
    33  H    0.092471   0.019300
    34  H    0.108474   0.006213
    35  H    0.187146  -0.002457
    36  H    0.309659  -0.000851
    37  H    0.107590   0.003637
    38  H    0.160421  -0.010147
    39  H    0.208436  -0.001904
    40  H    0.257509  -0.001267
    41  H    0.116155   0.033500
    42  H    0.131766   0.022629
    43  H    0.118190   0.006675
 Sum of Mulliken charges =  -1.00000   1.00000

 Dipole moment (field-independent basis, Debye):
    X=             -3.7115    Y=              1.4045    Z=             -2.4871  Tot=              4.6834
 Quadrupole moment (field-independent basis, Debye-Ang):
   XX=           -173.6711   YY=           -148.0562   ZZ=           -140.8058
   XY=              7.4294   XZ=              6.0011   YZ=              1.9259

 Summary of Natural Population Analysis:

                                       Natural Population
                Natural  -----------------------------------------------
    Atom  No    Charge         Core      Valence    Rydberg      Total
 -----------------------------------------------------------------------
      C    1   -0.28719      0.99967     2.28313    0.00439     3.28719
      C    2   -0.18700      0.99964     2.18028    0.00708     3.18700
      C    3   -0.19797      0.99961     2.18994    0.00841     3.19797
      C    4   -0.14568      0.99952     2.13418    0.01198     3.14568
      C    5   -0.10716      0.99960     2.09813    0.00942     3.10716
      C    6   -0.28983      0.99965     2.28501    0.00517     3.28983
      C    7   -0.28434      0.99965     2.27983    0.00486     3.28434
      C    8    0.35419      0.99963     1.62310    0.02308     2.64581
      O    9   -0.33952      0.99988     3.33357    0.00607     4.33952
      N   10   -0.31637      0.99964     2.80506    0.01167     3.81637
      C   11    0.03832      0.99941     1.95036    0.01191     2.96168
      C   12    0.05702      0.99947     1.93450    0.00901     2.94298
      C   13   -0.12667      0.99954     2.11918    0.00796     3.12667
      C   14   -0.04332      0.99955     2.03563    0.00814     3.04332
      C   15   -0.05310      0.99945     2.04154    0.01210     3.05310
      C   16   -0.05245      0.99949     2.04545    0.00751     3.05245
      C   17    0.43192      0.99966     1.54477    0.02365     2.56808
      O   18   -0.30533      0.99987     3.29851    0.00695     4.30533
      O   19   -0.35549      0.99988     3.34768    0.00794     4.35549
      C   20   -0.29494      0.99965     2.29090    0.00439     3.29494
      H   21    0.09524      0.00000     0.40380    0.00095     0.40476
      H   22    0.09476      0.00000     0.40424    0.00100     0.40524
      H   23    0.09657      0.00000     0.40236    0.00107     0.40343
      H   24    0.09020      0.00000     0.40829    0.00151     0.40980
      H   25    0.09658      0.00000     0.40235    0.00107     0.40342
      H   26    0.11098      0.00000     0.38790    0.00112     0.38902
      H   27    0.10518      0.00000     0.39272    0.00210     0.39482
      H   28    0.10654      0.00000     0.39130    0.00216     0.39346
      H   29    0.08992      0.00000     0.40780    0.00228     0.41008
      H   30    0.09960      0.00000     0.39961    0.00079     0.40040
      H   31    0.09499      0.00000     0.40421    0.00080     0.40501
      H   32    0.11104      0.00000     0.38811    0.00085     0.38896
      H   33    0.09460      0.00000     0.40449    0.00090     0.40540
      H   34    0.09078      0.00000     0.40834    0.00088     0.40922
      H   35    0.11043      0.00000     0.38865    0.00091     0.38957
      H   36    0.19190      0.00000     0.30650    0.00160     0.30810
      H   37    0.08930      0.00000     0.40940    0.00130     0.41070
      H   38    0.09925      0.00000     0.39977    0.00098     0.40075
      H   39    0.10812      0.00000     0.39055    0.00133     0.39188
      H   40    0.23043      0.00000     0.26639    0.00319     0.26957
      H   41    0.10256      0.00000     0.39636    0.00108     0.39744
      H   42    0.09963      0.00000     0.39932    0.00105     0.40037
      H   43    0.09630      0.00000     0.40293    0.00077     0.40370
 =======================================================================
   * Total *    0.00000     19.99247    54.78612    0.22140    75.00000

 Normal termination of Gaussian 16 at Mon Dec 14 15:57:27 2020.
