 Gaussian 16, Revision A.03,

 -----------------------------------------------------------
 # opt freq B3LYP/6-31G(d) empiricaldispersion=gd3bj scf=xqc
 -----------------------------------------------------------

 ------------------------------
 CID_12307003_JID_7616_neutraal
 ------------------------------
 Symbolic Z-matrix:
 Charge =  0 Multiplicity = 1

 SCF Done:  E(RB3LYP) =  -820.770670730     A.U. after   15 cycles
 SCF Done:  E(RB3LYP) =  -820.780568642     A.U. after   12 cycles
 SCF Done:  E(RB3LYP) =  -820.781556899     A.U. after   12 cycles
 SCF Done:  E(RB3LYP) =  -820.782148359     A.U. after   12 cycles
 SCF Done:  E(RB3LYP) =  -820.782398524     A.U. after   11 cycles
 SCF Done:  E(RB3LYP) =  -820.782949394     A.U. after   12 cycles
 SCF Done:  E(RB3LYP) =  -820.783348688     A.U. after   13 cycles
 SCF Done:  E(RB3LYP) =  -820.783707402     A.U. after   12 cycles
 SCF Done:  E(RB3LYP) =  -820.784202751     A.U. after   12 cycles
 SCF Done:  E(RB3LYP) =  -820.784265582     A.U. after   11 cycles
 SCF Done:  E(RB3LYP) =  -820.784974732     A.U. after   10 cycles
 SCF Done:  E(RB3LYP) =  -820.784977752     A.U. after    8 cycles
 SCF Done:  E(RB3LYP) =  -820.784979804     A.U. after    9 cycles
 SCF Done:  E(RB3LYP) =  -820.784980039     A.U. after    8 cycles
 SCF Done:  E(RB3LYP) =  -820.784980071     A.U. after    7 cycles
 Optimization completed.
    -- Stationary point found.
 Normal termination of Gaussian 16 at Fri Dec 11 13:08:32 2020.

 --------------------------------------------------------------------
 #N Geom=AllCheck Guess=TCheck SCRF=Check GenChk RB3LYP/6-31G(d) Freq
 --------------------------------------------------------------------

 Structure from the checkpoint file:  "JID_7616.chk"
 ------------------------------
 CID_12307003_JID_7616_neutraal
 ------------------------------
 Charge =  0 Multiplicity = 1

 SCF Done:  E(RB3LYP) =  -820.784980071     A.U. after    1 cycles

  Exact polarizability: 254.075   2.467 148.869   0.908   3.749  70.632
 Approx polarizability: 345.218   8.392 246.630   5.202  13.931 107.760

                      1                      2                      3
                      A                      A                      A
 Frequencies --     20.8134                46.3946                71.0813
 Red. masses --      4.7125                 4.0604                 2.8884
 Frc consts  --      0.0012                 0.0051                 0.0086
 IR Inten    --      3.7542                 1.1844                 2.7521

                      4                      5                      6
                      A                      A                      A
 Frequencies --     88.7736                93.9788               111.3118
 Red. masses --      3.5457                 3.5882                 1.1941
 Frc consts  --      0.0165                 0.0187                 0.0087
 IR Inten    --      0.4729                 2.1632                 0.0444

                      7                      8                      9
                      A                      A                      A
 Frequencies --    130.8932               149.0543               166.9737
 Red. masses --      2.7875                 1.7170                 1.8640
 Frc consts  --      0.0281                 0.0225                 0.0306
 IR Inten    --      2.5606                 0.9792                 1.4029

                     10                     11                     12
                      A                      A                      A
 Frequencies --    197.2318               218.4010               248.7905
 Red. masses --      4.4357                 4.2512                 1.9934
 Frc consts  --      0.1017                 0.1195                 0.0727
 IR Inten    --      0.2589                 0.6370                 0.6487

                     13                     14                     15
                      A                      A                      A
 Frequencies --    256.5932               279.5714               293.7143
 Red. masses --      2.6798                 2.5838                 5.2269
 Frc consts  --      0.1040                 0.1190                 0.2657
 IR Inten    --      0.2340                 0.5452                 3.2485

                     16                     17                     18
                      A                      A                      A
 Frequencies --    332.6463               337.8260               384.2179
 Red. masses --      5.1417                 4.7159                 4.8617
 Frc consts  --      0.3352                 0.3171                 0.4229
 IR Inten    --      3.2463                 9.9310                 2.0678

                     19                     20                     21
                      A                      A                      A
 Frequencies --    395.1445               481.6953               519.0760
 Red. masses --      4.6084                 4.2184                 4.0824
 Frc consts  --      0.4239                 0.5767                 0.6481
 IR Inten    --      1.8745                 3.6334                 1.5788

                     22                     23                     24
                      A                      A                      A
 Frequencies --    569.7692               604.2315               627.5745
 Red. masses --      5.4363                 5.6351                 4.4302
 Frc consts  --      1.0398                 1.2122                 1.0280
 IR Inten    --      1.8118                 1.3969                 5.4439

                     25                     26                     27
                      A                      A                      A
 Frequencies --    632.9798               656.4473               685.6439
 Red. masses --      7.0222                 2.7768                 7.4155
 Frc consts  --      1.6577                 0.7050                 2.0539
 IR Inten    --     14.5298                 1.9464                37.7022

                     28                     29                     30
                      A                      A                      A
 Frequencies --    725.7023               734.8376               744.5619
 Red. masses --      2.0228                 4.1684                 4.5179
 Frc consts  --      0.6276                 1.3262                 1.4757
 IR Inten    --     39.4437                 2.2620                 4.1626

                     31                     32                     33
                      A                      A                      A
 Frequencies --    772.9165               811.0881               826.4386
 Red. masses --      4.9405                 1.5753                 7.9851
 Frc consts  --      1.7389                 0.6106                 3.2133
 IR Inten    --     27.0795                27.1952                 1.8705

                     34                     35                     36
                      A                      A                      A
 Frequencies --    889.3005               909.3877               922.3954
 Red. masses --      6.0449                 1.2805                 1.4088
 Frc consts  --      2.8167                 0.6239                 0.7062
 IR Inten    --      5.7722                 1.6466                11.6076

                     37                     38                     39
                      A                      A                      A
 Frequencies --    964.0103              1053.7821              1067.7634
 Red. masses --      5.7456                 6.2929                 3.3589
 Frc consts  --      3.1459                 4.1172                 2.2563
 IR Inten    --      4.3827                74.3212                27.6975

                     40                     41                     42
                      A                      A                      A
 Frequencies --   1077.5930              1082.5515              1108.7461
 Red. masses --      2.4107                 4.3299                 2.8186
 Frc consts  --      1.6493                 2.9897                 2.0415
 IR Inten    --    123.4509                 4.9136                11.5292

                     43                     44                     45
                      A                      A                      A
 Frequencies --   1167.4007              1173.9426              1185.6453
 Red. masses --      1.2813                 1.8065                 1.2611
 Frc consts  --      1.0288                 1.4668                 1.0445
 IR Inten    --      0.2321                95.7090                 4.0881

                     46                     47                     48
                      A                      A                      A
 Frequencies --   1186.5652              1204.2249              1221.0120
 Red. masses --      1.2653                 1.6602                 1.4494
 Frc consts  --      1.0496                 1.4185                 1.2731
 IR Inten    --      2.0435                71.7032                13.9798

                     49                     50                     51
                      A                      A                      A
 Frequencies --   1223.7330              1260.1469              1283.0877
 Red. masses --      1.3889                 2.4781                 1.7309
 Frc consts  --      1.2254                 2.3185                 1.6789
 IR Inten    --      8.6981                92.9466                21.0259

                     52                     53                     54
                      A                      A                      A
 Frequencies --   1319.6062              1346.6190              1352.5949
 Red. masses --      2.8584                 3.5119                 4.6622
 Frc consts  --      2.9326                 3.7521                 5.0255
 IR Inten    --    320.1220                60.0209                12.2661

                     55                     56                     57
                      A                      A                      A
 Frequencies --   1375.1329              1430.1397              1458.2328
 Red. masses --      7.5092                 3.8210                 1.9530
 Frc consts  --      8.3663                 4.6046                 2.4469
 IR Inten    --     99.2483               121.8010                63.1877

                     58                     59                     60
                      A                      A                      A
 Frequencies --   1483.8449              1497.8703              1507.4998
 Red. masses --      1.4448                 1.2850                 1.4514
 Frc consts  --      1.8743                 1.6987                 1.9433
 IR Inten    --    108.9900                 0.9291                29.4721

                     61                     62                     63
                      A                      A                      A
 Frequencies --   1515.7697              1521.1660              1522.7698
 Red. masses --      1.0590                 1.0479                 1.0431
 Frc consts  --      1.4335                 1.4286                 1.4251
 IR Inten    --      7.3357                 5.9679                 8.5274

                     64                     65                     66
                      A                      A                      A
 Frequencies --   1534.7846              1538.4834              1540.5854
 Red. masses --      1.0711                 1.0656                 1.0508
 Frc consts  --      1.4866                 1.4860                 1.4695
 IR Inten    --     61.7346                22.7793                 4.5346

                     67                     68                     69
                      A                      A                      A
 Frequencies --   1565.7235              1626.5854              1668.6943
 Red. masses --      2.8622                 6.5630                 6.0631
 Frc consts  --      4.1341                10.2308                 9.9472
 IR Inten    --    187.2112                 9.3934                18.7681

                     70                     71                     72
                      A                      A                      A
 Frequencies --   1697.0121              1882.3046              3027.8808
 Red. masses --      7.3413                12.1420                 1.0348
 Frc consts  --     12.4564                25.3466                 5.5894
 IR Inten    --      7.6419               771.3394                67.3059

                     73                     74                     75
                      A                      A                      A
 Frequencies --   3037.1252              3053.7903              3088.0105
 Red. masses --      1.0383                 1.0352                 1.1066
 Frc consts  --      5.6426                 5.6879                 6.2173
 IR Inten    --     66.7673                82.9110                40.8176

                     76                     77                     78
                      A                      A                      A
 Frequencies --   3111.0415              3114.9620              3156.8288
 Red. masses --      1.1065                 1.0974                 1.1049
 Frc consts  --      6.3099                 6.2737                 6.4873
 IR Inten    --     26.4170                35.9913                27.9236

                     79                     80                     81
                      A                      A                      A
 Frequencies --   3162.9978              3174.1669              3194.3106
 Red. masses --      1.0999                 1.1002                 1.0887
 Frc consts  --      6.4836                 6.5310                 6.5450
 IR Inten    --     25.4655                 0.5923                10.7381

                     82                     83                     84
                      A                      A                      A
 Frequencies --   3229.3129              3238.4392              3301.3147
 Red. masses --      1.0914                 1.0910                 1.0984
 Frc consts  --      6.7061                 6.7412                 7.0533
 IR Inten    --     13.0860                 0.2293                10.8779

 - Thermochemistry -
 -------------------
 Temperature   298.150 Kelvin.  Pressure   1.00000 Atm.
 Atom     1 has atomic number  6 and mass  12.00000

 Molecular mass:   235.08446 amu.
 Principal axes and moments of inertia in atomic units:
                           1         2         3
     Eigenvalues --  1541.256618471.957109886.55720
           X            0.99995   0.00902  -0.00294
           Y           -0.00905   0.99990  -0.01040
           Z            0.00285   0.01042   0.99994
 This molecule is an asymmetric top.
 Rotational symmetry number  1.
 Warning -- assumption of classical behavior for rotation
           may cause significant error
 Rotational temperatures (Kelvin)      0.05620     0.01022     0.00876
 Rotational constants (GHZ):           1.17095     0.21303     0.18254
 Zero-point vibrational energy     624888.9 (Joules/Mol)
                                  149.35203 (Kcal/Mol)
 Warning -- explicit consideration of  23 degrees of freedom as
           vibrations may cause significant error
 Vibrational temperatures:     29.95    66.75   102.27   127.73   135.21
          (Kelvin)            160.15   188.33   214.46   240.24   283.77
                              314.23   357.95   369.18   402.24   422.59
                              478.60   486.06   552.80   568.52   693.05
                              746.83   819.77   869.35   902.94   910.72
                              944.48   986.49  1044.12  1057.27  1071.26
                             1112.05  1166.97  1189.06  1279.51  1308.41
                             1327.12  1387.00  1516.16  1536.27  1550.42
                             1557.55  1595.24  1679.63  1689.04  1705.88
                             1707.20  1732.61  1756.76  1760.68  1813.07
                             1846.08  1898.62  1937.48  1946.08  1978.51
                             2057.65  2098.07  2134.92  2155.10  2168.96
                             2180.85  2188.62  2190.93  2208.21  2213.53
                             2216.56  2252.73  2340.29  2400.88  2441.62
                             2708.22  4356.45  4369.75  4393.72  4442.96
                             4476.09  4481.74  4541.97  4550.85  4566.92
                             4595.90  4646.26  4659.39  4749.86

 Zero-point correction=                           0.238008 (Hartree/Particle)
 Thermal correction to Energy=                    0.254293
 Thermal correction to Enthalpy=                  0.255237
 Thermal correction to Gibbs Free Energy=         0.192817
 Sum of electronic and zero-point Energies=           -820.546972
 Sum of electronic and thermal Energies=              -820.530687
 Sum of electronic and thermal Enthalpies=            -820.529743
 Sum of electronic and thermal Free Energies=         -820.592163

                     E (Thermal)             CV                S
                      KCal/Mol        Cal/Mol-Kelvin    Cal/Mol-Kelvin
 Total                  159.571             59.475            131.376
 Electronic               0.000              0.000              0.000
 Translational            0.889              2.981             42.266
 Rotational               0.889              2.981             33.223
 Vibrational            157.794             53.514             55.887
 Vibration     1          0.593              1.986              6.555
 Vibration     2          0.595              1.979              4.965
 Vibration     3          0.598              1.968              4.123
 Vibration     4          0.602              1.957              3.687
 Vibration     5          0.603              1.953              3.575
 Vibration     6          0.607              1.940              3.246
 Vibration     7          0.612              1.922              2.933
 Vibration     8          0.618              1.904              2.684
 Vibration     9          0.624              1.883              2.469
 Vibration    10          0.637              1.844              2.159
 Vibration    11          0.646              1.813              1.972
 Vibration    12          0.662              1.765              1.739
 Vibration    13          0.666              1.752              1.685
 Vibration    14          0.680              1.711              1.536
 Vibration    15          0.689              1.685              1.452
 Vibration    16          0.715              1.610              1.247
 Vibration    17          0.718              1.600              1.222
 Vibration    18          0.753              1.504              1.023
 Vibration    19          0.762              1.481              0.981
 Vibration    20          0.838              1.291              0.706
 Vibration    21          0.874              1.208              0.612
 Vibration    22          0.926              1.097              0.505
 Vibration    23          0.963              1.023              0.442

 Optimization completed on the basis of negligible forces.
    -- Stationary point found.
 Normal termination of Gaussian 16 at Fri Dec 11 13:17:38 2020.

 ----------------------------------------------------------------------
 # B3LYP/6-311++G(d,p) empiricaldispersion=gd3bj scf=xqc pop=npa geom=c
 heck
 ----------------------------------------------------------------------

 --------------------------------------
 CID_12307003_JID_7616_Energie_neutraal
 --------------------------------------
 Structure from the checkpoint file:  "JID_7616.chk"
 Charge =  0 Multiplicity = 1

 SCF Done:  E(RB3LYP) =  -821.013200750     A.U. after   16 cycles
 Normal termination of Gaussian 16 at Fri Dec 11 13:22:11 2020.

 ----------------------------------------------------------------------
 # B3LYP/6-311++G(d,p) empiricaldispersion=gd3bj scf=xqc pop=npa geom=c
 heck
 ----------------------------------------------------------------------

 ------------------------------------
 CID_12307003_JID_7616_Energie_kation
 ------------------------------------
 Structure from the checkpoint file:  "JID_7616.chk"
 Charge =  1 Multiplicity = 2

 SCF Done:  E(UB3LYP) =  -820.750624466     A.U. after   22 cycles
 Normal termination of Gaussian 16 at Fri Dec 11 13:30:52 2020.
 Gaussian 16:  ES64L-G16RevA.03 25-Dec-2016

 ----------------------------------------------------------------------
 # B3LYP/6-311++G(d,p) empiricaldispersion=gd3bj scf=xqc pop=npa geom=c
 heck
 ----------------------------------------------------------------------

 -----------------------------------
 CID_12307003_JID_7616_Energie_anion
 -----------------------------------
 Structure from the checkpoint file:  "JID_7616.chk"
 Charge = -1 Multiplicity = 2

                         Standard orientation:
 ---------------------------------------------------------------------
 Center     Atomic      Atomic             Coordinates (Angstroms)
 Number     Number       Type             X           Y           Z
 ---------------------------------------------------------------------
      1          6           0       -5.142677   -1.089774   -0.130052
      2          7           0       -3.812405   -0.525115   -0.060923
      3          6           0       -2.597118   -1.209362   -0.089950
      4          6           0       -1.612340   -0.288933    0.002662
      5          8           0       -2.199867    0.968669    0.091463
      6          6           0       -3.575119    0.829510    0.052758
      7          8           0       -4.363889    1.744497    0.109590
      8          6           0       -0.163523   -0.364041    0.026859
      9          6           0        0.605500    0.800815    0.193494
     10          6           0        1.991427    0.745781    0.226562
     11          6           0        2.653059   -0.494526    0.091427
     12          6           0        1.891874   -1.654175   -0.087402
     13          6           0        0.501125   -1.588338   -0.119660
     14          8           0        4.014484   -0.461031    0.155575
     15          6           0        4.713859   -1.690812    0.057139
     16          8           0        2.692877    1.902867    0.451309
     17          6           0        3.464455    2.371354   -0.656663
     18          1           0       -5.289721   -1.628787   -1.072422
     19          1           0       -5.848157   -0.259305   -0.075091
     20          1           0       -5.320735   -1.772946    0.707652
     21          1           0       -2.549994   -2.283689   -0.169112
     22          1           0        0.126727    1.765958    0.309001
     23          1           0        2.377022   -2.616723   -0.196946
     24          1           0       -0.065097   -2.504239   -0.260667
     25          1           0        4.430314   -2.377580    0.864958
     26          1           0        4.536817   -2.178674   -0.910403
     27          1           0        5.771808   -1.440564    0.148743
     28          1           0        4.252305    1.660604   -0.923932
     29          1           0        2.820526    2.553280   -1.527166
     30          1           0        3.913053    3.313458   -0.334694
 ---------------------------------------------------------------------

 SCF Done:  E(UB3LYP) =  -821.008405211     A.U. after   33 cycles
 SCF Done:  E(UB3LYP) =  -821.008405211     a.u. after    1 cycles

 The electronic state is 2-A.
 Alpha  occ. eigenvalues --  -19.07938 -19.05592 -19.04013 -18.99921 -14.26897
 Alpha  occ. eigenvalues --  -10.21747 -10.12860 -10.12444 -10.12426 -10.12161
 Alpha  occ. eigenvalues --  -10.12113 -10.12015 -10.09864 -10.07593 -10.07207
 Alpha  occ. eigenvalues --  -10.06722 -10.06590  -1.02937  -0.97698  -0.95110
 Alpha  occ. eigenvalues --   -0.93272  -0.86161  -0.75456  -0.68785  -0.65965
 Alpha  occ. eigenvalues --   -0.65315  -0.63074  -0.60387  -0.58207  -0.54138
 Alpha  occ. eigenvalues --   -0.51418  -0.48880  -0.48629  -0.44323  -0.42475
 Alpha  occ. eigenvalues --   -0.40441  -0.40028  -0.39795  -0.37915  -0.37083
 Alpha  occ. eigenvalues --   -0.36132  -0.35606  -0.34689  -0.34544  -0.34471
 Alpha  occ. eigenvalues --   -0.33713  -0.32107  -0.31613  -0.29832  -0.28655
 Alpha  occ. eigenvalues --   -0.28080  -0.26759  -0.26473  -0.25648  -0.23219
 Alpha  occ. eigenvalues --   -0.22742  -0.22189  -0.19331  -0.18440  -0.15324
 Alpha  occ. eigenvalues --   -0.14029  -0.09255   0.03917
 Alpha virt. eigenvalues --    0.05541   0.06036   0.07214   0.07913   0.08954
 Alpha virt. eigenvalues --    0.09085   0.09396   0.09839   0.10567   0.10917
 Alpha virt. eigenvalues --    0.11027   0.11621   0.12209   0.12797   0.13719

  Beta  occ. eigenvalues --  -19.07908 -19.05554 -19.04015 -18.99923 -14.26879
  Beta  occ. eigenvalues --  -10.21748 -10.12821 -10.12382 -10.12282 -10.12133
  Beta  occ. eigenvalues --  -10.12099 -10.12024 -10.09729 -10.07511 -10.07242
  Beta  occ. eigenvalues --  -10.06615 -10.06561  -1.02889  -0.97612  -0.95091
  Beta  occ. eigenvalues --   -0.93258  -0.86083  -0.75301  -0.68586  -0.65840
  Beta  occ. eigenvalues --   -0.65223  -0.62976  -0.60320  -0.58090  -0.53958
  Beta  occ. eigenvalues --   -0.51364  -0.48802  -0.48508  -0.44265  -0.42381
  Beta  occ. eigenvalues --   -0.40345  -0.39887  -0.39734  -0.37771  -0.36969
  Beta  occ. eigenvalues --   -0.36103  -0.35536  -0.34661  -0.34505  -0.34378
  Beta  occ. eigenvalues --   -0.33663  -0.32056  -0.31571  -0.29756  -0.28437
  Beta  occ. eigenvalues --   -0.27947  -0.26687  -0.26307  -0.25528  -0.23141
  Beta  occ. eigenvalues --   -0.22433  -0.21888  -0.19322  -0.18400  -0.14992
  Beta  occ. eigenvalues --   -0.13691  -0.08681
  Beta virt. eigenvalues --    0.06201   0.06402   0.07180   0.07596   0.08335
  Beta virt. eigenvalues --    0.09133   0.09615   0.09888   0.10082   0.10525
  Beta virt. eigenvalues --    0.11038   0.11175   0.11641   0.12280   0.13072

 Mulliken charges and spin densities:
               1          2
     1  C    0.386149  -0.696541
     2  N   -0.253520   0.106443
     3  C    0.342027  -0.218960
     4  C   -0.052044  -0.120684
     5  O   -0.094108   0.013649
     6  C    0.426593   0.076280
     7  O   -0.425710  -0.000935
     8  C    1.384291  -0.230844
     9  C   -0.294735   0.133385
    10  C   -0.677890   0.072286
    11  C   -0.382141   0.462649
    12  C   -0.239422  -0.282486
    13  C   -0.276811  -0.225491
    14  O   -0.235471   0.053454
    15  C    0.597393  -0.921152
    16  O   -0.165244   0.012355
    17  C   -0.132173  -0.167376
    18  H   -0.401559   0.574921
    19  H    0.101792   0.081031
    20  H    0.058629   0.086487
    21  H   -0.075073   0.259548
    22  H    0.192164   0.003394
    23  H   -0.043906   0.248145
    24  H   -0.267690   0.324539
    25  H   -0.161459   0.309821
    26  H   -0.129121   0.283027
    27  H   -0.405797   0.575266
    28  H    0.084944   0.076371
    29  H    0.053909   0.067212
    30  H    0.085982   0.044206
 Sum of Mulliken charges =  -1.00000   1.00000

 Dipole moment (field-independent basis, Debye):
    X=              0.2171    Y=              1.1467    Z=              1.0826  Tot=              1.5918
 Quadrupole moment (field-independent basis, Debye-Ang):
   XX=           -194.8891   YY=           -137.5621   ZZ=           -121.3996
   XY=             14.4916   XZ=            -10.4955   YZ=             -8.4140

 Summary of Natural Population Analysis:

                                       Natural Population
                Natural  -----------------------------------------------
    Atom  No    Charge         Core      Valence    Rydberg      Total
 -----------------------------------------------------------------------
      C    1   -0.17574      0.99965     2.16807    0.00803     3.17574
      N    2   -0.23905      0.99964     2.73041    0.00900     3.73905
      C    3   -0.01148      0.99949     2.00163    0.01036     3.01148
      C    4    0.14565      0.99942     1.84127    0.01366     2.85435
      O    5   -0.25569      0.99985     3.24959    0.00624     4.25569
      C    6    0.44992      0.99967     1.52443    0.02597     2.55008
      O    7   -0.32879      0.99987     3.32350    0.00542     4.32879
      C    8   -0.04851      0.99949     2.03983    0.00919     3.04851
      C    9   -0.09759      0.99950     2.08999    0.00810     3.09759
      C   10    0.12913      0.99934     1.85664    0.01489     2.87087
      C   11    0.16171      0.99935     1.82609    0.01285     2.83829
      C   12   -0.14861      0.99954     2.14040    0.00867     3.14861
      C   13   -0.06578      0.99955     2.05795    0.00828     3.06578
      O   14   -0.27208      0.99986     3.26176    0.01047     4.27208
      C   15   -0.10018      0.99960     2.09136    0.00922     3.10018
      O   16   -0.28799      0.99986     3.27806    0.01007     4.28799
      C   17   -0.09672      0.99959     2.08925    0.00788     3.09672
      H   18    0.10034      0.00000     0.39709    0.00256     0.39966
      H   19    0.11158      0.00000     0.38739    0.00102     0.38842
      H   20    0.09277      0.00000     0.40632    0.00091     0.40723
      H   21    0.10703      0.00000     0.39202    0.00095     0.39297
      H   22    0.11124      0.00000     0.38741    0.00135     0.38876
      H   23    0.10462      0.00000     0.39411    0.00127     0.39538
      H   24    0.09795      0.00000     0.40061    0.00143     0.40205
      H   25    0.08592      0.00000     0.41237    0.00170     0.41408
      H   26    0.08317      0.00000     0.41543    0.00140     0.41683
      H   27    0.09327      0.00000     0.40555    0.00119     0.40673
      H   28    0.08943      0.00000     0.40857    0.00201     0.41057
      H   29    0.07944      0.00000     0.41899    0.00156     0.42056
      H   30    0.08504      0.00000     0.41386    0.00110     0.41496
 =======================================================================
   * Total *    0.00000     16.99328    44.80997    0.19676    62.00000

 Normal termination of Gaussian 16 at Fri Dec 11 13:43:50 2020.
