 Gaussian 16, Revision A.03,

 -----------------------------------------------------------
 # opt freq B3LYP/6-31G(d) empiricaldispersion=gd3bj scf=xqc
 -----------------------------------------------------------

 ----------------------------
 CID_82896027_JID_54_neutraal
 ----------------------------
 Symbolic Z-matrix:
 Charge =  0 Multiplicity = 1

 SCF Done:  E(RB3LYP) =  -456.275310295     A.U. after   15 cycles
 SCF Done:  E(RB3LYP) =  -456.277818171     A.U. after   14 cycles
 SCF Done:  E(RB3LYP) =  -456.277780318     A.U. after   13 cycles
 SCF Done:  E(RB3LYP) =  -456.278842990     A.U. after   13 cycles
 SCF Done:  E(RB3LYP) =  -456.279695400     A.U. after   13 cycles
 SCF Done:  E(RB3LYP) =  -456.279907400     A.U. after   12 cycles
 SCF Done:  E(RB3LYP) =  -456.280004345     A.U. after   13 cycles
 SCF Done:  E(RB3LYP) =  -456.280058579     A.U. after   11 cycles
 SCF Done:  E(RB3LYP) =  -456.280090140     A.U. after   11 cycles
 SCF Done:  E(RB3LYP) =  -456.280103874     A.U. after   10 cycles
 SCF Done:  E(RB3LYP) =  -456.280111707     A.U. after    9 cycles
 SCF Done:  E(RB3LYP) =  -456.280119586     A.U. after   10 cycles
 SCF Done:  E(RB3LYP) =  -456.280125928     A.U. after   10 cycles
 SCF Done:  E(RB3LYP) =  -456.280126662     A.U. after    9 cycles
 Optimization completed.
    -- Stationary point found.
 Normal termination of Gaussian 16 at Tue Dec  8 10:16:04 2020.

 --------------------------------------------------------------------
 #N Geom=AllCheck Guess=TCheck SCRF=Check GenChk RB3LYP/6-31G(d) Freq
 --------------------------------------------------------------------

 Structure from the checkpoint file:  "JID_54.chk"
 ----------------------------
 CID_82896027_JID_54_neutraal
 ----------------------------
 Charge =  0 Multiplicity = 1

 SCF Done:  E(RB3LYP) =  -456.280126662     A.U. after    1 cycles

  Exact polarizability: 105.254  -0.845  91.910   5.922   5.415  54.789
 Approx polarizability: 160.999   6.303 157.000  19.684  18.462  91.189

                      1                      2                      3
                      A                      A                      A
 Frequencies --     59.0806               112.8981               142.9064
 Red. masses --      4.2375                 1.2094                 4.2358
 Frc consts  --      0.0087                 0.0091                 0.0510
 IR Inten    --      0.7696                 0.4428                 3.1761

                      4                      5                      6
                      A                      A                      A
 Frequencies --    157.4446               187.3812               221.0542
 Red. masses --      2.5933                 4.2657                 2.4917
 Frc consts  --      0.0379                 0.0882                 0.0717
 IR Inten    --      2.2048                 1.6045                 2.2572

                      7                      8                      9
                      A                      A                      A
 Frequencies --    273.1767               349.3701               415.8695
 Red. masses --      3.9451                 3.9403                 2.5328
 Frc consts  --      0.1735                 0.2834                 0.2581
 IR Inten    --      0.9733                 3.1330                 2.5036

                     10                     11                     12
                      A                      A                      A
 Frequencies --    518.1065               540.9692               614.0306
 Red. masses --      2.3552                 3.8366                 5.0392
 Frc consts  --      0.3725                 0.6615                 1.1194
 IR Inten    --      1.7322                20.1371                 0.9328

                     13                     14                     15
                      A                      A                      A
 Frequencies --    660.2257               682.0214               712.6646
 Red. masses --      3.5387                 3.4135                 4.4619
 Frc consts  --      0.9088                 0.9355                 1.3352
 IR Inten    --     17.4927                 2.8328                 1.9538

                     16                     17                     18
                      A                      A                      A
 Frequencies --    804.4031               820.0203               879.3943
 Red. masses --      2.8974                 1.5434                 1.4668
 Frc consts  --      1.1046                 0.6115                 0.6683
 IR Inten    --     15.1959                22.9742                 5.9712

                     19                     20                     21
                      A                      A                      A
 Frequencies --    927.3762               983.0248               986.9236
 Red. masses --      5.2372                 1.3968                 1.7860
 Frc consts  --      2.6538                 0.7953                 1.0249
 IR Inten    --     29.6309                17.7481                54.8052

                     22                     23                     24
                      A                      A                      A
 Frequencies --   1037.8278              1089.3688              1139.9451
 Red. masses --      1.0985                 1.6313                 2.2631
 Frc consts  --      0.6971                 1.1406                 1.7327
 IR Inten    --     16.6529                 4.2152                 4.1132

                     25                     26                     27
                      A                      A                      A
 Frequencies --   1160.3141              1166.9982              1257.5894
 Red. masses --      1.3019                 1.9243                 2.4220
 Frc consts  --      1.0327                 1.5441                 2.2568
 IR Inten    --      1.5791                58.5645                13.4649

                     28                     29                     30
                      A                      A                      A
 Frequencies --   1266.6320              1316.7500              1345.9704
 Red. masses --      1.9359                 1.3434                 3.6553
 Frc consts  --      1.8300                 1.3723                 3.9016
 IR Inten    --     31.4471                 0.2342                59.5952

                     31                     32                     33
                      A                      A                      A
 Frequencies --   1384.9882              1407.2101              1459.1633
 Red. masses --      4.4478                 9.5923                 1.3202
 Frc consts  --      5.0267                11.1916                 1.6562
 IR Inten    --      0.8214                59.9255                21.9442

                     34                     35                     36
                      A                      A                      A
 Frequencies --   1470.7391              1511.8591              1520.5123
 Red. masses --      1.5473                 1.1426                 1.6210
 Frc consts  --      1.9720                 1.5387                 2.2081
 IR Inten    --     24.0628                22.9108                63.6182

                     37                     38                     39
                      A                      A                      A
 Frequencies --   1538.3498              1581.3777              1696.9641
 Red. masses --      1.1842                 4.5496                 4.4193
 Frc consts  --      1.6512                 6.7033                 7.4980
 IR Inten    --      5.1485               119.3570                24.0239

                     40                     41                     42
                      A                      A                      A
 Frequencies --   1734.2999              3081.8673              3156.4509
 Red. masses --     10.4163                 1.0318                 1.1056
 Frc consts  --     18.4592                 5.7737                 6.4901
 IR Inten    --    178.8215                31.6665                10.6907

                     43                     44                     45
                      A                      A                      A
 Frequencies --   3164.1335              3166.0244              3193.2166
 Red. masses --      1.1055                 1.0583                 1.0934
 Frc consts  --      6.5208                 6.2499                 6.5685
 IR Inten    --     11.3677                 4.8216                 3.9855

                     46                     47                     48
                      A                      A                      A
 Frequencies --   3249.1363              3256.8173              3275.6149
 Red. masses --      1.1164                 1.0961                 1.0974
 Frc consts  --      6.9439                 6.8498                 6.9372
 IR Inten    --     11.9528                 2.5320                 0.8455

 - Thermochemistry -
 -------------------
 Temperature   298.150 Kelvin.  Pressure   1.00000 Atm.
 Atom     1 has atomic number  6 and mass  12.00000

 Molecular mass:   136.06366 amu.
 Principal axes and moments of inertia in atomic units:
                           1         2         3
     Eigenvalues --   863.494091486.520692048.82728
           X            0.99969  -0.02071  -0.01370
           Y            0.02047   0.99963  -0.01801
           Z            0.01407   0.01773   0.99974
 This molecule is an asymmetric top.
 Rotational symmetry number  1.
 Warning -- assumption of classical behavior for rotation
           may cause significant error
 Rotational temperatures (Kelvin)      0.10031     0.05827     0.04227
 Rotational constants (GHZ):           2.09004     1.21407     0.88087
 Zero-point vibrational energy     374900.5 (Joules/Mol)
                                   89.60336 (Kcal/Mol)
 Warning -- explicit consideration of  12 degrees of freedom as
           vibrations may cause significant error
 Vibrational temperatures:     85.00   162.44   205.61   226.53   269.60
          (Kelvin)            318.05   393.04   502.67   598.34   745.44
                              778.33   883.45   949.92   981.28  1025.37
                             1157.36  1179.83  1265.25  1334.29  1414.35
                             1419.96  1493.20  1567.36  1640.13  1669.43
                             1679.05  1809.39  1822.40  1894.51  1936.55
                             1992.69  2024.66  2099.41  2116.07  2175.23
                             2187.68  2213.34  2275.25  2441.55  2495.27
                             4434.12  4541.43  4552.48  4555.20  4594.33
                             4674.78  4685.83  4712.88

 Zero-point correction=                           0.142792 (Hartree/Particle)
 Thermal correction to Energy=                    0.152120
 Thermal correction to Enthalpy=                  0.153064
 Thermal correction to Gibbs Free Energy=         0.107989
 Sum of electronic and zero-point Energies=           -456.137335
 Sum of electronic and thermal Energies=              -456.128007
 Sum of electronic and thermal Enthalpies=            -456.127063
 Sum of electronic and thermal Free Energies=         -456.172137

                     E (Thermal)             CV                S
                      KCal/Mol        Cal/Mol-Kelvin    Cal/Mol-Kelvin
 Total                   95.457             33.724             94.867
 Electronic               0.000              0.000              0.000
 Translational            0.889              2.981             40.636
 Rotational               0.889              2.981             29.354
 Vibrational             93.679             27.762             24.877
 Vibration     1          0.596              1.974              4.488
 Vibration     2          0.607              1.939              3.218
 Vibration     3          0.616              1.910              2.765
 Vibration     4          0.621              1.894              2.580
 Vibration     5          0.632              1.857              2.254
 Vibration     6          0.648              1.809              1.950
 Vibration     7          0.676              1.723              1.576
 Vibration     8          0.727              1.577              1.169
 Vibration     9          0.779              1.436              0.906
 Vibration    10          0.873              1.210              0.614
 Vibration    11          0.896              1.159              0.563
 Vibration    12          0.973              1.002              0.426

                           ! Non-Optimized Parameters !
 Normal termination of Gaussian 16 at Tue Dec  8 10:18:55 2020.

 ----------------------------------------------------------------------
 # B3LYP/6-311++G(d,p) empiricaldispersion=gd3bj scf=xqc pop=npa geom=c
 heck
 ----------------------------------------------------------------------

 ------------------------------------
 CID_82896027_JID_54_Energie_neutraal
 ------------------------------------
 Structure from the checkpoint file:  "JID_54.chk"
 Charge =  0 Multiplicity = 1

 SCF Done:  E(RB3LYP) =  -456.407579411     A.U. after   15 cycles
 Normal termination of Gaussian 16 at Tue Dec  8 10:19:41 2020.

 ----------------------------------------------------------------------
 # B3LYP/6-311++G(d,p) empiricaldispersion=gd3bj scf=xqc pop=npa geom=c
 heck
 ----------------------------------------------------------------------

 ----------------------------------
 CID_82896027_JID_54_Energie_kation
 ----------------------------------
 Structure from the checkpoint file:  "JID_54.chk"
 Charge =  1 Multiplicity = 2

 SCF Done:  E(UB3LYP) =  -456.084161137     A.U. after   25 cycles
 Normal termination of Gaussian 16 at Tue Dec  8 10:21:41 2020.
 Gaussian 16:  ES64L-G16RevA.03 25-Dec-2016

 ----------------------------------------------------------------------
 # B3LYP/6-311++G(d,p) empiricaldispersion=gd3bj scf=xqc pop=npa geom=c
 heck
 ----------------------------------------------------------------------

 ---------------------------------
 CID_82896027_JID_54_Energie_anion
 ---------------------------------
 Structure from the checkpoint file:  "JID_54.chk"
 Charge = -1 Multiplicity = 2

                         Standard orientation:
 ---------------------------------------------------------------------
 Center     Atomic      Atomic             Coordinates (Angstroms)
 Number     Number       Type             X           Y           Z
 ---------------------------------------------------------------------
      1          6           0        0.418774    1.967884   -0.773770
      2          7           0        0.907988    0.721613   -0.199554
      3          6           0        2.212583    0.477618    0.113879
      4          7           0        2.431740   -0.775161    0.472902
      5          6           0        1.216967   -1.388525    0.357217
      6          6           0        0.239310   -0.495639   -0.050695
      7          6           0       -1.188001   -0.784433   -0.266892
      8          8           0       -1.540891   -1.898421   -0.642261
      9          6           0       -2.227603    0.234664    0.054869
     10          6           0       -2.118357    1.121858    1.048618
     11          1           0       -0.207279    1.759736   -1.644139
     12          1           0       -0.167690    2.542243   -0.053779
     13          1           0        1.280260    2.558982   -1.091437
     14          1           0        2.964814    1.252793    0.042077
     15          1           0        1.073462   -2.434180    0.591199
     16          1           0       -3.161907    0.108271   -0.487110
     17          1           0       -2.944168    1.770121    1.327559
     18          1           0       -1.210495    1.203670    1.640927
 ---------------------------------------------------------------------

 SCF Done:  E(UB3LYP) =  -456.425107003     A.U. after   27 cycles

 The electronic state is 2-A.
 Alpha  occ. eigenvalues --  -18.90181 -14.23097 -14.15612 -10.08834 -10.08041
 Alpha  occ. eigenvalues --  -10.05354 -10.04627 -10.03092 -10.00699 -10.00148
 Alpha  occ. eigenvalues --   -0.87810  -0.84345  -0.74919  -0.62546  -0.60738
 Alpha  occ. eigenvalues --   -0.57978  -0.48301  -0.45279  -0.43812  -0.40376
 Alpha  occ. eigenvalues --   -0.35577  -0.34136  -0.31614  -0.29340  -0.28941
 Alpha  occ. eigenvalues --   -0.28374  -0.26677  -0.26143  -0.23624  -0.21856
 Alpha  occ. eigenvalues --   -0.20400  -0.13892  -0.13783  -0.12106  -0.09055
 Alpha  occ. eigenvalues --   -0.07112   0.04713
 Alpha virt. eigenvalues --    0.08380   0.10130   0.11065   0.11896   0.12602
 Alpha virt. eigenvalues --    0.13258   0.14015   0.14381   0.14699   0.16626
 Alpha virt. eigenvalues --    0.17121   0.17807   0.18639   0.19384   0.20028

  Beta  occ. eigenvalues --  -18.89492 -14.22991 -14.15668 -10.08819 -10.07944
  Beta  occ. eigenvalues --  -10.05017 -10.04662 -10.02953 -10.00681  -9.99798
  Beta  occ. eigenvalues --   -0.87655  -0.83142  -0.74820  -0.62069  -0.60464
  Beta  occ. eigenvalues --   -0.57805  -0.47399  -0.45102  -0.43314  -0.40218
  Beta  occ. eigenvalues --   -0.35242  -0.33864  -0.31452  -0.28915  -0.28853
  Beta  occ. eigenvalues --   -0.28092  -0.26468  -0.25962  -0.22873  -0.20957
  Beta  occ. eigenvalues --   -0.18476  -0.13846  -0.13426  -0.10254  -0.08115
  Beta  occ. eigenvalues --   -0.06222
  Beta virt. eigenvalues --    0.08328   0.10011   0.10887   0.11226   0.12167
  Beta virt. eigenvalues --    0.12566   0.13379   0.14085   0.14739   0.15127
  Beta virt. eigenvalues --    0.16956   0.17239   0.17926   0.18864   0.19330

 Mulliken charges and spin densities:
               1          2
     1  C   -0.193902  -0.093910
     2  N   -0.012752   0.021058
     3  C    0.015020   0.085516
     4  N   -0.153946  -0.032196
     5  C   -0.430545   0.133568
     6  C    0.775078  -0.028983
     7  C   -0.942073   0.202673
     8  O   -0.412142   0.240463
     9  C    0.207925   0.007113
    10  C   -0.681681   0.321609
    11  H    0.155792   0.003962
    12  H    0.044823   0.143356
    13  H    0.102343  -0.008664
    14  H    0.098498  -0.001126
    15  H    0.137371  -0.006162
    16  H    0.129221   0.012295
    17  H    0.032153   0.038461
    18  H    0.128816  -0.039032
 Sum of Mulliken charges =  -1.00000   1.00000

 Dipole moment (field-independent basis, Debye):
    X=              2.3193    Y=              5.0174    Z=             -0.9017  Tot=              5.6005
 Quadrupole moment (field-independent basis, Debye-Ang):
   XX=            -89.4661   YY=            -78.0476   ZZ=            -68.5583
   XY=              2.0274   XZ=             -2.6037   YZ=             -5.3163

 Summary of Natural Population Analysis:

                                       Natural Population
                Natural  -----------------------------------------------
    Atom  No    Charge         Core      Valence    Rydberg      Total
 -----------------------------------------------------------------------
      C    1   -0.17001      0.99965     2.16330    0.00707     3.17001
      N    2   -0.19374      0.99961     2.68380    0.01033     3.69374
      C    3    0.11066      0.99965     1.87262    0.01707     2.88934
      N    4   -0.27718      0.99973     2.76504    0.01242     3.77718
      C    5    0.00654      0.99955     1.97966    0.01425     2.99346
      C    6    0.02067      0.99949     1.96622    0.01363     2.97933
      C    7    0.26742      0.99959     1.71296    0.02004     2.73258
      O    8   -0.22805      0.99988     3.22166    0.00650     4.22805
      C    9   -0.13021      0.99955     2.12028    0.01038     3.13021
      C   10   -0.12913      0.99959     2.12068    0.00886     3.12913
      H   11    0.10292      0.00000     0.39624    0.00084     0.39708
      H   12    0.10429      0.00000     0.39411    0.00160     0.39571
      H   13    0.08828      0.00000     0.41098    0.00074     0.41172
      H   14    0.08037      0.00000     0.41844    0.00119     0.41963
      H   15    0.09510      0.00000     0.40385    0.00106     0.40490
      H   16    0.08965      0.00000     0.40812    0.00223     0.41035
      H   17    0.07918      0.00000     0.41885    0.00197     0.42082
      H   18    0.08326      0.00000     0.41574    0.00100     0.41674
 =======================================================================
   * Total *    0.00000      9.99628    25.87255    0.13117    36.00000

 Normal termination of Gaussian 16 at Tue Dec  8 10:23:50 2020.
