 Gaussian 16, Revision A.03,

 -----------------------------------------------------------
 # opt freq B3LYP/6-31G(d) empiricaldispersion=gd3bj scf=xqc
 -----------------------------------------------------------

 ------------------------------
 CID_10921480_JID_4075_neutraal
 ------------------------------
 Symbolic Z-matrix:
 Charge =  0 Multiplicity = 1

 SCF Done:  E(RB3LYP) =  -705.273858418     A.U. after   15 cycles
 SCF Done:  E(RB3LYP) =  -705.276584447     A.U. after   13 cycles
 SCF Done:  E(RB3LYP) =  -705.276290585     A.U. after   13 cycles
 SCF Done:  E(RB3LYP) =  -705.277382613     A.U. after   12 cycles
 SCF Done:  E(RB3LYP) =  -705.277533417     A.U. after   10 cycles
 SCF Done:  E(RB3LYP) =  -705.277562296     A.U. after   10 cycles
 SCF Done:  E(RB3LYP) =  -705.277564459     A.U. after   10 cycles
 SCF Done:  E(RB3LYP) =  -705.277577861     A.U. after    9 cycles
 SCF Done:  E(RB3LYP) =  -705.277581650     A.U. after   10 cycles
 SCF Done:  E(RB3LYP) =  -705.277583636     A.U. after   10 cycles
 SCF Done:  E(RB3LYP) =  -705.277679774     A.U. after    9 cycles
 SCF Done:  E(RB3LYP) =  -705.277680159     A.U. after    8 cycles
 SCF Done:  E(RB3LYP) =  -705.277680303     A.U. after    7 cycles
 SCF Done:  E(RB3LYP) =  -705.277680389     A.U. after    7 cycles
 SCF Done:  E(RB3LYP) =  -705.277680435     A.U. after    7 cycles
 Optimization completed.
    -- Stationary point found.
 Normal termination of Gaussian 16 at Thu Dec 10 09:19:39 2020.

 --------------------------------------------------------------------
 #N Geom=AllCheck Guess=TCheck SCRF=Check GenChk RB3LYP/6-31G(d) Freq
 --------------------------------------------------------------------

 Structure from the checkpoint file:  "JID_4075.chk"
 ------------------------------
 CID_10921480_JID_4075_neutraal
 ------------------------------
 Charge =  0 Multiplicity = 1

 SCF Done:  E(RB3LYP) =  -705.277680435     A.U. after    1 cycles

  Exact polarizability: 134.132  -8.067 141.043  -4.332  -0.186  62.377
 Approx polarizability: 194.181 -12.460 201.636 -14.297  -0.079  95.077

                      1                      2                      3
                      A                      A                      A
 Frequencies --     38.6974                43.6602                70.1884
 Red. masses --      5.6314                 5.6977                 1.0276
 Frc consts  --      0.0050                 0.0064                 0.0030
 IR Inten    --      2.5993                 1.0155                 0.0128

                      4                      5                      6
                      A                      A                      A
 Frequencies --     86.0117               100.9232               124.8539
 Red. masses --      3.3214                 2.7497                 1.3931
 Frc consts  --      0.0145                 0.0165                 0.0128
 IR Inten    --      5.4084                 1.2640                 0.4418

                      7                      8                      9
                      A                      A                      A
 Frequencies --    131.1457               142.0024               148.0801
 Red. masses --      2.6044                 1.3193                 2.8175
 Frc consts  --      0.0264                 0.0157                 0.0364
 IR Inten    --      1.9881                 0.2978                 0.3348

                     10                     11                     12
                      A                      A                      A
 Frequencies --    180.6914               212.4860               253.6609
 Red. masses --      3.6225                 4.8556                 4.7203
 Frc consts  --      0.0697                 0.1292                 0.1789
 IR Inten    --      0.9013                 0.3640                 1.1335

                     13                     14                     15
                      A                      A                      A
 Frequencies --    291.5790               309.2358               351.1384
 Red. masses --      5.0589                 5.1210                 5.0737
 Frc consts  --      0.2534                 0.2885                 0.3686
 IR Inten    --      6.9582                11.1316                10.0317

                     16                     17                     18
                      A                      A                      A
 Frequencies --    371.2467               401.7947               448.6073
 Red. masses --      5.0616                 4.3445                 7.3878
 Frc consts  --      0.4110                 0.4132                 0.8760
 IR Inten    --     11.8691                 2.5691                 3.7128

                     19                     20                     21
                      A                      A                      A
 Frequencies --    599.4041               623.2686               628.7185
 Red. masses --      5.4154                 3.7897                 4.1730
 Frc consts  --      1.1464                 0.8674                 0.9719
 IR Inten    --      2.0814                 6.0707                 0.7217

                     22                     23                     24
                      A                      A                      A
 Frequencies --    713.6468               728.7080               760.3186
 Red. masses --      3.6067                 2.1047                 6.0274
 Frc consts  --      1.0823                 0.6585                 2.0529
 IR Inten    --      0.4237                 2.3754                47.0929

                     25                     26                     27
                      A                      A                      A
 Frequencies --    799.8035               811.8565               825.1786
 Red. masses --      4.8994                 3.2850                 1.5980
 Frc consts  --      1.8465                 1.2757                 0.6411
 IR Inten    --     11.3823                 3.0276                17.3738

                     28                     29                     30
                      A                      A                      A
 Frequencies --    840.8398               980.3438              1022.0110
 Red. masses --      4.6819                 7.2167                 5.7776
 Frc consts  --      1.9503                 4.0865                 3.5556
 IR Inten    --     15.0714                14.3008                21.7720

                     31                     32                     33
                      A                      A                      A
 Frequencies --   1055.7421              1098.8204              1117.5545
 Red. masses --      4.7362                 1.4205                 7.8108
 Frc consts  --      3.1103                 1.0105                 5.7475
 IR Inten    --     12.8703                 3.9152               211.2170

                     34                     35                     36
                      A                      A                      A
 Frequencies --   1154.7342              1160.8851              1185.4960
 Red. masses --      1.5157                 1.5177                 1.2757
 Frc consts  --      1.1908                 1.2051                 1.0563
 IR Inten    --      6.6747                30.0523                 0.6422

                     37                     38                     39
                      A                      A                      A
 Frequencies --   1186.6201              1218.0100              1218.8949
 Red. masses --      1.2748                 1.5273                 1.5841
 Frc consts  --      1.0576                 1.3350                 1.3866
 IR Inten    --      0.8074                70.8848                48.7543

                     40                     41                     42
                      A                      A                      A
 Frequencies --   1230.3381              1251.0987              1322.8384
 Red. masses --      1.4332                 3.9340                 6.1903
 Frc consts  --      1.2782                 3.6280                 6.3822
 IR Inten    --     34.7719               454.1868               389.5765

                     43                     44                     45
                      A                      A                      A
 Frequencies --   1413.0801              1420.8023              1450.3154
 Red. masses --      5.2871                 6.4343                 3.5758
 Frc consts  --      6.2202                 7.6527                 4.4314
 IR Inten    --     17.0658                 0.6473                43.2252

                     46                     47                     48
                      A                      A                      A
 Frequencies --   1478.3951              1491.8435              1499.4235
 Red. masses --      1.2484                 1.2255                 1.4677
 Frc consts  --      1.6077                 1.6070                 1.9442
 IR Inten    --     25.2807                 9.2967                35.7875

                     49                     50                     51
                      A                      A                      A
 Frequencies --   1511.3373              1512.3142              1517.5344
 Red. masses --      1.0484                 1.0487                 1.0498
 Frc consts  --      1.4110                 1.4131                 1.4244
 IR Inten    --      4.9302                 4.9171                18.7779

                     52                     53                     54
                      A                      A                      A
 Frequencies --   1524.2108              1527.5408              1537.0829
 Red. masses --      1.0530                 1.0543                 1.1252
 Frc consts  --      1.4413                 1.4495                 1.5663
 IR Inten    --      7.1069                11.5399                24.2731

                     55                     56                     57
                      A                      A                      A
 Frequencies --   1576.8869              1592.1706              1787.4203
 Red. masses --      4.4813                 4.4477                11.6305
 Frc consts  --      6.5652                 6.6430                21.8929
 IR Inten    --     42.8868               129.0339               244.7807

                     58                     59                     60
                      A                      A                      A
 Frequencies --   1820.0815              3064.7058              3070.5968
 Red. masses --     11.9909                 1.0366                 1.0296
 Frc consts  --     23.4036                 5.7365                 5.7196
 IR Inten    --    274.9272                56.4017                40.5391

                     61                     62                     63
                      A                      A                      A
 Frequencies --   3071.8905              3135.8867              3142.8477
 Red. masses --      1.0303                 1.1007                 1.1070
 Frc consts  --      5.7284                 6.3773                 6.4425
 IR Inten    --     37.0832                14.4663                22.7338

                     64                     65                     66
                      A                      A                      A
 Frequencies --   3143.7567              3163.6505              3174.2534
 Red. masses --      1.1068                 1.1055                 1.1069
 Frc consts  --      6.4452                 6.5193                 6.5710
 IR Inten    --     25.1554                 7.7373                21.0938

                     67                     68                     69
                      A                      A                      A
 Frequencies --   3182.5098              3291.8601              3294.8929
 Red. masses --      1.1063                 1.0955                 1.0990
 Frc consts  --      6.6019                 6.9943                 7.0298
 IR Inten    --     17.0476                 1.2059                 0.0493

 - Thermochemistry -
 -------------------
 Temperature   298.150 Kelvin.  Pressure   1.00000 Atm.
 Atom     1 has atomic number  6 and mass  12.00000

 Molecular mass:   197.06881 amu.
 Principal axes and moments of inertia in atomic units:
                           1         2         3
     Eigenvalues --  2590.986832777.247475222.97920
           X            0.96581  -0.25923   0.00359
           Y            0.25924   0.96581  -0.00042
           Z           -0.00336   0.00133   0.99999
 This molecule is an asymmetric top.
 Rotational symmetry number  1.
 Warning -- assumption of classical behavior for rotation
           may cause significant error
 Rotational temperatures (Kelvin)      0.03343     0.03119     0.01658
 Rotational constants (GHZ):           0.69655     0.64983     0.34554
 Zero-point vibrational energy     518212.9 (Joules/Mol)
                                  123.85585 (Kcal/Mol)
 Warning -- explicit consideration of  19 degrees of freedom as
           vibrations may cause significant error
 Vibrational temperatures:     55.68    62.82   100.99   123.75   145.21
          (Kelvin)            179.64   188.69   204.31   213.05   259.97
                              305.72   364.96   419.52   444.92   505.21
                              534.14   578.09   645.45   862.41   896.74
                              904.59  1026.78  1048.45  1093.93  1150.74
                             1168.08  1187.25  1209.78  1410.50  1470.45
                             1518.98  1580.96  1607.91  1661.41  1670.25
                             1705.66  1707.28  1752.44  1753.72  1770.18
                             1800.05  1903.27  2033.11  2044.22  2086.68
                             2127.08  2146.43  2157.34  2174.48  2175.88
                             2183.39  2193.00  2197.79  2211.52  2268.79
                             2290.78  2571.70  2618.69  4409.43  4417.90
                             4419.77  4511.84  4521.86  4523.16  4551.79
                             4567.04  4578.92  4736.25  4740.62

 Zero-point correction=                           0.197377 (Hartree/Particle)
 Thermal correction to Energy=                    0.212011
 Thermal correction to Enthalpy=                  0.212955
 Thermal correction to Gibbs Free Energy=         0.154262
 Sum of electronic and zero-point Energies=           -705.080304
 Sum of electronic and thermal Energies=              -705.065669
 Sum of electronic and thermal Enthalpies=            -705.064725
 Sum of electronic and thermal Free Energies=         -705.123419

                     E (Thermal)             CV                S
                      KCal/Mol        Cal/Mol-Kelvin    Cal/Mol-Kelvin
 Total                  133.039             50.452            123.531
 Electronic               0.000              0.000              0.000
 Translational            0.889              2.981             41.740
 Rotational               0.889              2.981             31.997
 Vibrational            131.262             44.490             49.794
 Vibration     1          0.594              1.981              5.325
 Vibration     2          0.595              1.980              5.086
 Vibration     3          0.598              1.968              4.148
 Vibration     4          0.601              1.959              3.749
 Vibration     5          0.604              1.948              3.436
 Vibration     6          0.610              1.928              3.024
 Vibration     7          0.612              1.922              2.929
 Vibration     8          0.615              1.911              2.777
 Vibration     9          0.617              1.905              2.697
 Vibration    10          0.630              1.866              2.321
 Vibration    11          0.644              1.822              2.022
 Vibration    12          0.665              1.757              1.705
 Vibration    13          0.687              1.689              1.465
 Vibration    14          0.699              1.656              1.366
 Vibration    15          0.728              1.573              1.161
 Vibration    16          0.743              1.531              1.075
 Vibration    17          0.767              1.466              0.956
 Vibration    18          0.808              1.364              0.800
 Vibration    19          0.957              1.033              0.451

 Optimization completed.
    -- Stationary point found.
 Normal termination of Gaussian 16 at Thu Dec 10 09:25:16 2020.

 ----------------------------------------------------------------------
 # B3LYP/6-311++G(d,p) empiricaldispersion=gd3bj scf=xqc pop=npa geom=c
 heck
 ----------------------------------------------------------------------

 --------------------------------------
 CID_10921480_JID_4075_Energie_neutraal
 --------------------------------------
 Structure from the checkpoint file:  "JID_4075.chk"
 Charge =  0 Multiplicity = 1

 SCF Done:  E(RB3LYP) =  -705.481835907     A.U. after   15 cycles
 Normal termination of Gaussian 16 at Thu Dec 10 09:27:20 2020.

 ----------------------------------------------------------------------
 # B3LYP/6-311++G(d,p) empiricaldispersion=gd3bj scf=xqc pop=npa geom=c
 heck
 ----------------------------------------------------------------------

 ------------------------------------
 CID_10921480_JID_4075_Energie_kation
 ------------------------------------
 Structure from the checkpoint file:  "JID_4075.chk"
 Charge =  1 Multiplicity = 2

 SCF Done:  E(UB3LYP) =  -705.169241563     A.U. after   28 cycles
 Normal termination of Gaussian 16 at Thu Dec 10 09:32:52 2020.
 Gaussian 16:  ES64L-G16RevA.03 25-Dec-2016

 ----------------------------------------------------------------------
 # B3LYP/6-311++G(d,p) empiricaldispersion=gd3bj scf=xqc pop=npa geom=c
 heck
 ----------------------------------------------------------------------

 -----------------------------------
 CID_10921480_JID_4075_Energie_anion
 -----------------------------------
 Structure from the checkpoint file:  "JID_4075.chk"
 Charge = -1 Multiplicity = 2

                         Standard orientation:
 ---------------------------------------------------------------------
 Center     Atomic      Atomic             Coordinates (Angstroms)
 Number     Number       Type             X           Y           Z
 ---------------------------------------------------------------------
      1          6           0        2.157624   -3.343550   -0.139372
      2          7           0        1.324505   -2.158835   -0.018956
      3          6           0       -0.044299   -2.155658    0.047390
      4          6           0       -0.485338   -0.847338    0.072724
      5          6           0        0.687399   -0.012904    0.019590
      6          6           0        1.776084   -0.864895   -0.041494
      7          6           0        0.804421    1.447012    0.166772
      8          8           0       -0.025600    2.200596    0.627684
      9          8           0        2.030888    1.870683   -0.256093
     10          6           0        2.273608    3.270594   -0.074643
     11          6           0       -1.926621   -0.541797    0.079486
     12          8           0       -2.782601   -1.338039    0.424106
     13          8           0       -2.200304    0.689411   -0.387221
     14          6           0       -3.584213    1.056988   -0.368405
     15          1           0        1.695446   -4.168799    0.406866
     16          1           0        2.283931   -3.633800   -1.188094
     17          1           0        3.138973   -3.141150    0.295417
     18          1           0       -0.619111   -3.069427    0.053236
     19          1           0        2.830506   -0.636613   -0.067809
     20          1           0        1.547507    3.863598   -0.637228
     21          1           0        2.204543    3.543000    0.982416
     22          1           0        3.282798    3.444493   -0.450202
     23          1           0       -4.166179    0.404401   -1.025584
     24          1           0       -3.986282    0.986620    0.645710
     25          1           0       -3.614726    2.087594   -0.722127
 ---------------------------------------------------------------------

 SCF Done:  E(UB3LYP) =  -705.473152835     A.U. after   33 cycles
 SCF Done:  E(UB3LYP) =  -705.473152835     a.u. after    1 cycles

 The electronic state is 2-A.
 Alpha  occ. eigenvalues --  -19.05365 -19.05352 -18.98780 -18.98715 -14.26945
 Alpha  occ. eigenvalues --  -10.18140 -10.17921 -10.12651 -10.12569 -10.10268
 Alpha  occ. eigenvalues --  -10.09314 -10.09303 -10.06665 -10.06581  -0.99507
 Alpha  occ. eigenvalues --   -0.99096  -0.90280  -0.90102  -0.89163  -0.71568
 Alpha  occ. eigenvalues --   -0.65485  -0.63834  -0.61632  -0.59092  -0.52591
 Alpha  occ. eigenvalues --   -0.48704  -0.46033  -0.44455  -0.43632  -0.38200
 Alpha  occ. eigenvalues --   -0.38000  -0.37805  -0.36892  -0.36360  -0.36236
 Alpha  occ. eigenvalues --   -0.35707  -0.33071  -0.31615  -0.31212  -0.30248
 Alpha  occ. eigenvalues --   -0.29819  -0.29143  -0.27858  -0.26517  -0.25525
 Alpha  occ. eigenvalues --   -0.25145  -0.20036  -0.19713  -0.16915  -0.16456
 Alpha  occ. eigenvalues --   -0.14331  -0.12436   0.04569
 Alpha virt. eigenvalues --    0.06583   0.06702   0.07578   0.08609   0.09057
 Alpha virt. eigenvalues --    0.10121   0.10582   0.10813   0.10981   0.11521
 Alpha virt. eigenvalues --    0.11957   0.13118   0.13636   0.14425   0.14975

  Beta  occ. eigenvalues --  -19.05341 -19.05327 -18.98697 -18.98613 -14.26975
  Beta  occ. eigenvalues --  -10.18058 -10.17827 -10.12652 -10.12560 -10.10180
  Beta  occ. eigenvalues --  -10.09265 -10.09233 -10.06632 -10.06548  -0.99413
  Beta  occ. eigenvalues --   -0.98991  -0.90148  -0.89963  -0.89141  -0.71479
  Beta  occ. eigenvalues --   -0.65345  -0.63747  -0.61545  -0.58991  -0.52413
  Beta  occ. eigenvalues --   -0.48567  -0.45947  -0.44378  -0.43563  -0.38114
  Beta  occ. eigenvalues --   -0.37857  -0.37656  -0.36830  -0.36271  -0.36159
  Beta  occ. eigenvalues --   -0.35598  -0.32990  -0.31549  -0.31156  -0.29965
  Beta  occ. eigenvalues --   -0.29609  -0.29028  -0.27689  -0.26335  -0.25464
  Beta  occ. eigenvalues --   -0.25083  -0.19743  -0.19429  -0.16826  -0.16351
  Beta  occ. eigenvalues --   -0.14114  -0.12026
  Beta virt. eigenvalues --    0.06725   0.07503   0.07803   0.08011   0.09310
  Beta virt. eigenvalues --    0.09861   0.10418   0.10601   0.11111   0.11476
  Beta virt. eigenvalues --    0.12003   0.12226   0.13380   0.13828   0.14557

 Mulliken charges and spin densities:
               1          2
     1  C    2.072756  -2.408628
     2  N   -0.189591   0.322862
     3  C   -0.231020  -0.096627
     4  C    0.434553   0.236537
     5  C    0.363102   0.092815
     6  C    0.245357  -0.065582
     7  C   -0.692467  -0.109516
     8  O   -0.279771   0.035866
     9  O   -0.120349   0.017430
    10  C    0.013239  -0.250838
    11  C   -0.492694  -0.171912
    12  O   -0.313659   0.026804
    13  O   -0.064214   0.003346
    14  C   -0.244520  -0.008442
    15  H   -0.743685   0.900876
    16  H   -0.552051   0.749117
    17  H   -0.743591   0.898556
    18  H    0.080770   0.126966
    19  H   -0.162001   0.386539
    20  H    0.120502   0.040404
    21  H    0.084078   0.085134
    22  H   -0.042950   0.177841
    23  H    0.149401   0.008538
    24  H    0.171872   0.000813
    25  H    0.136934   0.001101
 Sum of Mulliken charges =  -1.00000   1.00000

 Dipole moment (field-independent basis, Debye):
    X=             -5.3548    Y=              8.3903    Z=             -0.7239  Tot=              9.9797
 Quadrupole moment (field-independent basis, Debye-Ang):
   XX=           -131.1959   YY=           -145.8932   ZZ=           -102.6240
   XY=             18.5362   XZ=              6.9624   YZ=             -1.2525

 Summary of Natural Population Analysis:

                                       Natural Population
                Natural  -----------------------------------------------
    Atom  No    Charge         Core      Valence    Rydberg      Total
 -----------------------------------------------------------------------
      C    1   -0.17065      0.99963     2.16277    0.00825     3.17065
      N    2   -0.19643      0.99966     2.68681    0.00996     3.69643
      C    3    0.02557      0.99952     1.96271    0.01220     2.97443
      C    4   -0.09350      0.99943     2.08255    0.01151     3.09350
      C    5   -0.09543      0.99944     2.08470    0.01129     3.09543
      C    6    0.02774      0.99952     1.96026    0.01249     2.97226
      C    7    0.40930      0.99962     1.56713    0.02394     2.59070
      O    8   -0.29767      0.99987     3.29260    0.00520     4.29767
      O    9   -0.28282      0.99987     3.27507    0.00789     4.28282
      C   10   -0.10371      0.99960     2.09572    0.00839     3.10371
      C   11    0.40956      0.99962     1.56696    0.02386     2.59044
      O   12   -0.31410      0.99988     3.30915    0.00508     4.31410
      O   13   -0.26567      0.99986     3.25796    0.00785     4.26567
      C   14   -0.10450      0.99961     2.09683    0.00805     3.10450
      H   15    0.10488      0.00000     0.39164    0.00348     0.39512
      H   16    0.10126      0.00000     0.39547    0.00326     0.39874
      H   17    0.10470      0.00000     0.39188    0.00343     0.39530
      H   18    0.10752      0.00000     0.39154    0.00094     0.39248
      H   19    0.10722      0.00000     0.39114    0.00163     0.39278
      H   20    0.08770      0.00000     0.41074    0.00155     0.41230
      H   21    0.08796      0.00000     0.41046    0.00158     0.41204
      H   22    0.08735      0.00000     0.41148    0.00117     0.41265
      H   23    0.08654      0.00000     0.41231    0.00114     0.41346
      H   24    0.08910      0.00000     0.40975    0.00114     0.41090
      H   25    0.08806      0.00000     0.41120    0.00074     0.41194
 =======================================================================
   * Total *   -0.00000     13.99514    37.82886    0.17600    52.00000

 Normal termination of Gaussian 16 at Thu Dec 10 09:39:15 2020.
