 Gaussian 16, Revision A.03,

 -----------------------------------------------------------
 # opt freq B3LYP/6-31G(d) empiricaldispersion=gd3bj scf=xqc
 -----------------------------------------------------------

 -------------------------------
 CID_130593960_JID_2313_neutraal
 -------------------------------
 Symbolic Z-matrix:
 Charge =  0 Multiplicity = 1

 SCF Done:  E(RB3LYP) =  -568.162686027     A.U. after   14 cycles
 SCF Done:  E(RB3LYP) =  -568.172457384     A.U. after   13 cycles
 SCF Done:  E(RB3LYP) =  -568.174260884     A.U. after   12 cycles
 SCF Done:  E(RB3LYP) =  -568.175015878     A.U. after   12 cycles
 SCF Done:  E(RB3LYP) =  -568.175796783     A.U. after   12 cycles
 SCF Done:  E(RB3LYP) =  -568.176029285     A.U. after   12 cycles
 SCF Done:  E(RB3LYP) =  -568.176103149     A.U. after   10 cycles
 SCF Done:  E(RB3LYP) =  -568.176127656     A.U. after   11 cycles
 SCF Done:  E(RB3LYP) =  -568.176133807     A.U. after   10 cycles
 SCF Done:  E(RB3LYP) =  -568.176138043     A.U. after    9 cycles
 SCF Done:  E(RB3LYP) =  -568.176140263     A.U. after    9 cycles
 SCF Done:  E(RB3LYP) =  -568.176140549     A.U. after    7 cycles
 Optimization completed.
    -- Stationary point found.
 Normal termination of Gaussian 16 at Wed Dec  9 17:01:48 2020.

 --------------------------------------------------------------------
 #N Geom=AllCheck Guess=TCheck SCRF=Check GenChk RB3LYP/6-31G(d) Freq
 --------------------------------------------------------------------

 Structure from the checkpoint file:  "JID_2313.chk"
 -------------------------------
 CID_130593960_JID_2313_neutraal
 -------------------------------
 Charge =  0 Multiplicity = 1

 SCF Done:  E(RB3LYP) =  -568.176140549     A.U. after    1 cycles

  Exact polarizability: 137.134   0.004 116.819   5.481   5.165  61.921
 Approx polarizability: 201.446  -2.018 196.911  17.410  16.477  95.141

                      1                      2                      3
                      A                      A                      A
 Frequencies --     63.1711                81.9518               116.0465
 Red. masses --      3.7216                 2.7801                 1.8267
 Frc consts  --      0.0088                 0.0110                 0.0145
 IR Inten    --      3.3117                 2.6352                 1.2631

                      4                      5                      6
                      A                      A                      A
 Frequencies --    181.2960               197.4265               239.1451
 Red. masses --      1.9444                 2.1307                 2.8496
 Frc consts  --      0.0377                 0.0489                 0.0960
 IR Inten    --      0.3290                 6.3624                14.1860

                      7                      8                      9
                      A                      A                      A
 Frequencies --    253.4667               264.2553               276.1455
 Red. masses --      1.6773                 1.4174                 1.5818
 Frc consts  --      0.0635                 0.0583                 0.0711
 IR Inten    --      0.4789                 8.8892                10.8544

                     10                     11                     12
                      A                      A                      A
 Frequencies --    329.3887               339.0961               356.0604
 Red. masses --      3.6620                 3.2289                 3.3664
 Frc consts  --      0.2341                 0.2187                 0.2515
 IR Inten    --      3.3200                 2.6714                 3.7651

                     13                     14                     15
                      A                      A                      A
 Frequencies --    396.5488               494.6440               507.4537
 Red. masses --      5.2673                 3.5475                 1.3432
 Frc consts  --      0.4880                 0.5114                 0.2038
 IR Inten    --     22.8155                 0.5167                 9.2996

                     16                     17                     18
                      A                      A                      A
 Frequencies --    516.0737               540.5749               561.8940
 Red. masses --      2.9748                 4.0065                 3.9654
 Frc consts  --      0.4668                 0.6898                 0.7376
 IR Inten    --      2.2518                 4.0800                 9.1996

                     19                     20                     21
                      A                      A                      A
 Frequencies --    586.5432               646.7927               683.8195
 Red. masses --      4.6663                 4.1614                 5.8980
 Frc consts  --      0.9459                 1.0257                 1.6249
 IR Inten    --     23.8945                33.2622                15.5409

                     22                     23                     24
                      A                      A                      A
 Frequencies --    747.0816               763.7439               817.0576
 Red. masses --      1.6941                 4.1702                 1.4368
 Frc consts  --      0.5571                 1.4332                 0.5651
 IR Inten    --    210.9244                43.9965                72.1474

                     25                     26                     27
                      A                      A                      A
 Frequencies --    836.5592               862.7404               896.9914
 Red. masses --      4.2403                 2.0640                 2.0166
 Frc consts  --      1.7484                 0.9052                 0.9560
 IR Inten    --     22.1256               190.6332               157.9458

                     28                     29                     30
                      A                      A                      A
 Frequencies --    935.2468               967.8583              1012.4583
 Red. masses --      1.3143                 3.4931                 5.6216
 Frc consts  --      0.6773                 1.9279                 3.3952
 IR Inten    --      0.7249                19.5848                31.4290

                     31                     32                     33
                      A                      A                      A
 Frequencies --   1096.9316              1130.3841              1144.9247
 Red. masses --      2.3529                 2.1890                 1.3455
 Frc consts  --      1.6680                 1.6480                 1.0392
 IR Inten    --      5.7076                 1.7492                 2.6413

                     34                     35                     36
                      A                      A                      A
 Frequencies --   1161.5255              1180.8496              1191.5945
 Red. masses --      1.4318                 1.2951                 1.5203
 Frc consts  --      1.1382                 1.0640                 1.2719
 IR Inten    --     29.1198                 2.0809                14.9554

                     37                     38                     39
                      A                      A                      A
 Frequencies --   1220.7489              1276.9428              1291.6478
 Red. masses --      1.5399                 2.4370                 2.6540
 Frc consts  --      1.3520                 2.3413                 2.6088
 IR Inten    --      5.4413                56.5134                63.1654

                     40                     41                     42
                      A                      A                      A
 Frequencies --   1343.1943              1371.7256              1379.4148
 Red. masses --      2.2903                 3.9781                 3.5311
 Frc consts  --      2.4345                 4.4103                 3.9587
 IR Inten    --     11.8406                11.9434                 2.9647

                     43                     44                     45
                      A                      A                      A
 Frequencies --   1455.0953              1472.7026              1492.0919
 Red. masses --      1.2177                 1.2064                 2.1847
 Frc consts  --      1.5191                 1.5416                 2.8657
 IR Inten    --      5.6634                 9.2987                89.3788

                     46                     47                     48
                      A                      A                      A
 Frequencies --   1502.7242              1515.1330              1530.7888
 Red. masses --      1.0780                 1.1211                 1.1789
 Frc consts  --      1.4343                 1.5163                 1.6277
 IR Inten    --      5.8893                 5.0922                22.0507

                     49                     50                     51
                      A                      A                      A
 Frequencies --   1534.8453              1538.5043              1624.6094
 Red. masses --      1.3482                 1.7115                 3.2380
 Frc consts  --      1.8712                 2.3869                 5.0353
 IR Inten    --     29.4022                24.6239                13.7692

                     52                     53                     54
                      A                      A                      A
 Frequencies --   1648.7074              1691.1667              1710.8265
 Red. masses --      5.4464                 1.3747                 1.1452
 Frc consts  --      8.7226                 2.3166                 1.9750
 IR Inten    --    103.8756               120.2492                34.1537

                     55                     56                     57
                      A                      A                      A
 Frequencies --   3035.1087              3047.3810              3113.5175
 Red. masses --      1.0447                 1.0334                 1.1058
 Frc consts  --      5.6703                 5.6540                 6.3161
 IR Inten    --     24.5939                47.9982                41.3947

                     58                     59                     60
                      A                      A                      A
 Frequencies --   3128.1092              3150.6244              3171.7783
 Red. masses --      1.0876                 1.1038                 1.0877
 Frc consts  --      6.2701                 6.4556                 6.4471
 IR Inten    --     21.8455                18.2832                21.6169

                     61                     62                     63
                      A                      A                      A
 Frequencies --   3174.0045              3195.5394              3489.5634
 Red. masses --      1.1036                 1.0949                 1.0506
 Frc consts  --      6.5508                 6.5872                 7.5378
 IR Inten    --      9.4522                30.0824                15.5764

                     64                     65                     66
                      A                      A                      A
 Frequencies --   3507.5286              3592.5907              3619.4957
 Red. masses --      1.0503                 1.0934                 1.0947
 Frc consts  --      7.6135                 8.3144                 8.4494
 IR Inten    --      9.8161                62.3167                10.8726

 - Thermochemistry -
 -------------------
 Temperature   298.150 Kelvin.  Pressure   1.00000 Atm.
 Atom     1 has atomic number  6 and mass  12.00000

 Molecular mass:   168.10111 amu.
 Principal axes and moments of inertia in atomic units:
                           1         2         3
     Eigenvalues --  1171.627512332.676763072.39963
           X            0.99981  -0.01741  -0.00888
           Y            0.01731   0.99978  -0.01178
           Z            0.00908   0.01163   0.99989
 This molecule is an asymmetric top.
 Rotational symmetry number  1.
 Warning -- assumption of classical behavior for rotation
           may cause significant error
 Rotational temperatures (Kelvin)      0.07393     0.03713     0.02819
 Rotational constants (GHZ):           1.54037     0.77368     0.58740
 Zero-point vibrational energy     527576.2 (Joules/Mol)
                                  126.09374 (Kcal/Mol)
 Warning -- explicit consideration of  19 degrees of freedom as
           vibrations may cause significant error
 Vibrational temperatures:     90.89   117.91   166.96   260.84   284.05
          (Kelvin)            344.08   364.68   380.20   397.31   473.92
                              487.88   512.29   570.55   711.68   730.11
                              742.51   777.77   808.44   843.90   930.59
                              983.86  1074.88  1098.86  1175.56  1203.62
                             1241.29  1290.57  1345.61  1392.53  1456.70
                             1578.24  1626.37  1647.29  1671.18  1698.98
                             1714.44  1756.39  1837.24  1858.39  1932.56
                             1973.61  1984.67  2093.56  2118.89  2146.79
                             2162.08  2179.94  2202.46  2208.30  2213.56
                             2337.45  2372.12  2433.21  2461.50  4366.84
                             4384.50  4479.66  4500.65  4533.05  4563.48
                             4566.68  4597.67  5020.70  5046.55  5168.94
                             5207.65

 Zero-point correction=                           0.200943 (Hartree/Particle)
 Thermal correction to Energy=                    0.212804
 Thermal correction to Enthalpy=                  0.213748
 Thermal correction to Gibbs Free Energy=         0.163779
 Sum of electronic and zero-point Energies=           -567.975197
 Sum of electronic and thermal Energies=              -567.963337
 Sum of electronic and thermal Enthalpies=            -567.962392
 Sum of electronic and thermal Free Energies=         -568.012362

                     E (Thermal)             CV                S
                      KCal/Mol        Cal/Mol-Kelvin    Cal/Mol-Kelvin
 Total                  133.536             45.645            105.169
 Electronic               0.000              0.000              0.000
 Translational            0.889              2.981             41.266
 Rotational               0.889              2.981             30.508
 Vibrational            131.759             39.683             33.395
 Vibration     1          0.597              1.972              4.356
 Vibration     2          0.600              1.962              3.844
 Vibration     3          0.608              1.936              3.165
 Vibration     4          0.630              1.865              2.315
 Vibration     5          0.637              1.843              2.157
 Vibration     6          0.657              1.781              1.809
 Vibration     7          0.665              1.757              1.706
 Vibration     8          0.671              1.738              1.633
 Vibration     9          0.678              1.718              1.557
 Vibration    10          0.712              1.617              1.263
 Vibration    11          0.719              1.597              1.216
 Vibration    12          0.732              1.563              1.139
 Vibration    13          0.763              1.478              0.975
 Vibration    14          0.850              1.262              0.672
 Vibration    15          0.863              1.233              0.640
 Vibration    16          0.871              1.214              0.619
 Vibration    17          0.896              1.160              0.564
 Vibration    18          0.918              1.114              0.520
 Vibration    19          0.944              1.060              0.473

 Optimization completed.
    -- Stationary point found.
 Normal termination of Gaussian 16 at Wed Dec  9 17:07:57 2020.

 ----------------------------------------------------------------------
 # B3LYP/6-311++G(d,p) empiricaldispersion=gd3bj scf=xqc pop=npa geom=c
 heck
 ----------------------------------------------------------------------

 ---------------------------------------
 CID_130593960_JID_2313_Energie_neutraal
 ---------------------------------------
 Structure from the checkpoint file:  "JID_2313.chk"
 Charge =  0 Multiplicity = 1

 SCF Done:  E(RB3LYP) =  -568.347071689     A.U. after   15 cycles
 Normal termination of Gaussian 16 at Wed Dec  9 17:10:42 2020.

 ----------------------------------------------------------------------
 # B3LYP/6-311++G(d,p) empiricaldispersion=gd3bj scf=xqc pop=npa geom=c
 heck
 ----------------------------------------------------------------------

 -------------------------------------
 CID_130593960_JID_2313_Energie_kation
 -------------------------------------
 Structure from the checkpoint file:  "JID_2313.chk"
 Charge =  1 Multiplicity = 2

 SCF Done:  E(UB3LYP) =  -568.076268395     A.U. after   23 cycles
 Normal termination of Gaussian 16 at Wed Dec  9 17:16:25 2020.
 Gaussian 16:  ES64L-G16RevA.03 25-Dec-2016

 ----------------------------------------------------------------------
 # B3LYP/6-311++G(d,p) empiricaldispersion=gd3bj scf=xqc pop=npa geom=c
 heck
 ----------------------------------------------------------------------

 ------------------------------------
 CID_130593960_JID_2313_Energie_anion
 ------------------------------------
 Structure from the checkpoint file:  "JID_2313.chk"
 Charge = -1 Multiplicity = 2

                         Standard orientation:
 ---------------------------------------------------------------------
 Center     Atomic      Atomic             Coordinates (Angstroms)
 Number     Number       Type             X           Y           Z
 ---------------------------------------------------------------------
      1          6           0       -2.592736    1.153343   -0.672034
      2          7           0       -1.602179    0.087806   -0.667498
      3          6           0       -0.284036    0.419580   -0.263422
      4          7           0       -0.051096    1.702682    0.034245
      5          6           0        1.202665    2.059932    0.334307
      6          6           0        2.268929    1.170885    0.357289
      7          6           0        2.029375   -0.170874    0.037362
      8          6           0        0.716786   -0.573920   -0.269538
      9          7           0        0.495135   -1.912559   -0.636843
     10          7           0        3.031380   -1.145009    0.026984
     11          8           0       -2.114318   -1.080402   -0.002225
     12          6           0       -2.178066   -0.944445    1.422143
     13          1           0       -2.261289    1.918444   -1.375343
     14          1           0       -2.733382    1.637410    0.303766
     15          1           0       -3.532415    0.717052   -1.017859
     16          1           0        1.358037    3.111186    0.567933
     17          1           0        3.272654    1.509331    0.599413
     18          1           0        0.953554   -2.557807    0.002684
     19          1           0       -0.497146   -2.122637   -0.685464
     20          1           0        3.970418   -0.763873    0.019453
     21          1           0        2.907130   -1.818253   -0.724942
     22          1           0       -1.187624   -0.755345    1.852287
     23          1           0       -2.865833   -0.145858    1.721477
     24          1           0       -2.559738   -1.903877    1.779542
 ---------------------------------------------------------------------

 SCF Done:  E(UB3LYP) =  -568.333344852     A.U. after   32 cycles

 The electronic state is 2-A.
 Alpha  occ. eigenvalues --  -19.06544 -14.27006 -14.21276 -14.20772 -14.19605
 Alpha  occ. eigenvalues --  -10.13022 -10.11530 -10.11416 -10.10524 -10.09701
 Alpha  occ. eigenvalues --  -10.09448 -10.06531  -0.98439  -0.85493  -0.82182
 Alpha  occ. eigenvalues --   -0.78855  -0.76517  -0.66361  -0.64284  -0.60847
 Alpha  occ. eigenvalues --   -0.56878  -0.51771  -0.49698  -0.44471  -0.43401
 Alpha  occ. eigenvalues --   -0.40087  -0.39797  -0.38297  -0.36641  -0.36360
 Alpha  occ. eigenvalues --   -0.34966  -0.34057  -0.32987  -0.31781  -0.30585
 Alpha  occ. eigenvalues --   -0.29406  -0.27645  -0.26196  -0.23751  -0.21985
 Alpha  occ. eigenvalues --   -0.19305  -0.16933  -0.16060  -0.12489  -0.09877
 Alpha  occ. eigenvalues --    0.04583
 Alpha virt. eigenvalues --    0.06390   0.07501   0.08275   0.08628   0.09420
 Alpha virt. eigenvalues --    0.09761   0.09928   0.11166   0.11254   0.12180
 Alpha virt. eigenvalues --    0.12505   0.13292   0.13875   0.15016   0.16292

  Beta  occ. eigenvalues --  -19.06537 -14.27004 -14.21197 -14.20737 -14.19605
  Beta  occ. eigenvalues --  -10.13021 -10.11490 -10.11412 -10.10519 -10.09691
  Beta  occ. eigenvalues --  -10.09444 -10.06511  -0.98428  -0.85475  -0.82130
  Beta  occ. eigenvalues --   -0.78786  -0.76501  -0.66308  -0.64258  -0.60798
  Beta  occ. eigenvalues --   -0.56832  -0.51739  -0.49637  -0.44438  -0.43347
  Beta  occ. eigenvalues --   -0.40043  -0.39761  -0.38231  -0.36602  -0.36312
  Beta  occ. eigenvalues --   -0.34928  -0.34014  -0.32942  -0.31754  -0.30566
  Beta  occ. eigenvalues --   -0.29384  -0.27606  -0.26162  -0.23717  -0.21952
  Beta  occ. eigenvalues --   -0.19292  -0.16910  -0.16051  -0.12460  -0.09844
  Beta virt. eigenvalues --    0.06839   0.07925   0.08120   0.08579   0.08991
  Beta virt. eigenvalues --    0.09803   0.10097   0.10310   0.11434   0.12061
  Beta virt. eigenvalues --    0.12472   0.12802   0.13637   0.14366   0.15081

 Mulliken charges and spin densities:
               1          2
     1  C   -0.022540  -0.299883
     2  N   -0.082698   0.040134
     3  C    0.155875  -0.753476
     4  N   -0.164354   0.085148
     5  C    0.446114  -0.602144
     6  C    0.089140   0.035540
     7  C   -0.017857   0.119114
     8  C    0.488717  -0.689861
     9  N   -0.475709   0.039999
    10  N   -0.305321  -0.041006
    11  O   -0.116127   0.042567
    12  C    0.791223  -1.111345
    13  H    0.099120   0.060233
    14  H    0.131158   0.034128
    15  H    0.026429   0.128799
    16  H    0.107825   0.054387
    17  H   -0.738986   0.895254
    18  H   -0.088389   0.343035
    19  H    0.303333  -0.032798
    20  H   -0.522469   0.792294
    21  H   -0.216109   0.470311
    22  H   -0.209202   0.384556
    23  H   -0.134543   0.275407
    24  H   -0.544631   0.729606
 Sum of Mulliken charges =  -1.00000   1.00000

 Dipole moment (field-independent basis, Debye):
    X=             -5.8116    Y=              3.7797    Z=             -1.5139  Tot=              7.0960
 Quadrupole moment (field-independent basis, Debye-Ang):
   XX=           -144.9791   YY=           -110.0132   ZZ=           -101.4417
   XY=              1.5497   XZ=              4.8081   YZ=              2.3792

 Summary of Natural Population Analysis:

                                       Natural Population
                Natural  -----------------------------------------------
    Atom  No    Charge         Core      Valence    Rydberg      Total
 -----------------------------------------------------------------------
      C    1   -0.18636      0.99964     2.17925    0.00747     3.18636
      N    2   -0.10450      0.99964     2.59090    0.01395     3.60450
      C    3    0.16566      0.99946     1.81915    0.01573     2.83434
      N    4   -0.26527      0.99967     2.75526    0.01034     3.76527
      C    5    0.01981      0.99959     1.96587    0.01473     2.98019
      C    6   -0.14502      0.99952     2.13556    0.00994     3.14502
      C    7    0.08863      0.99946     1.89907    0.01283     2.91137
      C    8    0.04291      0.99941     1.94491    0.01277     2.95709
      N    9   -0.40705      0.99972     2.89611    0.01122     3.90705
      N   10   -0.39544      0.99972     2.88450    0.01123     3.89544
      O   11   -0.22628      0.99990     3.21657    0.00980     4.22628
      C   12   -0.11020      0.99962     2.10067    0.00991     3.11020
      H   13    0.10618      0.00000     0.39275    0.00107     0.39382
      H   14    0.09022      0.00000     0.40793    0.00185     0.40978
      H   15    0.09734      0.00000     0.40144    0.00123     0.40266
      H   16    0.08687      0.00000     0.41202    0.00111     0.41313
      H   17    0.10547      0.00000     0.39313    0.00139     0.39453
      H   18    0.18744      0.00000     0.30998    0.00258     0.31256
      H   19    0.19753      0.00000     0.29959    0.00288     0.30247
      H   20    0.19212      0.00000     0.29352    0.01436     0.30788
      H   21    0.19198      0.00000     0.30306    0.00496     0.30802
      H   22    0.08903      0.00000     0.40928    0.00169     0.41097
      H   23    0.08283      0.00000     0.41574    0.00143     0.41717
      H   24    0.09609      0.00000     0.40188    0.00203     0.40391
 =======================================================================
   * Total *    0.00000     11.99534    32.82815    0.17651    45.00000

 Normal termination of Gaussian 16 at Wed Dec  9 17:24:34 2020.
