 Gaussian 16, Revision A.03,

 -----------------------------------------------------------
 # opt freq B3LYP/6-31G(d) empiricaldispersion=gd3bj scf=xqc
 -----------------------------------------------------------

 ------------------------------
 CID_39239787_JID_5815_neutraal
 ------------------------------
 Symbolic Z-matrix:
 Charge =  0 Multiplicity = 1

 SCF Done:  E(RB3LYP) =  -628.188067910     A.U. after   15 cycles
 SCF Done:  E(RB3LYP) =  -628.189472382     A.U. after   12 cycles
 SCF Done:  E(RB3LYP) =  -628.189701307     A.U. after   12 cycles
 SCF Done:  E(RB3LYP) =  -628.189894080     A.U. after   11 cycles
 SCF Done:  E(RB3LYP) =  -628.189996441     A.U. after   11 cycles
 SCF Done:  E(RB3LYP) =  -628.190030705     A.U. after   11 cycles
 SCF Done:  E(RB3LYP) =  -628.190048978     A.U. after   10 cycles
 SCF Done:  E(RB3LYP) =  -628.190051835     A.U. after    8 cycles
 SCF Done:  E(RB3LYP) =  -628.190053758     A.U. after    9 cycles
 SCF Done:  E(RB3LYP) =  -628.190054122     A.U. after    8 cycles
 SCF Done:  E(RB3LYP) =  -628.190054179     A.U. after    7 cycles
 Optimization completed.
    -- Stationary point found.
 Normal termination of Gaussian 16 at Thu Dec 10 17:07:37 2020.

 --------------------------------------------------------------------
 #N Geom=AllCheck Guess=TCheck SCRF=Check GenChk RB3LYP/6-31G(d) Freq
 --------------------------------------------------------------------

 Structure from the checkpoint file:  "JID_5815.chk"
 ------------------------------
 CID_39239787_JID_5815_neutraal
 ------------------------------
 Charge =  0 Multiplicity = 1

 SCF Done:  E(RB3LYP) =  -628.190054179     A.U. after    1 cycles

  Exact polarizability: 244.618   5.552 131.537  -2.817  -1.548  64.306
 Approx polarizability: 339.629  10.738 233.002  -5.630  -7.229 101.393

                      1                      2                      3
                      A                      A                      A
 Frequencies --     39.1130                62.0668                81.2456
 Red. masses --      5.3883                 4.5693                 5.5422
 Frc consts  --      0.0049                 0.0104                 0.0216
 IR Inten    --      0.9645                 0.7428                 2.0912

                      4                      5                      6
                      A                      A                      A
 Frequencies --    133.9317               140.0252               171.3320
 Red. masses --      2.1020                 1.4390                 6.2669
 Frc consts  --      0.0222                 0.0166                 0.1084
 IR Inten    --      1.4917                 1.1960                 1.1841

                      7                      8                      9
                      A                      A                      A
 Frequencies --    172.0809               192.8520               254.0850
 Red. masses --      1.2027                 2.8954                 3.5264
 Frc consts  --      0.0210                 0.0634                 0.1341
 IR Inten    --      0.5856                 0.5748                 0.8855

                     10                     11                     12
                      A                      A                      A
 Frequencies --    281.4630               313.3689               341.6923
 Red. masses --      5.0148                 2.9494                 4.5062
 Frc consts  --      0.2341                 0.1706                 0.3100
 IR Inten    --      0.1898                 0.1855                 0.8741

                     13                     14                     15
                      A                      A                      A
 Frequencies --    370.3417               450.1550               480.3966
 Red. masses --      4.4348                 2.9420                 3.6392
 Frc consts  --      0.3584                 0.3513                 0.4948
 IR Inten    --      1.2557                 1.1324                 1.5935

                     16                     17                     18
                      A                      A                      A
 Frequencies --    511.8380               533.6981               557.9615
 Red. masses --      6.8611                 4.7396                 2.9865
 Frc consts  --      1.0590                 0.7954                 0.5478
 IR Inten    --      1.4940                 2.3376                16.0645

                     19                     20                     21
                      A                      A                      A
 Frequencies --    582.2718               595.0324               601.1500
 Red. masses --      3.3752                 6.4446                 2.3076
 Frc consts  --      0.6742                 1.3444                 0.4913
 IR Inten    --     21.2177                 0.9831                34.1036

                     22                     23                     24
                      A                      A                      A
 Frequencies --    667.2329               701.6168               711.6458
 Red. masses --      5.7439                 3.0172                 4.1997
 Frc consts  --      1.5067                 0.8751                 1.2531
 IR Inten    --      1.4615                10.7292                 1.2039

                     25                     26                     27
                      A                      A                      A
 Frequencies --    730.0546               767.7046               819.9648
 Red. masses --      2.9860                 4.4170                 1.4231
 Frc consts  --      0.9377                 1.5338                 0.5638
 IR Inten    --      0.5483                 0.3303                46.3473

                     28                     29                     30
                      A                      A                      A
 Frequencies --    842.3922               886.8918               891.7724
 Red. masses --      1.4092                 3.2490                 1.6339
 Frc consts  --      0.5892                 1.5057                 0.7655
 IR Inten    --     10.5531                 5.7831                 6.4174

                     31                     32                     33
                      A                      A                      A
 Frequencies --    959.6254              1009.0799              1016.4292
 Red. masses --      1.3013                 2.1988                 4.8125
 Frc consts  --      0.7061                 1.3192                 2.9294
 IR Inten    --      0.3938                20.3411                34.7355

                     34                     35                     36
                      A                      A                      A
 Frequencies --   1029.9037              1041.0723              1059.8271
 Red. masses --      1.6439                 2.1247                 1.4339
 Frc consts  --      1.0273                 1.3568                 0.9489
 IR Inten    --      1.1413                 2.0009                 6.3743

                     37                     38                     39
                      A                      A                      A
 Frequencies --   1085.3771              1103.3240              1162.2412
 Red. masses --      1.6021                 1.8178                 2.0182
 Frc consts  --      1.1120                 1.3038                 1.6062
 IR Inten    --      0.0014                 8.9242                 2.7884

                     40                     41                     42
                      A                      A                      A
 Frequencies --   1195.1511              1219.1707              1233.8596
 Red. masses --      1.6035                 3.1601                 2.3152
 Frc consts  --      1.3494                 2.7674                 2.0767
 IR Inten    --      1.3409                38.7393                 0.3013

                     43                     44                     45
                      A                      A                      A
 Frequencies --   1265.5141              1308.2535              1336.9969
 Red. masses --      2.4794                 2.9529                 1.7076
 Frc consts  --      2.3396                 2.9777                 1.7984
 IR Inten    --      5.2847                 3.4314                 4.7094

                     46                     47                     48
                      A                      A                      A
 Frequencies --   1351.8334              1420.1431              1436.6283
 Red. masses --      7.6834                 3.0013                 2.9147
 Frc consts  --      8.2728                 3.5663                 3.5443
 IR Inten    --      2.3466                 0.3099                 6.4513

                     49                     50                     51
                      A                      A                      A
 Frequencies --   1442.1491              1452.2756              1473.2823
 Red. masses --      1.5700                 1.2317                 2.9148
 Frc consts  --      1.9239                 1.5306                 3.7276
 IR Inten    --      2.1956                 0.4114                 3.8010

                     52                     53                     54
                      A                      A                      A
 Frequencies --   1479.5655              1505.9995              1521.2720
 Red. masses --      4.1051                 1.0450                 1.1720
 Frc consts  --      5.2947                 1.3964                 1.5980
 IR Inten    --      4.6674                 0.0018                19.6183

                     55                     56                     57
                      A                      A                      A
 Frequencies --   1521.9296              1524.6710              1550.4416
 Red. masses --      1.0453                 1.1952                 2.3375
 Frc consts  --      1.4265                 1.6369                 3.3106
 IR Inten    --     15.6511                 2.3313                48.7959

                     58                     59                     60
                      A                      A                      A
 Frequencies --   1621.7751              1627.5080              1677.4823
 Red. masses --      4.5590                 5.9252                 5.7714
 Frc consts  --      7.0648                 9.2470                 9.5686
 IR Inten    --     17.6296                 2.7513                 2.5597

                     61                     62                     63
                      A                      A                      A
 Frequencies --   2365.8893              3040.8432              3042.9833
 Red. masses --     12.6660                 1.0388                 1.0380
 Frc consts  --     41.7713                 5.6594                 5.6630
 IR Inten    --     35.8301                24.5567                36.9438

                     64                     65                     66
                      A                      A                      A
 Frequencies --   3088.4952              3092.4071              3130.4623
 Red. masses --      1.1001                 1.1002                 1.1005
 Frc consts  --      6.1829                 6.1992                 6.3543
 IR Inten    --     25.8582                 9.0304                23.9994

                     67                     68                     69
                      A                      A                      A
 Frequencies --   3132.9668              3173.7302              3186.3687
 Red. masses --      1.0999                 1.0895                 1.0882
 Frc consts  --      6.3606                 6.4655                 6.5096
 IR Inten    --      9.3658                18.1588                14.2561

                     70                     71                     72
                      A                      A                      A
 Frequencies --   3209.6238              3296.2290              3657.2805
 Red. masses --      1.0938                 1.0978                 1.0810
 Frc consts  --      6.6387                 7.0278                 8.5194
 IR Inten    --     10.1488                 1.1617                68.3773

 - Thermochemistry -
 -------------------
 Temperature   298.150 Kelvin.  Pressure   1.00000 Atm.
 Atom     1 has atomic number  6 and mass  12.00000

 Molecular mass:   197.09530 amu.
 Principal axes and moments of inertia in atomic units:
                           1         2         3
     Eigenvalues --   887.175986939.140127701.54807
           X            0.99999   0.00340   0.00192
           Y           -0.00342   0.99995   0.00944
           Z           -0.00189  -0.00944   0.99995
 This molecule is an asymmetric top.
 Rotational symmetry number  1.
 Warning -- assumption of classical behavior for rotation
           may cause significant error
 Rotational temperatures (Kelvin)      0.09763     0.01248     0.01125
 Rotational constants (GHZ):           2.03425     0.26008     0.23433
 Zero-point vibrational energy     543914.7 (Joules/Mol)
                                  129.99874 (Kcal/Mol)
 Warning -- explicit consideration of  21 degrees of freedom as
           vibrations may cause significant error
 Vibrational temperatures:     56.27    89.30   116.89   192.70   201.46
          (Kelvin)            246.51   247.59   277.47   365.57   404.96
                              450.87   491.62   532.84   647.67   691.18
                              736.42   767.87   802.78   837.76   856.12
                              864.92   960.00  1009.47  1023.90  1050.39
                             1104.56  1179.75  1212.01  1276.04  1283.06
                             1380.69  1451.84  1462.41  1481.80  1497.87
                             1524.85  1561.62  1587.44  1672.21  1719.56
                             1754.11  1775.25  1820.79  1882.28  1923.64
                             1944.99  2043.27  2066.99  2074.93  2089.50
                             2119.72  2128.76  2166.80  2188.77  2189.72
                             2193.66  2230.74  2333.37  2341.62  2413.52
                             3403.99  4375.10  4378.17  4443.66  4449.28
                             4504.04  4507.64  4566.29  4584.47  4617.93
                             4742.54  5262.01

 Zero-point correction=                           0.207166 (Hartree/Particle)
 Thermal correction to Energy=                    0.220410
 Thermal correction to Enthalpy=                  0.221354
 Thermal correction to Gibbs Free Energy=         0.166752
 Sum of electronic and zero-point Energies=           -627.982888
 Sum of electronic and thermal Energies=              -627.969644
 Sum of electronic and thermal Enthalpies=            -627.968700
 Sum of electronic and thermal Free Energies=         -628.023302

                     E (Thermal)             CV                S
                      KCal/Mol        Cal/Mol-Kelvin    Cal/Mol-Kelvin
 Total                  138.310             50.220            114.920
 Electronic               0.000              0.000              0.000
 Translational            0.889              2.981             41.741
 Rotational               0.889              2.981             32.228
 Vibrational            136.532             44.259             40.951
 Vibration     1          0.594              1.981              5.304
 Vibration     2          0.597              1.972              4.390
 Vibration     3          0.600              1.962              3.861
 Vibration     4          0.613              1.919              2.889
 Vibration     5          0.615              1.913              2.804
 Vibration     6          0.626              1.878              2.421
 Vibration     7          0.626              1.877              2.413
 Vibration     8          0.635              1.850              2.200
 Vibration     9          0.665              1.756              1.702
 Vibration    10          0.681              1.708              1.525
 Vibration    11          0.701              1.648              1.344
 Vibration    12          0.721              1.592              1.204
 Vibration    13          0.742              1.533              1.078
 Vibration    14          0.809              1.361              0.795
 Vibration    15          0.837              1.294              0.709
 Vibration    16          0.867              1.224              0.629
 Vibration    17          0.889              1.175              0.579
 Vibration    18          0.914              1.122              0.528
 Vibration    19          0.939              1.070              0.481
 Vibration    20          0.953              1.042              0.458
 Vibration    21          0.959              1.029              0.448

 Optimization completed.
    -- Stationary point found.
 Normal termination of Gaussian 16 at Thu Dec 10 17:15:47 2020.

 ----------------------------------------------------------------------
 # B3LYP/6-311++G(d,p) empiricaldispersion=gd3bj scf=xqc pop=npa geom=c
 heck
 ----------------------------------------------------------------------

 --------------------------------------
 CID_39239787_JID_5815_Energie_neutraal
 --------------------------------------
 Structure from the checkpoint file:  "JID_5815.chk"
 Charge =  0 Multiplicity = 1

 SCF Done:  E(RB3LYP) =  -628.352762771     A.U. after   16 cycles
 Normal termination of Gaussian 16 at Thu Dec 10 17:18:53 2020.

 ----------------------------------------------------------------------
 # B3LYP/6-311++G(d,p) empiricaldispersion=gd3bj scf=xqc pop=npa geom=c
 heck
 ----------------------------------------------------------------------

 ------------------------------------
 CID_39239787_JID_5815_Energie_kation
 ------------------------------------
 Structure from the checkpoint file:  "JID_5815.chk"
 Charge =  1 Multiplicity = 2

 SCF Done:  E(UB3LYP) =  -628.047943039     A.U. after   24 cycles
 Normal termination of Gaussian 16 at Thu Dec 10 17:28:37 2020.
 Gaussian 16:  ES64L-G16RevA.03 25-Dec-2016

 ----------------------------------------------------------------------
 # B3LYP/6-311++G(d,p) empiricaldispersion=gd3bj scf=xqc pop=npa geom=c
 heck
 ----------------------------------------------------------------------

 -----------------------------------
 CID_39239787_JID_5815_Energie_anion
 -----------------------------------
 Structure from the checkpoint file:  "JID_5815.chk"
 Charge = -1 Multiplicity = 2

                         Standard orientation:
 ---------------------------------------------------------------------
 Center     Atomic      Atomic             Coordinates (Angstroms)
 Number     Number       Type             X           Y           Z
 ---------------------------------------------------------------------
      1          6           0        4.638776   -0.874233   -0.003410
      2          6           0        3.153984   -0.616257   -0.021006
      3          6           0        2.647265    0.689571    0.146336
      4          6           0        1.267258    0.891069    0.129012
      5          6           0        0.365899   -0.167649   -0.060406
      6          6           0        0.878180   -1.460124   -0.224907
      7          6           0        2.252912   -1.670641   -0.199907
      8          6           0       -1.077964    0.062820   -0.085114
      9          6           0       -2.152442   -0.749282    0.245505
     10          6           0       -3.299413    0.048863    0.013626
     11          7           0       -2.977756    1.273048   -0.435062
     12          7           0       -1.638060    1.249245   -0.476122
     13          6           0       -4.661364   -0.323384    0.213232
     14          7           0       -5.758115   -0.666238    0.388942
     15          6           0        3.580853    1.855113    0.355955
     16          1           0        5.155526   -0.313351   -0.792490
     17          1           0        5.090234   -0.566352    0.948291
     18          1           0        4.856381   -1.935925   -0.149297
     19          1           0        0.887594    1.895834    0.300399
     20          1           0        0.201131   -2.292158   -0.391543
     21          1           0        2.639310   -2.677931   -0.331717
     22          1           0       -2.120608   -1.756585    0.630529
     23          1           0       -1.153461    2.054017   -0.845871
     24          1           0        3.026720    2.790107    0.478290
     25          1           0        4.204823    1.715900    1.247541
     26          1           0        4.266194    1.978856   -0.491939
 ---------------------------------------------------------------------

 SCF Done:  E(UB3LYP) =  -628.357197335     A.U. after   33 cycles
 SCF Done:  E(UB3LYP) =  -628.357197335     a.u. after    1 cycles

 The electronic state is 2-A.
 Alpha  occ. eigenvalues --  -14.25527 -14.20594 -14.19473 -10.09893 -10.09652
 Alpha  occ. eigenvalues --  -10.08605 -10.06422 -10.06218 -10.06092 -10.05366
 Alpha  occ. eigenvalues --  -10.05065 -10.04882 -10.04815 -10.04731 -10.04565
 Alpha  occ. eigenvalues --   -0.93070  -0.79208  -0.74581  -0.71215  -0.68460
 Alpha  occ. eigenvalues --   -0.65288  -0.64404  -0.58722  -0.56473  -0.54602
 Alpha  occ. eigenvalues --   -0.49712  -0.48439  -0.45704  -0.41506  -0.37668
 Alpha  occ. eigenvalues --   -0.36424  -0.35415  -0.33528  -0.32994  -0.32839
 Alpha  occ. eigenvalues --   -0.31741  -0.29987  -0.29631  -0.28911  -0.28182
 Alpha  occ. eigenvalues --   -0.27530  -0.25571  -0.25085  -0.23727  -0.23185
 Alpha  occ. eigenvalues --   -0.22213  -0.21991  -0.18308  -0.16244  -0.14713
 Alpha  occ. eigenvalues --   -0.13286  -0.10565   0.04416
 Alpha virt. eigenvalues --    0.06547   0.07830   0.08691   0.08902   0.09523
 Alpha virt. eigenvalues --    0.10096   0.10508   0.10958   0.11563   0.12413
 Alpha virt. eigenvalues --    0.12791   0.13077   0.13690   0.13969   0.14535

  Beta  occ. eigenvalues --  -14.25215 -14.20154 -14.19459 -10.09942 -10.09634
  Beta  occ. eigenvalues --  -10.08496 -10.06405 -10.06288 -10.06104 -10.05370
  Beta  occ. eigenvalues --  -10.04880 -10.04865 -10.04769 -10.04442 -10.04425
  Beta  occ. eigenvalues --   -0.92502  -0.79176  -0.74261  -0.70772  -0.68158
  Beta  occ. eigenvalues --   -0.65156  -0.64098  -0.58535  -0.56238  -0.54409
  Beta  occ. eigenvalues --   -0.49459  -0.48188  -0.45469  -0.41321  -0.37467
  Beta  occ. eigenvalues --   -0.36274  -0.35228  -0.33143  -0.32715  -0.32008
  Beta  occ. eigenvalues --   -0.31641  -0.29895  -0.29507  -0.28798  -0.28131
  Beta  occ. eigenvalues --   -0.27418  -0.25526  -0.24698  -0.23063  -0.22995
  Beta  occ. eigenvalues --   -0.22115  -0.21898  -0.17764  -0.14835  -0.14048
  Beta  occ. eigenvalues --   -0.12682  -0.09201
  Beta virt. eigenvalues --    0.06632   0.07899   0.08669   0.09240   0.09751
  Beta virt. eigenvalues --    0.10021   0.10159   0.10486   0.11182   0.11595
  Beta virt. eigenvalues --    0.12448   0.12732   0.13100   0.13753   0.13970

 Mulliken charges and spin densities:
               1          2
     1  C    0.083662  -0.645679
     2  C    0.009265   0.762465
     3  C   -0.356449   0.334923
     4  C   -0.442028   0.152822
     5  C    1.561178  -0.207425
     6  C   -1.014243   0.037011
     7  C   -0.470420  -0.133210
     8  C    0.376709  -0.020938
     9  C   -0.537423   0.138281
    10  C    1.385499  -0.060599
    11  N   -0.047505   0.215589
    12  N   -0.150684   0.069726
    13  C   -1.716036   0.005951
    14  N   -0.278086   0.005761
    15  C   -0.061278  -0.456635
    16  H   -0.085738   0.235315
    17  H    0.123192   0.009054
    18  H    0.006445   0.128633
    19  H    0.104698  -0.069618
    20  H    0.069754   0.029993
    21  H    0.085991   0.001249
    22  H    0.134479   0.000362
    23  H    0.212913   0.057211
    24  H   -0.041669   0.192269
    25  H    0.036083   0.092250
    26  H    0.011692   0.125238
 Sum of Mulliken charges =  -1.00000   1.00000

 Dipole moment (field-independent basis, Debye):
    X=              5.4821    Y=             -0.2361    Z=              0.8004  Tot=              5.5452
 Quadrupole moment (field-independent basis, Debye-Ang):
   XX=           -191.9703   YY=           -100.8284   ZZ=           -101.1804
   XY=             -2.1468   XZ=              6.2070   YZ=              0.4557

 Summary of Natural Population Analysis:

                                       Natural Population
                Natural  -----------------------------------------------
    Atom  No    Charge         Core      Valence    Rydberg      Total
 -----------------------------------------------------------------------
      C    1   -0.29529      0.99965     2.29055    0.00509     3.29529
      C    2    0.02649      0.99948     1.96540    0.00864     2.97351
      C    3   -0.03036      0.99948     2.02197    0.00890     3.03036
      C    4   -0.06713      0.99949     2.05958    0.00805     3.06713
      C    5   -0.01473      0.99949     2.00644    0.00879     3.01473
      C    6   -0.08098      0.99954     2.07303    0.00841     3.08098
      C    7   -0.10549      0.99953     2.09663    0.00933     3.10549
      C    8    0.09325      0.99953     1.89409    0.01312     2.90675
      C    9   -0.14083      0.99949     2.13514    0.00620     3.14083
      C   10   -0.03042      0.99949     2.01656    0.01437     3.03042
      N   11   -0.07708      0.99972     2.56414    0.01322     3.57708
      N   12   -0.12155      0.99966     2.60935    0.01254     3.62155
      C   13    0.16149      0.99963     1.82234    0.01654     2.83851
      N   14   -0.20088      0.99979     2.69038    0.01071     3.70088
      C   15   -0.29233      0.99964     2.28683    0.00586     3.29233
      H   16    0.10325      0.00000     0.39530    0.00146     0.39675
      H   17    0.09882      0.00000     0.40028    0.00090     0.40118
      H   18    0.09786      0.00000     0.40139    0.00075     0.40214
      H   19    0.08929      0.00000     0.40911    0.00160     0.41071
      H   20    0.09512      0.00000     0.40351    0.00137     0.40488
      H   21    0.09176      0.00000     0.40734    0.00090     0.40824
      H   22    0.10780      0.00000     0.39144    0.00075     0.39220
      H   23    0.19343      0.00000     0.30426    0.00231     0.30657
      H   24    0.09935      0.00000     0.39988    0.00077     0.40065
      H   25    0.09843      0.00000     0.40061    0.00095     0.40157
      H   26    0.10071      0.00000     0.39828    0.00101     0.39929
 =======================================================================
   * Total *   -0.00000     14.99361    36.84386    0.16254    52.00000

 Normal termination of Gaussian 16 at Thu Dec 10 17:38:49 2020.
