 Gaussian 16, Revision A.03,

 -----------------------------------------------------------
 # opt freq B3LYP/6-31G(d) empiricaldispersion=gd3bj scf=xqc
 -----------------------------------------------------------

 ------------------------------
 CID_18360655_JID_6138_neutraal
 ------------------------------
 Symbolic Z-matrix:
 Charge =  0 Multiplicity = 1

 SCF Done:  E(RB3LYP) =  -745.576433555     A.U. after   15 cycles
 SCF Done:  E(RB3LYP) =  -745.580587934     A.U. after   13 cycles
 SCF Done:  E(RB3LYP) =  -745.581147240     A.U. after   12 cycles
 SCF Done:  E(RB3LYP) =  -745.581172378     A.U. after   12 cycles
 SCF Done:  E(RB3LYP) =  -745.581351518     A.U. after   12 cycles
 SCF Done:  E(RB3LYP) =  -745.581380541     A.U. after   11 cycles
 SCF Done:  E(RB3LYP) =  -745.581389468     A.U. after   10 cycles
 SCF Done:  E(RB3LYP) =  -745.581392693     A.U. after    9 cycles
 SCF Done:  E(RB3LYP) =  -745.581393519     A.U. after    8 cycles
 SCF Done:  E(RB3LYP) =  -745.581393622     A.U. after    7 cycles
 Optimization completed.
    -- Stationary point found.
 Normal termination of Gaussian 16 at Thu Dec 10 21:08:33 2020.

 --------------------------------------------------------------------
 #N Geom=AllCheck Guess=TCheck SCRF=Check GenChk RB3LYP/6-31G(d) Freq
 --------------------------------------------------------------------

 Structure from the checkpoint file:  "JID_6138.chk"
 ------------------------------
 CID_18360655_JID_6138_neutraal
 ------------------------------
 Charge =  0 Multiplicity = 1

 SCF Done:  E(RB3LYP) =  -745.581393622     A.U. after    1 cycles

  Exact polarizability: 163.005 -25.202 126.414  22.243  14.487 107.559
 Approx polarizability: 243.761 -58.721 223.707  38.380  40.408 172.969

                      1                      2                      3
                      A                      A                      A
 Frequencies --     23.8376                43.9400                49.0295
 Red. masses --      5.5926                 4.5066                 6.0510
 Frc consts  --      0.0019                 0.0051                 0.0086
 IR Inten    --      1.0206                 4.4441                 0.8820

                      4                      5                      6
                      A                      A                      A
 Frequencies --     91.5482               103.0133               137.8707
 Red. masses --      2.8374                 2.0107                 5.6880
 Frc consts  --      0.0140                 0.0126                 0.0637
 IR Inten    --      2.1279                 3.7622                 0.0454

                      7                      8                      9
                      A                      A                      A
 Frequencies --    155.7027               165.7498               234.8768
 Red. masses --      2.0151                 3.1789                 3.6148
 Frc consts  --      0.0288                 0.0515                 0.1175
 IR Inten    --      0.1720                 4.6218                 2.3551

                     10                     11                     12
                      A                      A                      A
 Frequencies --    269.0515               300.8679               316.0655
 Red. masses --      3.3648                 2.5582                 1.1251
 Frc consts  --      0.1435                 0.1364                 0.0662
 IR Inten    --      5.6269                 1.8469               112.9785

                     13                     14                     15
                      A                      A                      A
 Frequencies --    343.7769               377.7471               434.2529
 Red. masses --      4.1479                 4.0364                 3.3365
 Frc consts  --      0.2888                 0.3393                 0.3707
 IR Inten    --      0.0918                 5.7513                 1.3188

                     16                     17                     18
                      A                      A                      A
 Frequencies --    445.0251               458.3909               491.7543
 Red. masses --      3.9457                 6.7566                 2.4079
 Frc consts  --      0.4604                 0.8365                 0.3431
 IR Inten    --      5.2311                 0.0979                16.8825

                     19                     20                     21
                      A                      A                      A
 Frequencies --    509.2271               533.7072               574.3193
 Red. masses --      3.8016                 1.8765                 3.6092
 Frc consts  --      0.5808                 0.3149                 0.7014
 IR Inten    --      1.1881                58.2437                16.6909

                     22                     23                     24
                      A                      A                      A
 Frequencies --    584.0465               600.6534               655.6447
 Red. masses --      2.9405                 3.0833                 3.5285
 Frc consts  --      0.5910                 0.6554                 0.8937
 IR Inten    --      9.6576                 1.2184                18.4344

                     25                     26                     27
                      A                      A                      A
 Frequencies --    688.9930               709.0239               749.3391
 Red. masses --      4.7668                 3.3139                 3.8972
 Frc consts  --      1.3332                 0.9815                 1.2893
 IR Inten    --      4.1912                25.4982                 7.2130

                     28                     29                     30
                      A                      A                      A
 Frequencies --    772.0477               792.1660               793.7283
 Red. masses --      3.6981                 3.5057                 1.8949
 Frc consts  --      1.2987                 1.2961                 0.7033
 IR Inten    --      2.8904                14.5365                29.3524

                     31                     32                     33
                      A                      A                      A
 Frequencies --    810.0602               826.4035               862.7021
 Red. masses --      1.4875                 5.3579                 1.4318
 Frc consts  --      0.5751                 2.1559                 0.6279
 IR Inten    --      2.5923                32.4555                24.3174

                     34                     35                     36
                      A                      A                      A
 Frequencies --    913.1773               942.4168               965.3857
 Red. masses --      1.2734                 3.4651                 2.6022
 Frc consts  --      0.6256                 1.8132                 1.4289
 IR Inten    --      1.7122                25.2800                 9.2442

                     37                     38                     39
                      A                      A                      A
 Frequencies --    974.0283              1030.5826              1075.5211
 Red. masses --      2.3288                 2.1098                 2.2387
 Frc consts  --      1.3017                 1.3202                 1.5257
 IR Inten    --      4.7748                 3.3100                10.2138

                     40                     41                     42
                      A                      A                      A
 Frequencies --   1087.1157              1137.8300              1153.2399
 Red. masses --      2.2844                 2.8625                 1.6675
 Frc consts  --      1.5906                 2.1835                 1.3066
 IR Inten    --     22.3118                52.8735                 5.0227

                     43                     44                     45
                      A                      A                      A
 Frequencies --   1162.0588              1181.6412              1210.0604
 Red. masses --      1.2585                 1.3120                 1.4923
 Frc consts  --      1.0013                 1.0793                 1.2874
 IR Inten    --      0.6512                21.7303               137.9958

                     46                     47                     48
                      A                      A                      A
 Frequencies --   1215.2240              1215.7784              1237.7567
 Red. masses --      1.8139                 1.9643                 1.3419
 Frc consts  --      1.5782                 1.7107                 1.2113
 IR Inten    --     18.5276                20.6037                10.2531

                     49                     50                     51
                      A                      A                      A
 Frequencies --   1265.7484              1306.1889              1325.9200
 Red. masses --      1.9607                 1.7733                 2.0877
 Frc consts  --      1.8508                 1.7826                 2.1625
 IR Inten    --      8.4981                94.5087                 9.3404

                     52                     53                     54
                      A                      A                      A
 Frequencies --   1335.6346              1375.7379              1388.9459
 Red. masses --      2.0921                 1.4335                 2.8754
 Frc consts  --      2.1989                 1.5985                 3.2683
 IR Inten    --     32.9566                 8.0720                 8.5608

                     55                     56                     57
                      A                      A                      A
 Frequencies --   1414.0130              1424.7731              1478.1272
 Red. masses --      4.5269                 1.6816                 1.6704
 Frc consts  --      5.3329                 2.0112                 2.1503
 IR Inten    --     85.5932                43.9037                22.0943

                     58                     59                     60
                      A                      A                      A
 Frequencies --   1497.6566              1504.4182              1509.8614
 Red. masses --      3.1586                 1.2840                 1.1061
 Frc consts  --      4.1742                 1.7122                 1.4856
 IR Inten    --    101.1527                13.3884                 3.2744

                     61                     62                     63
                      A                      A                      A
 Frequencies --   1518.9192              1525.8468              1545.6719
 Red. masses --      1.1838                 1.0671                 3.2577
 Frc consts  --      1.6092                 1.4638                 4.5857
 IR Inten    --     30.5517                 8.2583                14.0179

                     64                     65                     66
                      A                      A                      A
 Frequencies --   1553.3212              1635.5905              1652.5182
 Red. masses --      1.0990                 6.1125                 7.2089
 Frc consts  --      1.5623                 9.6343                11.5987
 IR Inten    --     29.4376                 7.1133                50.5311

                     67                     68                     69
                      A                      A                      A
 Frequencies --   1689.2496              1783.6616              3050.0847
 Red. masses --      6.9960                 7.7798                 1.0368
 Frc consts  --     11.7621                14.5829                 5.6827
 IR Inten    --     20.7620               279.2288                30.7707

                     70                     71                     72
                      A                      A                      A
 Frequencies --   3057.5099              3078.8766              3110.0196
 Red. masses --      1.0655                 1.0622                 1.1038
 Frc consts  --      5.8686                 5.9328                 6.2902
 IR Inten    --     26.7704                21.0017                17.9233

                     73                     74                     75
                      A                      A                      A
 Frequencies --   3116.6432              3134.8973              3148.0576
 Red. masses --      1.0994                 1.1004                 1.1013
 Frc consts  --      6.2917                 6.3716                 6.4306
 IR Inten    --      1.3613                30.3713                14.2163

                     76                     77                     78
                      A                      A                      A
 Frequencies --   3175.7076              3216.6349              3224.8511
 Red. masses --      1.0893                 1.0909                 1.0934
 Frc consts  --      6.4726                 6.6505                 6.6998
 IR Inten    --     16.1432                 4.7503                 5.1747

                     79                     80                     81
                      A                      A                      A
 Frequencies --   3294.1069              3607.4191              3758.7312
 Red. masses --      1.0988                 1.0763                 1.0660
 Frc consts  --      7.0249                 8.2523                 8.8734
 IR Inten    --      0.1455                22.1445                46.6866

 - Thermochemistry -
 -------------------
 Temperature   298.150 Kelvin.  Pressure   1.00000 Atm.
 Atom     1 has atomic number  6 and mass  12.00000

 Molecular mass:   219.08954 amu.
 Principal axes and moments of inertia in atomic units:
                           1         2         3
     Eigenvalues --  2085.592424894.356655539.64372
           X            0.99994   0.00593   0.00932
           Y           -0.00572   0.99972  -0.02301
           Z           -0.00945   0.02295   0.99969
 This molecule is an asymmetric top.
 Rotational symmetry number  1.
 Warning -- assumption of classical behavior for rotation
           may cause significant error
 Rotational temperatures (Kelvin)      0.04153     0.01770     0.01564
 Rotational constants (GHZ):           0.86534     0.36874     0.32579
 Zero-point vibrational energy     616745.1 (Joules/Mol)
                                  147.40561 (Kcal/Mol)
 Warning -- explicit consideration of  23 degrees of freedom as
           vibrations may cause significant error
 Vibrational temperatures:     34.30    63.22    70.54   131.72   148.21
          (Kelvin)            198.37   224.02   238.48   337.94   387.11
                              432.88   454.75   494.62   543.49   624.79
                              640.29   659.52   707.52   732.66   767.89
                              826.32   840.31   864.21   943.33   991.31
                             1020.13  1078.13  1110.80  1139.75  1142.00
                             1165.50  1189.01  1241.24  1313.86  1355.93
                             1388.97  1401.41  1482.78  1547.43  1564.12
                             1637.08  1659.25  1671.94  1700.12  1741.01
                             1748.44  1749.23  1780.86  1821.13  1879.31
                             1907.70  1921.68  1979.38  1998.38  2034.45
                             2049.93  2126.70  2154.79  2164.52  2172.35
                             2185.39  2195.35  2223.88  2234.88  2353.25
                             2377.61  2430.45  2566.29  4388.39  4399.07
                             4429.82  4474.62  4484.15  4510.42  4529.35
                             4569.13  4628.02  4639.84  4739.49  5190.27
                             5407.98

 Zero-point correction=                           0.234906 (Hartree/Particle)
 Thermal correction to Energy=                    0.249585
 Thermal correction to Enthalpy=                  0.250529
 Thermal correction to Gibbs Free Energy=         0.191833
 Sum of electronic and zero-point Energies=           -745.346488
 Sum of electronic and thermal Energies=              -745.331808
 Sum of electronic and thermal Enthalpies=            -745.330864
 Sum of electronic and thermal Free Energies=         -745.389561

                     E (Thermal)             CV                S
                      KCal/Mol        Cal/Mol-Kelvin    Cal/Mol-Kelvin
 Total                  156.617             55.658            123.538
 Electronic               0.000              0.000              0.000
 Translational            0.889              2.981             42.056
 Rotational               0.889              2.981             32.403
 Vibrational            154.840             49.697             49.079
 Vibration     1          0.593              1.985              6.286
 Vibration     2          0.595              1.980              5.073
 Vibration     3          0.595              1.978              4.856
 Vibration     4          0.602              1.955              3.627
 Vibration     5          0.605              1.947              3.396
 Vibration     6          0.614              1.915              2.833
 Vibration     7          0.620              1.896              2.601
 Vibration     8          0.624              1.885              2.483
 Vibration     9          0.655              1.787              1.841
 Vibration    10          0.673              1.730              1.602
 Vibration    11          0.693              1.672              1.412
 Vibration    12          0.703              1.643              1.330
 Vibration    13          0.723              1.588              1.195
 Vibration    14          0.748              1.518              1.048
 Vibration    15          0.795              1.396              0.845
 Vibration    16          0.804              1.372              0.811
 Vibration    17          0.816              1.342              0.771
 Vibration    18          0.847              1.268              0.679
 Vibration    19          0.864              1.230              0.635
 Vibration    20          0.889              1.175              0.579
 Vibration    21          0.931              1.087              0.496
 Vibration    22          0.941              1.066              0.478
 Vibration    23          0.959              1.030              0.449

                           ! Non-Optimized Parameters !
 Normal termination of Gaussian 16 at Thu Dec 10 21:17:58 2020.

 ----------------------------------------------------------------------
 # B3LYP/6-311++G(d,p) empiricaldispersion=gd3bj scf=xqc pop=npa geom=c
 heck
 ----------------------------------------------------------------------

 --------------------------------------
 CID_18360655_JID_6138_Energie_neutraal
 --------------------------------------
 Structure from the checkpoint file:  "JID_6138.chk"
 Charge =  0 Multiplicity = 1

 SCF Done:  E(RB3LYP) =  -745.798590779     A.U. after   15 cycles
 Normal termination of Gaussian 16 at Thu Dec 10 21:21:26 2020.

 ----------------------------------------------------------------------
 # B3LYP/6-311++G(d,p) empiricaldispersion=gd3bj scf=xqc pop=npa geom=c
 heck
 ----------------------------------------------------------------------

 ------------------------------------
 CID_18360655_JID_6138_Energie_kation
 ------------------------------------
 Structure from the checkpoint file:  "JID_6138.chk"
 Charge =  1 Multiplicity = 2

 SCF Done:  E(UB3LYP) =  -745.502885150     A.U. after   33 cycles
 SCF Done:  E(UB3LYP) =  -745.502893471     a.u. after    3 cycles
 Normal termination of Gaussian 16 at Thu Dec 10 21:50:00 2020.
 Gaussian 16:  ES64L-G16RevA.03 25-Dec-2016

 ----------------------------------------------------------------------
 # B3LYP/6-311++G(d,p) empiricaldispersion=gd3bj scf=xqc pop=npa geom=c
 heck
 ----------------------------------------------------------------------

 -----------------------------------
 CID_18360655_JID_6138_Energie_anion
 -----------------------------------
 Structure from the checkpoint file:  "JID_6138.chk"
 Charge = -1 Multiplicity = 2

                         Standard orientation:
 ---------------------------------------------------------------------
 Center     Atomic      Atomic             Coordinates (Angstroms)
 Number     Number       Type             X           Y           Z
 ---------------------------------------------------------------------
      1          6           0       -1.322440   -1.881834    1.613445
      2          7           0       -2.473375   -1.026332    1.361189
      3          6           0       -2.886095   -0.506293    0.169010
      4          8           0       -3.796417    0.315386    0.110485
      5          6           0       -2.163427   -0.958557   -1.094464
      6          6           0       -1.533986    0.273610   -1.780178
      7          6           0       -0.526239    0.937224   -0.892720
      8          6           0       -0.687631    2.080133   -0.175037
      9          8           0        0.400209    2.374256    0.612953
     10          6           0        1.301260    1.360615    0.399839
     11          6           0        0.782793    0.434843   -0.525567
     12          6           0        1.540681   -0.688914   -0.877013
     13          6           0        2.794681   -0.845028   -0.287290
     14          6           0        3.292480    0.097184    0.635125
     15          6           0        2.547082    1.220909    0.991445
     16          8           0        3.519002   -1.954694   -0.641836
     17          1           0       -1.438471   -2.867495    1.148004
     18          1           0       -1.242060   -2.031711    2.692432
     19          1           0       -0.387821   -1.433357    1.260170
     20          1           0       -2.961912   -0.634001    2.155556
     21          1           0       -1.399948   -1.714755   -0.896014
     22          1           0       -2.911605   -1.403560   -1.759624
     23          1           0       -1.068866   -0.035189   -2.724227
     24          1           0       -2.337724    0.975362   -2.019467
     25          1           0       -1.512577    2.773354   -0.105634
     26          1           0        1.187737   -1.428320   -1.588076
     27          1           0        4.275124   -0.056274    1.075791
     28          1           0        2.923551    1.949938    1.700695
     29          1           0        4.370879   -1.932590   -0.180302
 ---------------------------------------------------------------------

 SCF Done:  E(UB3LYP) =  -745.790156756     A.U. after   33 cycles
 SCF Done:  E(UB3LYP) =  -745.790156756     a.u. after    1 cycles

 The electronic state is 2-A.
 Alpha  occ. eigenvalues --  -19.08163 -19.04159 -18.99218 -14.24376 -10.17839
 Alpha  occ. eigenvalues --  -10.12806 -10.12333 -10.11981 -10.10722 -10.09353
 Alpha  occ. eigenvalues --  -10.09074 -10.07973 -10.07609 -10.07457 -10.06653
 Alpha  occ. eigenvalues --  -10.06474  -1.00494  -0.95140  -0.94324  -0.82676
 Alpha  occ. eigenvalues --   -0.75404  -0.72550  -0.67484  -0.64046  -0.63084
 Alpha  occ. eigenvalues --   -0.61316  -0.57194  -0.52967  -0.51165  -0.48605
 Alpha  occ. eigenvalues --   -0.46642  -0.43746  -0.40910  -0.40285  -0.39635
 Alpha  occ. eigenvalues --   -0.38786  -0.37501  -0.35548  -0.35091  -0.34268
 Alpha  occ. eigenvalues --   -0.33615  -0.33040  -0.31069  -0.30643  -0.30072
 Alpha  occ. eigenvalues --   -0.29786  -0.29307  -0.27927  -0.27792  -0.26462
 Alpha  occ. eigenvalues --   -0.26287  -0.23336  -0.22199  -0.18923  -0.16630
 Alpha  occ. eigenvalues --   -0.16126  -0.12414  -0.11488   0.04292
 Alpha virt. eigenvalues --    0.06219   0.06414   0.07342   0.08207   0.08857
 Alpha virt. eigenvalues --    0.09306   0.09636   0.10291   0.11000   0.11338
 Alpha virt. eigenvalues --    0.11716   0.12212   0.12957   0.13546   0.14010

  Beta  occ. eigenvalues --  -19.08144 -19.04116 -18.99217 -14.24363 -10.17840
  Beta  occ. eigenvalues --  -10.12826 -10.12262 -10.12003 -10.10681 -10.09352
  Beta  occ. eigenvalues --  -10.09066 -10.07976 -10.07565 -10.07384 -10.06559
  Beta  occ. eigenvalues --  -10.06395  -1.00451  -0.95057  -0.94319  -0.82651
  Beta  occ. eigenvalues --   -0.75306  -0.72495  -0.67408  -0.63939  -0.62946
  Beta  occ. eigenvalues --   -0.61251  -0.57156  -0.52794  -0.51078  -0.48561
  Beta  occ. eigenvalues --   -0.46580  -0.43670  -0.40864  -0.40240  -0.39580
  Beta  occ. eigenvalues --   -0.38696  -0.37444  -0.35480  -0.34982  -0.34210
  Beta  occ. eigenvalues --   -0.33572  -0.33013  -0.31035  -0.30591  -0.30021
  Beta  occ. eigenvalues --   -0.29697  -0.29228  -0.27906  -0.27744  -0.26423
  Beta  occ. eigenvalues --   -0.26269  -0.23286  -0.21977  -0.18606  -0.16619
  Beta  occ. eigenvalues --   -0.16111  -0.12011  -0.11245
  Beta virt. eigenvalues --    0.06651   0.07080   0.07771   0.07944   0.08517
  Beta virt. eigenvalues --    0.09324   0.09458   0.09872   0.10396   0.11133
  Beta virt. eigenvalues --    0.11478   0.12162   0.12493   0.12959   0.13634

 Mulliken charges and spin densities:
               1          2
     1  C    0.537522  -0.998238
     2  N   -0.315295   0.121063
     3  C   -0.354168   0.183625
     4  O   -0.352804   0.007149
     5  C    0.355513  -0.227044
     6  C   -0.738084   0.138600
     7  C    0.851982  -0.479111
     8  C    0.144938  -0.134620
     9  O   -0.080930   0.000545
    10  C   -1.311695   0.742707
    11  C    1.173496  -0.038887
    12  C    0.033923  -0.559062
    13  C    0.098083  -0.910077
    14  C    0.377474  -0.235093
    15  C   -0.387965   0.106247
    16  O   -0.248431   0.027073
    17  H   -0.284906   0.461391
    18  H   -0.627317   0.771568
    19  H    0.424324  -0.195290
    20  H    0.097417   0.203374
    21  H    0.159762  -0.049462
    22  H    0.120926   0.073730
    23  H    0.136300  -0.002431
    24  H    0.217040  -0.013543
    25  H    0.198998  -0.002483
    26  H    0.062870   0.111905
    27  H   -0.945672   1.110261
    28  H    0.013006   0.153605
    29  H   -0.356307   0.632497
 Sum of Mulliken charges =  -1.00000   1.00000

 Dipole moment (field-independent basis, Debye):
    X=             -5.6736    Y=              3.4590    Z=             -4.1744  Tot=              7.8473
 Quadrupole moment (field-independent basis, Debye-Ang):
   XX=           -184.9797   YY=           -129.3077   ZZ=           -122.3854
   XY=             12.6341   XZ=              1.6574   YZ=              6.0822

 Summary of Natural Population Analysis:

                                       Natural Population
                Natural  -----------------------------------------------
    Atom  No    Charge         Core      Valence    Rydberg      Total
 -----------------------------------------------------------------------
      C    1   -0.18448      0.99964     2.17662    0.00823     3.18448
      N    2   -0.31352      0.99967     2.80363    0.01022     3.81352
      C    3    0.34345      0.99967     1.63256    0.02432     2.65655
      O    4   -0.33418      0.99988     3.32867    0.00563     4.33418
      C    5   -0.23031      0.99959     2.22252    0.00820     3.23031
      C    6   -0.18936      0.99956     2.18213    0.00768     3.18936
      C    7   -0.06852      0.99948     2.05867    0.01036     3.06852
      C    8    0.09101      0.99941     1.89605    0.01353     2.90899
      O    9   -0.24009      0.99986     3.23339    0.00684     4.24009
      C   10    0.13763      0.99934     1.84876    0.01426     2.86237
      C   11   -0.04430      0.99946     2.03571    0.00914     3.04430
      C   12   -0.11675      0.99949     2.10767    0.00959     3.11675
      C   13    0.15198      0.99940     1.83488    0.01375     2.84802
      C   14   -0.12283      0.99954     2.11258    0.01071     3.12283
      C   15   -0.10022      0.99952     2.09097    0.00973     3.10022
      O   16   -0.34432      0.99988     3.33747    0.00697     4.34432
      H   17    0.09361      0.00000     0.40513    0.00125     0.40639
      H   18    0.10421      0.00000     0.39386    0.00192     0.39579
      H   19    0.10414      0.00000     0.39391    0.00195     0.39586
      H   20    0.19424      0.00000     0.30335    0.00242     0.30576
      H   21    0.10507      0.00000     0.39343    0.00150     0.39493
      H   22    0.10800      0.00000     0.39113    0.00087     0.39200
      H   23    0.10108      0.00000     0.39786    0.00106     0.39892
      H   24    0.10857      0.00000     0.39020    0.00123     0.39143
      H   25    0.09538      0.00000     0.40384    0.00078     0.40462
      H   26    0.10340      0.00000     0.39522    0.00138     0.39660
      H   27    0.10304      0.00000     0.39398    0.00298     0.39696
      H   28    0.10486      0.00000     0.39415    0.00099     0.39514
      H   29    0.23922      0.00000     0.24892    0.01186     0.26078
 =======================================================================
   * Total *    0.00001     15.99338    41.80727    0.19934    57.99999

 Normal termination of Gaussian 16 at Thu Dec 10 22:00:18 2020.
