 Gaussian 16, Revision A.03,

 -----------------------------------------------------------
 # opt freq B3LYP/6-31G(d) empiricaldispersion=gd3bj scf=xqc
 -----------------------------------------------------------

 -------------------------------
 CID_122501297_JID_7624_neutraal
 -------------------------------
 Symbolic Z-matrix:
 Charge =  0 Multiplicity = 1

 SCF Done:  E(RB3LYP) =  -820.836092200     A.U. after   15 cycles
 SCF Done:  E(RB3LYP) =  -820.840133446     A.U. after   12 cycles
 SCF Done:  E(RB3LYP) =  -820.840504813     A.U. after   12 cycles
 SCF Done:  E(RB3LYP) =  -820.840681908     A.U. after   12 cycles
 SCF Done:  E(RB3LYP) =  -820.840709956     A.U. after   12 cycles
 SCF Done:  E(RB3LYP) =  -820.840869834     A.U. after   11 cycles
 SCF Done:  E(RB3LYP) =  -820.840951366     A.U. after   11 cycles
 SCF Done:  E(RB3LYP) =  -820.840989792     A.U. after   11 cycles
 SCF Done:  E(RB3LYP) =  -820.840977755     A.U. after    9 cycles
 SCF Done:  E(RB3LYP) =  -820.841080436     A.U. after   11 cycles
 SCF Done:  E(RB3LYP) =  -820.844845579     A.U. after   11 cycles
 SCF Done:  E(RB3LYP) =  -820.844857555     A.U. after    9 cycles
 SCF Done:  E(RB3LYP) =  -820.844859518     A.U. after    8 cycles
 SCF Done:  E(RB3LYP) =  -820.844860029     A.U. after    8 cycles
 SCF Done:  E(RB3LYP) =  -820.844860131     A.U. after    7 cycles
 Optimization completed.
    -- Stationary point found.
 Normal termination of Gaussian 16 at Fri Dec 11 13:10:48 2020.

 --------------------------------------------------------------------
 #N Geom=AllCheck Guess=TCheck SCRF=Check GenChk RB3LYP/6-31G(d) Freq
 --------------------------------------------------------------------

 Structure from the checkpoint file:  "JID_7624.chk"
 -------------------------------
 CID_122501297_JID_7624_neutraal
 -------------------------------
 Charge =  0 Multiplicity = 1

 SCF Done:  E(RB3LYP) =  -820.844860131     A.U. after    1 cycles

  Exact polarizability: 222.859   1.478 156.261   0.843   0.742  73.735
 Approx polarizability: 320.937 -15.481 248.717   3.413   1.574 112.854

                      1                      2                      3
                      A                      A                      A
 Frequencies --     42.7228                60.2936                74.0863
 Red. masses --      5.3850                 6.1508                 3.0636
 Frc consts  --      0.0058                 0.0132                 0.0099
 IR Inten    --      0.0298                 1.4014                 6.0289

                      4                      5                      6
                      A                      A                      A
 Frequencies --    104.9271               111.5561               137.6791
 Red. masses --      3.6635                 3.9535                 1.3062
 Frc consts  --      0.0238                 0.0290                 0.0146
 IR Inten    --      1.2755                 0.2285                 0.2473

                      7                      8                      9
                      A                      A                      A
 Frequencies --    141.9065               155.7643               187.9496
 Red. masses --      3.0288                 4.2149                 4.5719
 Frc consts  --      0.0359                 0.0603                 0.0952
 IR Inten    --      0.9519                 0.3998                 1.4467

                     10                     11                     12
                      A                      A                      A
 Frequencies --    200.8221               236.5590               265.6786
 Red. masses --      2.3496                 1.7594                 4.6742
 Frc consts  --      0.0558                 0.0580                 0.1944
 IR Inten    --      3.4291                 1.5910                 3.9176

                     13                     14                     15
                      A                      A                      A
 Frequencies --    285.9133               295.7253               348.2274
 Red. masses --      1.8802                 4.9782                 4.2766
 Frc consts  --      0.0906                 0.2565                 0.3055
 IR Inten    --      2.0781                 4.6352                17.1621

                     16                     17                     18
                      A                      A                      A
 Frequencies --    362.8356               399.1019               459.7016
 Red. masses --      4.9656                 5.3173                 4.9862
 Frc consts  --      0.3852                 0.4990                 0.6208
 IR Inten    --      0.6718                 3.0544                13.1947

                     19                     20                     21
                      A                      A                      A
 Frequencies --    473.8793               497.2966               535.6119
 Red. masses --      3.7058                 5.4914                 5.0668
 Frc consts  --      0.4903                 0.8001                 0.8564
 IR Inten    --      2.8651                 1.5696                 6.6123

                     22                     23                     24
                      A                      A                      A
 Frequencies --    555.8021               567.5531               582.1679
 Red. masses --      4.7192                 3.6676                 4.2069
 Frc consts  --      0.8589                 0.6961                 0.8400
 IR Inten    --      7.6115                 6.5477                11.3687

                     25                     26                     27
                      A                      A                      A
 Frequencies --    611.7147               664.9279               701.0047
 Red. masses --      2.6571                 1.6021                 3.6178
 Frc consts  --      0.5858                 0.4173                 1.0475
 IR Inten    --     19.2494                65.2716                23.3458

                     28                     29                     30
                      A                      A                      A
 Frequencies --    734.4547               763.2932               766.3345
 Red. masses --      5.6657                 5.5788                 5.4329
 Frc consts  --      1.8007                 1.9150                 1.8798
 IR Inten    --      1.5476                26.9006                 6.1981

                     31                     32                     33
                      A                      A                      A
 Frequencies --    793.3062               867.3485               880.2173
 Red. masses --      2.8029                 3.6726                 1.4143
 Frc consts  --      1.0393                 1.6278                 0.6456
 IR Inten    --     10.2128                 2.1364                11.5194

                     34                     35                     36
                      A                      A                      A
 Frequencies --    915.3451               924.8624               938.3150
 Red. masses --      3.1249                 1.3817                 5.4694
 Frc consts  --      1.5426                 0.6964                 2.8372
 IR Inten    --     11.7484                 8.2889                 7.3748

                     37                     38                     39
                      A                      A                      A
 Frequencies --    991.5620              1018.1127              1047.8855
 Red. masses --      2.6041                 3.6092                 4.1975
 Frc consts  --      1.5085                 2.2042                 2.7156
 IR Inten    --      1.2340                10.3700                29.8156

                     40                     41                     42
                      A                      A                      A
 Frequencies --   1056.6426              1141.7129              1149.4891
 Red. masses --      2.1970                 2.1721                 5.5707
 Frc consts  --      1.4452                 1.6682                 4.3368
 IR Inten    --      6.0780                52.7125                75.1670

                     43                     44                     45
                      A                      A                      A
 Frequencies --   1186.5886              1187.7189              1194.9091
 Red. masses --      1.2727                 1.2679                 1.1960
 Frc consts  --      1.0558                 1.0538                 1.0061
 IR Inten    --      0.8700                 0.7504                 1.1650

                     46                     47                     48
                      A                      A                      A
 Frequencies --   1218.7150              1219.0017              1224.9549
 Red. masses --      1.6131                 1.5143                 1.5562
 Frc consts  --      1.4116                 1.3258                 1.3758
 IR Inten    --     99.9395               158.8296               139.2045

                     49                     50                     51
                      A                      A                      A
 Frequencies --   1240.6833              1277.6311              1298.1561
 Red. masses --      2.1632                 1.8689                 2.0521
 Frc consts  --      1.9619                 1.7974                 2.0375
 IR Inten    --    150.2106               430.9407                67.6740

                     52                     53                     54
                      A                      A                      A
 Frequencies --   1328.2328              1346.8324              1363.6460
 Red. masses --      2.1537                 3.1277                 1.7354
 Frc consts  --      2.2387                 3.3428                 1.9013
 IR Inten    --     35.7114               242.6188                68.5082

                     55                     56                     57
                      A                      A                      A
 Frequencies --   1384.9288              1401.5403              1460.8393
 Red. masses --      2.5233                 3.8716                 2.1742
 Frc consts  --      2.8515                 4.4808                 2.7337
 IR Inten    --    166.1633               113.1903               126.9956

                     58                     59                     60
                      A                      A                      A
 Frequencies --   1488.6432              1492.5743              1497.5033
 Red. masses --      1.9700                 1.2117                 1.3666
 Frc consts  --      2.5722                 1.5905                 1.8056
 IR Inten    --      6.8987                41.9688                 2.2389

                     61                     62                     63
                      A                      A                      A
 Frequencies --   1510.3264              1510.9717              1511.5668
 Red. masses --      1.1814                 1.3515                 1.0482
 Frc consts  --      1.5878                 1.8179                 1.4111
 IR Inten    --      2.8086                 6.5093                 5.5122

                     64                     65                     66
                      A                      A                      A
 Frequencies --   1519.6969              1526.1080              1535.4092
 Red. masses --      1.0472                 1.0502                 1.0822
 Frc consts  --      1.4250                 1.4411                 1.5032
 IR Inten    --      6.5298                 9.0848                37.9070

                     67                     68                     69
                      A                      A                      A
 Frequencies --   1554.9465              1651.9085              1665.4447
 Red. masses --      3.8777                 6.6653                 6.6734
 Frc consts  --      5.5240                10.7163                10.9058
 IR Inten    --    107.5002                49.1085               118.5188

                     70                     71                     72
                      A                      A                      A
 Frequencies --   1797.6773              1814.2881              3025.1110
 Red. masses --     11.6582                 9.6656                 1.0710
 Frc consts  --     22.1976                18.7453                 5.7748
 IR Inten    --    327.9895               474.7975                18.5839

                     73                     74                     75
                      A                      A                      A
 Frequencies --   3035.0723              3046.2108              3074.3797
 Red. masses --      1.0340                 1.0686                 1.0294
 Frc consts  --      5.6117                 5.8423                 5.7324
 IR Inten    --     48.2670                18.1925                45.3164

                     76                     77                     78
                      A                      A                      A
 Frequencies --   3097.1912              3101.5449              3139.5362
 Red. masses --      1.1071                 1.0937                 1.0939
 Frc consts  --      6.2571                 6.1990                 6.3526
 IR Inten    --     35.0317                17.3876                13.0603

                     79                     80                     81
                      A                      A                      A
 Frequencies --   3148.2760              3167.0165              3179.1881
 Red. masses --      1.1074                 1.1010                 1.1072
 Frc consts  --      6.4668                 6.5061                 6.5932
 IR Inten    --     21.6285                20.5248                18.9082

                     82                     83                     84
                      A                      A                      A
 Frequencies --   3221.4089              3260.5203              3605.4152
 Red. masses --      1.0907                 1.0897                 1.0763
 Frc consts  --      6.6687                 6.8256                 8.2430
 IR Inten    --      0.5494                 1.8750                53.1783

 - Thermochemistry -
 -------------------
 Temperature   298.150 Kelvin.  Pressure   1.00000 Atm.
 Atom     1 has atomic number  6 and mass  12.00000

 Molecular mass:   235.08446 amu.
 Principal axes and moments of inertia in atomic units:
                           1         2         3
     Eigenvalues --  2113.816326543.264098564.99966
           X            0.99984   0.01814   0.00017
           Y           -0.01814   0.99984   0.00010
           Z           -0.00016  -0.00011   1.00000
 This molecule is an asymmetric top.
 Rotational symmetry number  1.
 Warning -- assumption of classical behavior for rotation
           may cause significant error
 Rotational temperatures (Kelvin)      0.04098     0.01324     0.01011
 Rotational constants (GHZ):           0.85378     0.27582     0.21071
 Zero-point vibrational energy     631404.6 (Joules/Mol)
                                  150.90932 (Kcal/Mol)
 Warning -- explicit consideration of  25 degrees of freedom as
           vibrations may cause significant error
 Vibrational temperatures:     61.47    86.75   106.59   150.97   160.50
          (Kelvin)            198.09   204.17   224.11   270.42   288.94
                              340.36   382.25   411.37   425.48   501.02
                              522.04   574.22   661.41   681.81   715.50
                              770.63   799.68   816.58   837.61   880.12
                              956.68  1008.59  1056.72  1098.21  1102.58
                             1141.39  1247.92  1266.44  1316.98  1330.67
                             1350.03  1426.64  1464.84  1507.67  1520.27
                             1642.67  1653.86  1707.24  1708.86  1719.21
                             1753.46  1753.87  1762.44  1785.07  1838.23
                             1867.76  1911.03  1937.79  1961.98  1992.60
                             2016.50  2101.82  2141.83  2147.48  2154.57
                             2173.02  2173.95  2174.81  2186.50  2195.73
                             2209.11  2237.22  2376.73  2396.20  2586.46
                             2610.36  4352.46  4366.79  4382.82  4423.35
                             4456.17  4462.43  4517.09  4529.67  4556.63
                             4574.14  4634.89  4691.16  5187.39

 Zero-point correction=                           0.240489 (Hartree/Particle)
 Thermal correction to Energy=                    0.256050
 Thermal correction to Enthalpy=                  0.256994
 Thermal correction to Gibbs Free Energy=         0.197194
 Sum of electronic and zero-point Energies=           -820.604371
 Sum of electronic and thermal Energies=              -820.588810
 Sum of electronic and thermal Enthalpies=            -820.587866
 Sum of electronic and thermal Free Energies=         -820.647667

                     E (Thermal)             CV                S
                      KCal/Mol        Cal/Mol-Kelvin    Cal/Mol-Kelvin
 Total                  160.674             58.218            125.861
 Electronic               0.000              0.000              0.000
 Translational            0.889              2.981             42.266
 Rotational               0.889              2.981             33.138
 Vibrational            158.896             52.256             50.458
 Vibration     1          0.595              1.980              5.129
 Vibration     2          0.597              1.973              4.448
 Vibration     3          0.599              1.966              4.042
 Vibration     4          0.605              1.945              3.361
 Vibration     5          0.607              1.940              3.242
 Vibration     6          0.614              1.916              2.836
 Vibration     7          0.615              1.911              2.778
 Vibration     8          0.620              1.896              2.601
 Vibration     9          0.633              1.856              2.248
 Vibration    10          0.638              1.839              2.126
 Vibration    11          0.655              1.785              1.829
 Vibration    12          0.672              1.736              1.624
 Vibration    13          0.684              1.700              1.498
 Vibration    14          0.690              1.682              1.441
 Vibration    15          0.726              1.579              1.174
 Vibration    16          0.737              1.549              1.110
 Vibration    17          0.765              1.472              0.966
 Vibration    18          0.818              1.339              0.767
 Vibration    19          0.831              1.308              0.727
 Vibration    20          0.853              1.256              0.665
 Vibration    21          0.891              1.171              0.575
 Vibration    22          0.911              1.127              0.532
 Vibration    23          0.924              1.101              0.509
 Vibration    24          0.939              1.070              0.481
 Vibration    25          0.971              1.007              0.430

                           ! Non-Optimized Parameters !
 Normal termination of Gaussian 16 at Fri Dec 11 13:21:23 2020.

 ----------------------------------------------------------------------
 # B3LYP/6-311++G(d,p) empiricaldispersion=gd3bj scf=xqc pop=npa geom=c
 heck
 ----------------------------------------------------------------------

 ---------------------------------------
 CID_122501297_JID_7624_Energie_neutraal
 ---------------------------------------
 Structure from the checkpoint file:  "JID_7624.chk"
 Charge =  0 Multiplicity = 1

 SCF Done:  E(RB3LYP) =  -821.077803604     A.U. after   15 cycles
 Normal termination of Gaussian 16 at Fri Dec 11 13:26:07 2020.

 ----------------------------------------------------------------------
 # B3LYP/6-311++G(d,p) empiricaldispersion=gd3bj scf=xqc pop=npa geom=c
 heck
 ----------------------------------------------------------------------

 -------------------------------------
 CID_122501297_JID_7624_Energie_kation
 -------------------------------------
 Structure from the checkpoint file:  "JID_7624.chk"
 Charge =  1 Multiplicity = 2

 SCF Done:  E(UB3LYP) =  -820.787054205     A.U. after   24 cycles
 Normal termination of Gaussian 16 at Fri Dec 11 13:36:32 2020.
 Gaussian 16:  ES64L-G16RevA.03 25-Dec-2016

 ----------------------------------------------------------------------
 # B3LYP/6-311++G(d,p) empiricaldispersion=gd3bj scf=xqc pop=npa geom=c
 heck
 ----------------------------------------------------------------------

 ------------------------------------
 CID_122501297_JID_7624_Energie_anion
 ------------------------------------
 Structure from the checkpoint file:  "JID_7624.chk"
 Charge = -1 Multiplicity = 2

                         Standard orientation:
 ---------------------------------------------------------------------
 Center     Atomic      Atomic             Coordinates (Angstroms)
 Number     Number       Type             X           Y           Z
 ---------------------------------------------------------------------
      1          6           0        0.123102    3.591461    0.019264
      2          8           0       -0.791768    2.506784   -0.033846
      3          6           0       -0.275969    1.239913   -0.053821
      4          6           0        1.074263    0.918688   -0.013810
      5          6           0        1.467546   -0.429970   -0.037446
      6          6           0        0.506705   -1.441649   -0.113484
      7          6           0       -0.848569   -1.130339   -0.165620
      8          6           0       -1.240818    0.213580   -0.120817
      9          7           0       -2.593034    0.553492   -0.160359
     10          6           0       -3.638596   -0.313170    0.104450
     11          8           0       -4.796403    0.067855    0.098775
     12          6           0       -3.205032   -1.731122    0.444848
     13          6           0       -1.940908   -2.161926   -0.311339
     14          6           0        2.894056   -0.828092    0.013601
     15          8           0        3.295279   -1.976327    0.001498
     16          8           0        3.728171    0.240099    0.076485
     17          6           0        5.123515   -0.085047    0.128487
     18          1           0       -0.485002    4.497022    0.020411
     19          1           0        0.786167    3.594522   -0.854876
     20          1           0        0.728791    3.554698    0.933320
     21          1           0        1.831705    1.687943    0.044085
     22          1           0        0.838010   -2.474318   -0.138899
     23          1           0       -2.831157    1.533359   -0.254556
     24          1           0       -3.016230   -1.755159    1.527521
     25          1           0       -4.050574   -2.392986    0.246289
     26          1           0       -1.596574   -3.138663    0.042518
     27          1           0       -2.183679   -2.281187   -1.377610
     28          1           0        5.344674   -0.689362    1.012245
     29          1           0        5.421634   -0.642708   -0.763296
     30          1           0        5.645467    0.871152    0.176191
 ---------------------------------------------------------------------

 SCF Done:  E(UB3LYP) =  -821.082364861     A.U. after   33 cycles
 SCF Done:  E(UB3LYP) =  -821.082364861     a.u. after    1 cycles

 The electronic state is 2-A.
 Alpha  occ. eigenvalues --  -19.04166 -19.02094 -18.96027 -18.93957 -14.21767
 Alpha  occ. eigenvalues --  -10.13874 -10.12324 -10.12318 -10.10758 -10.09594
 Alpha  occ. eigenvalues --  -10.06362 -10.06125 -10.05961 -10.03898 -10.02461
 Alpha  occ. eigenvalues --  -10.02147 -10.01796  -0.95701  -0.95628  -0.91467
 Alpha  occ. eigenvalues --   -0.86080  -0.81303  -0.71215  -0.67975  -0.63712
 Alpha  occ. eigenvalues --   -0.61862  -0.59522  -0.57621  -0.53162  -0.50681
 Alpha  occ. eigenvalues --   -0.48280  -0.44514  -0.42524  -0.41393  -0.38349
 Alpha  occ. eigenvalues --   -0.36881  -0.36592  -0.35805  -0.35642  -0.35356
 Alpha  occ. eigenvalues --   -0.33291  -0.32679  -0.31274  -0.30338  -0.29246
 Alpha  occ. eigenvalues --   -0.28834  -0.28275  -0.27605  -0.26287  -0.25805
 Alpha  occ. eigenvalues --   -0.24420  -0.23794  -0.23014  -0.21565  -0.20994
 Alpha  occ. eigenvalues --   -0.19684  -0.17585  -0.16857  -0.13469  -0.12585
 Alpha  occ. eigenvalues --   -0.10556  -0.08054   0.05104
 Alpha virt. eigenvalues --    0.07016   0.08036   0.08877   0.10123   0.10641
 Alpha virt. eigenvalues --    0.11256   0.11330   0.11538   0.11960   0.12494
 Alpha virt. eigenvalues --    0.12923   0.13402   0.13965   0.14458   0.14943

  Beta  occ. eigenvalues --  -19.04185 -19.02017 -18.95835 -18.93629 -14.21849
  Beta  occ. eigenvalues --  -10.13697 -10.12312 -10.12057 -10.10762 -10.09685
  Beta  occ. eigenvalues --  -10.06374 -10.06120 -10.05557 -10.03923 -10.02262
  Beta  occ. eigenvalues --  -10.02044 -10.01595  -0.95668  -0.95402  -0.91131
  Beta  occ. eigenvalues --   -0.85573  -0.81107  -0.70956  -0.67876  -0.63447
  Beta  occ. eigenvalues --   -0.61634  -0.59314  -0.57318  -0.52966  -0.50209
  Beta  occ. eigenvalues --   -0.48086  -0.44326  -0.42393  -0.41221  -0.38240
  Beta  occ. eigenvalues --   -0.36700  -0.36539  -0.35673  -0.35502  -0.35005
  Beta  occ. eigenvalues --   -0.33092  -0.32472  -0.31067  -0.30146  -0.29036
  Beta  occ. eigenvalues --   -0.28481  -0.27996  -0.27076  -0.25754  -0.25175
  Beta  occ. eigenvalues --   -0.24336  -0.23555  -0.22909  -0.21343  -0.20879
  Beta  occ. eigenvalues --   -0.19083  -0.16770  -0.15636  -0.13314  -0.12255
  Beta  occ. eigenvalues --   -0.09662  -0.06789
  Beta virt. eigenvalues --    0.06994   0.07988   0.08848   0.10109   0.10568
  Beta virt. eigenvalues --    0.10732   0.11261   0.11467   0.11488   0.12003
  Beta virt. eigenvalues --    0.12442   0.13051   0.13744   0.14002   0.14798

 Mulliken charges and spin densities:
               1          2
     1  C   -0.178401  -0.121295
     2  O   -0.210379   0.005578
     3  C   -0.981751   0.019166
     4  C   -0.234921   0.146793
     5  C    0.944029   0.041806
     6  C   -0.633911   0.100388
     7  C    0.216453  -0.001663
     8  C    0.006502   0.259597
     9  N   -0.258654  -0.044486
    10  C   -0.104488   0.096251
    11  O   -0.403841   0.067074
    12  C   -0.199748  -0.027978
    13  C   -0.196974   0.007437
    14  C    0.043579   0.156105
    15  O   -0.383493   0.113177
    16  O   -0.130788   0.015295
    17  C   -0.210389  -0.016681
    18  H    0.077701   0.074090
    19  H    0.060323   0.087835
    20  H    0.140817   0.000185
    21  H    0.184856  -0.025755
    22  H    0.159264  -0.002671
    23  H    0.323022   0.009727
    24  H    0.133139   0.009460
    25  H    0.161645   0.007244
    26  H    0.133547   0.001007
    27  H    0.142104  -0.001390
    28  H    0.152456   0.007963
    29  H    0.156954   0.002464
    30  H    0.091345   0.013275
 Sum of Mulliken charges =  -1.00000   1.00000

 Dipole moment (field-independent basis, Debye):
    X=              2.0642    Y=              2.8211    Z=              0.3061  Tot=              3.5090
 Quadrupole moment (field-independent basis, Debye-Ang):
   XX=           -166.2156   YY=           -112.5735   ZZ=           -106.3921
   XY=             15.1387   XZ=              1.3112   YZ=              0.1898

 Summary of Natural Population Analysis:

                                       Natural Population
                Natural  -----------------------------------------------
    Atom  No    Charge         Core      Valence    Rydberg      Total
 -----------------------------------------------------------------------
      C    1   -0.09711      0.99961     2.08907    0.00843     3.09711
      O    2   -0.28775      0.99985     3.27906    0.00884     4.28775
      C    3    0.12565      0.99936     1.86315    0.01184     2.87435
      C    4   -0.09070      0.99951     2.08306    0.00814     3.09070
      C    5   -0.05451      0.99950     2.04235    0.01265     3.05451
      C    6   -0.03794      0.99952     2.03302    0.00541     3.03794
      C    7   -0.05292      0.99953     2.04312    0.01027     3.05292
      C    8    0.12703      0.99941     1.86246    0.01110     2.87297
      N    9   -0.31832      0.99964     2.80813    0.01055     3.81832
      C   10    0.36646      0.99969     1.61207    0.02177     2.63354
      O   11   -0.31225      0.99987     3.30563    0.00674     4.31225
      C   12   -0.23008      0.99960     2.22394    0.00654     3.23008
      C   13   -0.19115      0.99961     2.18356    0.00798     3.19115
      C   14    0.42805      0.99963     1.54830    0.02402     2.57195
      O   15   -0.30206      0.99987     3.29566    0.00652     4.30206
      O   16   -0.28433      0.99986     3.27548    0.00900     4.28433
      C   17   -0.10438      0.99961     2.09605    0.00872     3.10438
      H   18    0.08572      0.00000     0.41309    0.00119     0.41428
      H   19    0.08275      0.00000     0.41483    0.00243     0.41725
      H   20    0.08257      0.00000     0.41570    0.00174     0.41743
      H   21    0.10296      0.00000     0.39521    0.00183     0.39704
      H   22    0.10145      0.00000     0.39744    0.00111     0.39855
      H   23    0.20238      0.00000     0.29560    0.00202     0.29762
      H   24    0.10563      0.00000     0.39320    0.00117     0.39437
      H   25    0.10456      0.00000     0.39428    0.00115     0.39544
      H   26    0.09930      0.00000     0.39921    0.00150     0.40070
      H   27    0.09591      0.00000     0.40276    0.00133     0.40409
      H   28    0.08636      0.00000     0.41233    0.00131     0.41364
      H   29    0.08625      0.00000     0.41244    0.00131     0.41375
      H   30    0.08051      0.00000     0.41860    0.00088     0.41949
 =======================================================================
   * Total *    0.00005     16.99370    44.80878    0.19748    61.99995

 Normal termination of Gaussian 16 at Fri Dec 11 13:50:55 2020.
