 Gaussian 16, Revision A.03,

 -----------------------------------------------------------
 # opt freq B3LYP/6-31G(d) empiricaldispersion=gd3bj scf=xqc
 -----------------------------------------------------------

 ------------------------------
 CID_89688653_JID_2390_neutraal
 ------------------------------
 Symbolic Z-matrix:
 Charge =  0 Multiplicity = 1

 SCF Done:  E(RB3LYP) =  -549.706072908     A.U. after   15 cycles
 SCF Done:  E(RB3LYP) =  -549.711183544     A.U. after   12 cycles
 SCF Done:  E(RB3LYP) =  -549.712022865     A.U. after   11 cycles
 SCF Done:  E(RB3LYP) =  -549.712489506     A.U. after   12 cycles
 SCF Done:  E(RB3LYP) =  -549.712777916     A.U. after   12 cycles
 SCF Done:  E(RB3LYP) =  -549.712935164     A.U. after   10 cycles
 SCF Done:  E(RB3LYP) =  -549.713044448     A.U. after   11 cycles
 SCF Done:  E(RB3LYP) =  -549.713053493     A.U. after   10 cycles
 SCF Done:  E(RB3LYP) =  -549.713060010     A.U. after    9 cycles
 SCF Done:  E(RB3LYP) =  -549.713062602     A.U. after   10 cycles
 SCF Done:  E(RB3LYP) =  -549.713069262     A.U. after    9 cycles
 SCF Done:  E(RB3LYP) =  -549.713073458     A.U. after    9 cycles
 SCF Done:  E(RB3LYP) =  -549.713076609     A.U. after    9 cycles
 SCF Done:  E(RB3LYP) =  -549.713078192     A.U. after    9 cycles
 SCF Done:  E(RB3LYP) =  -549.713078507     A.U. after    8 cycles
 Optimization completed.
    -- Stationary point found.
 Normal termination of Gaussian 16 at Wed Dec  9 17:16:30 2020.

 --------------------------------------------------------------------
 #N Geom=AllCheck Guess=TCheck SCRF=Check GenChk RB3LYP/6-31G(d) Freq
 --------------------------------------------------------------------

 Structure from the checkpoint file:  "JID_2390.chk"
 ------------------------------
 CID_89688653_JID_2390_neutraal
 ------------------------------
 Charge =  0 Multiplicity = 1

 SCF Done:  E(RB3LYP) =  -549.713078507     A.U. after    1 cycles

  Exact polarizability: 158.270  -2.615 104.974   1.202   0.418  47.387
 Approx polarizability: 223.735  -9.092 201.553   2.682   1.901  72.135

                      1                      2                      3
                      A                      A                      A
 Frequencies --     53.2996                78.7503               147.1946
 Red. masses --      1.0615                 3.7284                 3.4484
 Frc consts  --      0.0018                 0.0136                 0.0440
 IR Inten    --      0.1575                 0.3265                 1.3354

                      4                      5                      6
                      A                      A                      A
 Frequencies --    161.7329               198.7479               264.6620
 Red. masses --      3.6483                 3.1575                 1.6647
 Frc consts  --      0.0562                 0.0735                 0.0687
 IR Inten    --      2.4623                 1.0202                22.2155

                      7                      8                      9
                      A                      A                      A
 Frequencies --    300.1892               300.4193               336.4285
 Red. masses --      2.8208                 3.7920                 3.4812
 Frc consts  --      0.1498                 0.2016                 0.2321
 IR Inten    --     15.7872                 1.1788                 3.4838

                     10                     11                     12
                      A                      A                      A
 Frequencies --    404.8758               444.9850               472.6086
 Red. masses --      5.0178                 3.1055                 4.9083
 Frc consts  --      0.4846                 0.3623                 0.6459
 IR Inten    --      3.9167                 4.0279                 2.8538

                     13                     14                     15
                      A                      A                      A
 Frequencies --    561.4000               573.5371               599.3004
 Red. masses --      2.5552                 4.1470                 4.8172
 Frc consts  --      0.4745                 0.8037                 1.0194
 IR Inten    --     79.4585                45.6264                 1.5090

                     16                     17                     18
                      A                      A                      A
 Frequencies --    618.1315               665.5532               752.3244
 Red. masses --      2.6206                 5.5140                 4.8458
 Frc consts  --      0.5899                 1.4391                 1.6159
 IR Inten    --     50.6768                21.2579                21.6847

                     19                     20                     21
                      A                      A                      A
 Frequencies --    763.9867               815.6808               819.4667
 Red. masses --      5.1507                 1.4234                 5.3374
 Frc consts  --      1.7713                 0.5580                 2.1117
 IR Inten    --      7.8984                23.3134                24.1064

                     22                     23                     24
                      A                      A                      A
 Frequencies --    822.4981               877.3106               946.0665
 Red. masses --      6.0484                 1.3652                 1.2725
 Frc consts  --      2.4108                 0.6191                 0.6710
 IR Inten    --     10.6566                 7.1262                 0.0822

                     25                     26                     27
                      A                      A                      A
 Frequencies --    952.2085               967.4397               987.7637
 Red. masses --      4.7610                 3.6370                 2.6864
 Frc consts  --      2.5434                 2.0056                 1.5443
 IR Inten    --     13.8148                22.1871                85.7266

                     28                     29                     30
                      A                      A                      A
 Frequencies --   1036.3605              1074.2349              1131.2475
 Red. masses --      1.4895                 1.5113                 3.4314
 Frc consts  --      0.9426                 1.0275                 2.5872
 IR Inten    --     13.3420                 4.7714                10.6373

                     31                     32                     33
                      A                      A                      A
 Frequencies --   1176.5219              1186.0719              1239.6774
 Red. masses --      1.8742                 1.4585                 2.2747
 Frc consts  --      1.5285                 1.2088                 2.0596
 IR Inten    --      7.8772                 8.4112                55.5107

                     34                     35                     36
                      A                      A                      A
 Frequencies --   1298.2398              1309.1469              1362.9365
 Red. masses --      2.1727                 2.8028                 1.2356
 Frc consts  --      2.1575                 2.8302                 1.3523
 IR Inten    --     20.6637                 7.5267                 0.8188

                     37                     38                     39
                      A                      A                      A
 Frequencies --   1394.6316              1400.9442              1442.9614
 Red. masses --      5.9477                 2.0609                 1.2504
 Frc consts  --      6.8158                 2.3831                 1.5340
 IR Inten    --     16.8576                30.2161                 0.0061

                     40                     41                     42
                      A                      A                      A
 Frequencies --   1465.4494              1513.8648              1518.9338
 Red. masses --      2.6248                 1.0443                 1.5428
 Frc consts  --      3.3212                 1.4100                 2.0972
 IR Inten    --     30.1449                 6.1593                47.7036

                     43                     44                     45
                      A                      A                      A
 Frequencies --   1524.1464              1558.8758              1598.1992
 Red. masses --      1.4312                 2.7245                 7.3199
 Frc consts  --      1.9588                 3.9009                11.0158
 IR Inten    --     48.9574                26.5519                98.4367

                     46                     47                     48
                      A                      A                      A
 Frequencies --   1657.0784              1679.0798              1740.6180
 Red. masses --      7.4175                 6.8648                 1.0621
 Frc consts  --     12.0004                11.4031                 1.8959
 IR Inten    --     17.3338                78.7729                29.8231

                     49                     50                     51
                      A                      A                      A
 Frequencies --   3047.4628              3100.0899              3133.8242
 Red. masses --      1.0375                 1.1009                 1.1010
 Frc consts  --      5.6772                 6.2337                 6.3708
 IR Inten    --     27.5957                17.5545                16.1503

                     52                     53                     54
                      A                      A                      A
 Frequencies --   3187.1656              3205.3174              3219.0929
 Red. masses --      1.0871                 1.0949                 1.0917
 Frc consts  --      6.5065                 6.6280                 6.6654
 IR Inten    --      7.0605                17.1308                 4.3143

                     55                     56                     57
                      A                      A                      A
 Frequencies --   3414.3442              3515.2150              3581.4451
 Red. masses --      1.0529                 1.0887                 1.0767
 Frc consts  --      7.2321                 7.9261                 8.1372
 IR Inten    --      3.5615                 1.1004                20.4406

 - Thermochemistry -
 -------------------
 Temperature   298.150 Kelvin.  Pressure   1.00000 Atm.
 Atom     1 has atomic number  6 and mass  12.00000

 Molecular mass:   163.07456 amu.
 Principal axes and moments of inertia in atomic units:
                           1         2         3
     Eigenvalues --   686.588483170.845193832.75889
           X            1.00000   0.00270  -0.00030
           Y           -0.00270   1.00000  -0.00079
           Z            0.00030   0.00080   1.00000
 This molecule is an asymmetric top.
 Rotational symmetry number  1.
 Warning -- assumption of classical behavior for rotation
           may cause significant error
 Rotational temperatures (Kelvin)      0.12615     0.02732     0.02260
 Rotational constants (GHZ):           2.62856     0.56917     0.47087
 Zero-point vibrational energy     440224.2 (Joules/Mol)
                                  105.21611 (Kcal/Mol)
 Warning -- explicit consideration of  16 degrees of freedom as
           vibrations may cause significant error
 Vibrational temperatures:     76.69   113.30   211.78   232.70   285.95
          (Kelvin)            380.79   431.91   432.24   484.05   582.53
                              640.23   679.98   807.73   825.19   862.26
                              889.35   957.58  1082.43  1099.21  1173.58
                             1179.03  1183.39  1262.25  1361.18  1370.02
                             1391.93  1421.17  1491.09  1545.58  1627.61
                             1692.75  1706.49  1783.62  1867.88  1883.57
                             1960.96  2006.56  2015.65  2076.10  2108.45
                             2178.11  2185.41  2192.91  2242.87  2299.45
                             2384.17  2415.82  2504.36  4384.62  4460.34
                             4508.87  4585.62  4611.74  4631.56  4912.48
                             5057.61  5152.90

 Zero-point correction=                           0.167673 (Hartree/Particle)
 Thermal correction to Energy=                    0.178087
 Thermal correction to Enthalpy=                  0.179031
 Thermal correction to Gibbs Free Energy=         0.131387
 Sum of electronic and zero-point Energies=           -549.545406
 Sum of electronic and thermal Energies=              -549.534992
 Sum of electronic and thermal Enthalpies=            -549.534048
 Sum of electronic and thermal Free Energies=         -549.581691

                     E (Thermal)             CV                S
                      KCal/Mol        Cal/Mol-Kelvin    Cal/Mol-Kelvin
 Total                  111.751             39.758            100.274
 Electronic               0.000              0.000              0.000
 Translational            0.889              2.981             41.176
 Rotational               0.889              2.981             30.502
 Vibrational            109.974             33.797             28.597
 Vibration     1          0.596              1.976              4.691
 Vibration     2          0.600              1.963              3.922
 Vibration     3          0.617              1.906              2.708
 Vibration     4          0.622              1.889              2.529
 Vibration     5          0.637              1.842              2.145
 Vibration     6          0.671              1.738              1.631
 Vibration     7          0.693              1.673              1.416
 Vibration     8          0.693              1.673              1.415
 Vibration     9          0.717              1.603              1.229
 Vibration    10          0.770              1.460              0.945
 Vibration    11          0.804              1.372              0.811
 Vibration    12          0.829              1.311              0.730
 Vibration    13          0.917              1.115              0.521
 Vibration    14          0.930              1.088              0.497
 Vibration    15          0.957              1.033              0.451
 Vibration    16          0.978              0.994              0.420

                           ! Non-Optimized Parameters !
 Normal termination of Gaussian 16 at Wed Dec  9 17:20:30 2020.

 ----------------------------------------------------------------------
 # B3LYP/6-311++G(d,p) empiricaldispersion=gd3bj scf=xqc pop=npa geom=c
 heck
 ----------------------------------------------------------------------

 --------------------------------------
 CID_89688653_JID_2390_Energie_neutraal
 --------------------------------------
 Structure from the checkpoint file:  "JID_2390.chk"
 Charge =  0 Multiplicity = 1

 SCF Done:  E(RB3LYP) =  -549.867305901     A.U. after   15 cycles
 Normal termination of Gaussian 16 at Wed Dec  9 17:22:07 2020.

 ----------------------------------------------------------------------
 # B3LYP/6-311++G(d,p) empiricaldispersion=gd3bj scf=xqc pop=npa geom=c
 heck
 ----------------------------------------------------------------------

 ------------------------------------
 CID_89688653_JID_2390_Energie_kation
 ------------------------------------
 Structure from the checkpoint file:  "JID_2390.chk"
 Charge =  1 Multiplicity = 2

 SCF Done:  E(UB3LYP) =  -549.562739748     A.U. after   27 cycles
 Normal termination of Gaussian 16 at Wed Dec  9 17:26:20 2020.
 Gaussian 16:  ES64L-G16RevA.03 25-Dec-2016

 ----------------------------------------------------------------------
 # B3LYP/6-311++G(d,p) empiricaldispersion=gd3bj scf=xqc pop=npa geom=c
 heck
 ----------------------------------------------------------------------

 -----------------------------------
 CID_89688653_JID_2390_Energie_anion
 -----------------------------------
 Structure from the checkpoint file:  "JID_2390.chk"
 Charge = -1 Multiplicity = 2

                         Standard orientation:
 ---------------------------------------------------------------------
 Center     Atomic      Atomic             Coordinates (Angstroms)
 Number     Number       Type             X           Y           Z
 ---------------------------------------------------------------------
      1          6           0        4.058823   -0.006467    0.041612
      2          6           0        2.553001   -0.106556    0.015571
      3          6           0        1.768018    1.045541    0.013542
      4          6           0        0.383486    0.878030   -0.009737
      5          6           0       -0.225265   -0.379414   -0.030925
      6          6           0        0.562571   -1.537612   -0.033915
      7          6           0        1.940844   -1.384349   -0.008876
      8          6           0       -1.630678   -0.056384   -0.047280
      9          7           0       -1.839907    1.242289   -0.036715
     10          8           0       -0.551606    1.855575   -0.019783
     11          7           0       -2.678101   -0.950119   -0.108147
     12          7           0       -3.991149   -0.472402    0.141478
     13          1           0        4.390871    1.035558    0.050362
     14          1           0        4.502524   -0.494790   -0.834389
     15          1           0        4.472503   -0.499881    0.929452
     16          1           0        2.211493    2.035400    0.029037
     17          1           0        0.115198   -2.526902   -0.062997
     18          1           0        2.576720   -2.265425   -0.011889
     19          1           0       -2.511357   -1.831329    0.361454
     20          1           0       -3.928293    0.301107    0.809720
     21          1           0       -4.317512   -0.053446   -0.728745
 ---------------------------------------------------------------------

 SCF Done:  E(UB3LYP) =  -549.854773155     A.U. after   33 cycles
 SCF Done:  E(UB3LYP) =  -549.856296689     a.u. after   16 cycles

 The electronic state is 2-A.
 Alpha  occ. eigenvalues --  -19.05864 -14.24516 -14.23282 -14.21023 -10.10875
 Alpha  occ. eigenvalues --  -10.09898 -10.04617 -10.04383 -10.04372 -10.04167
 Alpha  occ. eigenvalues --  -10.03822 -10.03452  -0.99075  -0.88848  -0.74466
 Alpha  occ. eigenvalues --   -0.72990  -0.67571  -0.64811  -0.61441  -0.57017
 Alpha  occ. eigenvalues --   -0.49906  -0.48409  -0.46301  -0.41215  -0.40621
 Alpha  occ. eigenvalues --   -0.39340  -0.36176  -0.34535  -0.33312  -0.31747
 Alpha  occ. eigenvalues --   -0.30008  -0.29603  -0.27833  -0.25347  -0.23721
 Alpha  occ. eigenvalues --   -0.22953  -0.21701  -0.21593  -0.18527  -0.17247
 Alpha  occ. eigenvalues --   -0.13967  -0.11492  -0.10280   0.05607
 Alpha virt. eigenvalues --    0.07716   0.07820   0.08670   0.09940   0.10900
 Alpha virt. eigenvalues --    0.11327   0.11505   0.12675   0.12825   0.13841
 Alpha virt. eigenvalues --    0.15406   0.16002   0.16686   0.17224   0.17735

  Beta  occ. eigenvalues --  -19.05822 -14.24509 -14.23275 -14.20769 -10.10800
  Beta  occ. eigenvalues --  -10.09933 -10.04399 -10.04356 -10.04322 -10.03922
  Beta  occ. eigenvalues --  -10.03859 -10.03302  -0.98931  -0.88811  -0.74243
  Beta  occ. eigenvalues --   -0.72694  -0.67419  -0.64521  -0.61151  -0.56804
  Beta  occ. eigenvalues --   -0.49746  -0.48129  -0.46096  -0.41100  -0.40551
  Beta  occ. eigenvalues --   -0.39212  -0.36043  -0.34404  -0.32862  -0.31576
  Beta  occ. eigenvalues --   -0.29848  -0.29315  -0.27752  -0.25258  -0.23579
  Beta  occ. eigenvalues --   -0.22614  -0.21473  -0.20938  -0.18360  -0.17055
  Beta  occ. eigenvalues --   -0.13138  -0.10600  -0.09357
  Beta virt. eigenvalues --    0.07725   0.08264   0.08910   0.10027   0.10365
  Beta virt. eigenvalues --    0.11322   0.11522   0.11717   0.12920   0.13207
  Beta virt. eigenvalues --    0.14090   0.15416   0.16052   0.16776   0.17622

 Mulliken charges and spin densities:
               1          2
     1  C    2.074580  -2.601367
     2  C   -0.494101   1.166502
     3  C   -0.670695  -0.006513
     4  C   -0.482140  -0.237344
     5  C    1.312264  -0.277996
     6  C   -1.102453   0.835879
     7  C   -0.421449  -0.023315
     8  C    0.302150  -0.097762
     9  N   -0.444235   0.117898
    10  O    0.048488   0.005258
    11  N   -0.196088   0.007901
    12  N   -0.317022  -0.019309
    13  H   -0.348032   0.487480
    14  H   -0.403135   0.563439
    15  H    0.008409   0.126050
    16  H    0.035465   0.074729
    17  H   -0.232234   0.311895
    18  H   -0.320921   0.465961
    19  H    0.243803   0.023074
    20  H    0.210883   0.016566
    21  H    0.196463   0.060973
 Sum of Mulliken charges =  -1.00000   1.00000

 Dipole moment (field-independent basis, Debye):
    X=             -5.3013    Y=             -0.0258    Z=              2.3660  Tot=              5.8054
 Quadrupole moment (field-independent basis, Debye-Ang):
   XX=           -134.8363   YY=            -95.7770   ZZ=            -86.3446
   XY=              4.4449   XZ=              6.7168   YZ=             -2.0826

 Summary of Natural Population Analysis:

                                       Natural Population
                Natural  -----------------------------------------------
    Atom  No    Charge         Core      Valence    Rydberg      Total
 -----------------------------------------------------------------------
      C    1   -0.29294      0.99964     2.28749    0.00582     3.29294
      C    2    0.02924      0.99954     1.96200    0.00922     2.97076
      C    3   -0.11030      0.99947     2.10166    0.00917     3.11030
      C    4    0.16622      0.99938     1.81941    0.01499     2.83378
      C    5   -0.08423      0.99944     2.07590    0.00888     3.08423
      C    6   -0.04240      0.99955     2.03317    0.00968     3.04240
      C    7   -0.12801      0.99953     2.11819    0.01029     3.12801
      C    8    0.17833      0.99955     1.80594    0.01618     2.82167
      N    9   -0.09661      0.99965     2.58384    0.01311     3.59661
      O   10   -0.18086      0.99985     3.17201    0.00900     4.18086
      N   11   -0.22941      0.99966     2.71619    0.01356     3.72941
      N   12   -0.32297      0.99978     2.81242    0.01077     3.82297
      H   13    0.09817      0.00000     0.40086    0.00097     0.40183
      H   14    0.10681      0.00000     0.38931    0.00388     0.39319
      H   15    0.09929      0.00000     0.39975    0.00096     0.40071
      H   16    0.09849      0.00000     0.39990    0.00161     0.40151
      H   17    0.09290      0.00000     0.40605    0.00105     0.40710
      H   18    0.09576      0.00000     0.40317    0.00107     0.40424
      H   19    0.18025      0.00000     0.31632    0.00343     0.31975
      H   20    0.17062      0.00000     0.32642    0.00296     0.32938
      H   21    0.17164      0.00000     0.32617    0.00219     0.32836
 =======================================================================
   * Total *   -0.00000     11.99504    30.85617    0.14879    43.00000

 Normal termination of Gaussian 16 at Wed Dec  9 18:38:40 2020.
