 Gaussian 16, Revision A.03,

 -----------------------------------------------------------
 # opt freq B3LYP/6-31G(d) empiricaldispersion=gd3bj scf=xqc
 -----------------------------------------------------------

 -------------------------------
 CID_130646261_JID_4608_neutraal
 -------------------------------
 Symbolic Z-matrix:
 Charge =  0 Multiplicity = 1

 SCF Done:  E(RB3LYP) =  -617.130726065     A.U. after   13 cycles
 SCF Done:  E(RB3LYP) =  -617.139849455     A.U. after   11 cycles
 SCF Done:  E(RB3LYP) =  -617.141183864     A.U. after   10 cycles
 SCF Done:  E(RB3LYP) =  -617.141537008     A.U. after   10 cycles
 SCF Done:  E(RB3LYP) =  -617.141378380     A.U. after   10 cycles
 SCF Done:  E(RB3LYP) =  -617.141610691     A.U. after   10 cycles
 SCF Done:  E(RB3LYP) =  -617.141689111     A.U. after   10 cycles
 SCF Done:  E(RB3LYP) =  -617.141708584     A.U. after    9 cycles
 SCF Done:  E(RB3LYP) =  -617.141711395     A.U. after    8 cycles
 SCF Done:  E(RB3LYP) =  -617.141712376     A.U. after    7 cycles
 SCF Done:  E(RB3LYP) =  -617.141712807     A.U. after    7 cycles
 SCF Done:  E(RB3LYP) =  -617.141713341     A.U. after    7 cycles
 SCF Done:  E(RB3LYP) =  -617.141713802     A.U. after    8 cycles
 SCF Done:  E(RB3LYP) =  -617.141714428     A.U. after    8 cycles
 SCF Done:  E(RB3LYP) =  -617.141714764     A.U. after    8 cycles
 SCF Done:  E(RB3LYP) =  -617.141714892     A.U. after    7 cycles
 Optimization completed.
    -- Stationary point found.
 Normal termination of Gaussian 16 at Thu Dec 10 10:21:16 2020.

 --------------------------------------------------------------------
 #N Geom=AllCheck Guess=TCheck SCRF=Check GenChk RB3LYP/6-31G(d) Freq
 --------------------------------------------------------------------

 Structure from the checkpoint file:  "JID_4608.chk"
 -------------------------------
 CID_130646261_JID_4608_neutraal
 -------------------------------
 Charge =  0 Multiplicity = 1

 SCF Done:  E(RB3LYP) =  -617.141714892     A.U. after    1 cycles

  Exact polarizability: 141.433  -2.032 124.245  -1.118   1.906 117.494
 Approx polarizability: 175.458  -0.706 176.317  -0.606   2.631 176.280

                      1                      2                      3
                      A                      A                      A
 Frequencies --     35.8104                59.5590                68.2335
 Red. masses --      3.4082                 2.8749                 2.8562
 Frc consts  --      0.0026                 0.0060                 0.0078
 IR Inten    --      1.0452                 0.5403                 0.7494

                      4                      5                      6
                      A                      A                      A
 Frequencies --     87.4126               130.1532               133.8058
 Red. masses --      2.8651                 2.4087                 2.4855
 Frc consts  --      0.0129                 0.0240                 0.0262
 IR Inten    --      1.2573                 1.3620                 1.3682

                      7                      8                      9
                      A                      A                      A
 Frequencies --    184.8183               191.4703               208.7694
 Red. masses --      1.6567                 1.6632                 1.3673
 Frc consts  --      0.0333                 0.0359                 0.0351
 IR Inten    --      0.3940                 1.4578                 0.0386

                     10                     11                     12
                      A                      A                      A
 Frequencies --    219.3999               242.5816               251.8578
 Red. masses --      1.6449                 1.9443                 1.2846
 Frc consts  --      0.0467                 0.0674                 0.0480
 IR Inten    --      0.5409                 1.4563                 0.2413

                     13                     14                     15
                      A                      A                      A
 Frequencies --    309.1124               320.2981               332.3165
 Red. masses --      2.2636                 2.7260                 3.4839
 Frc consts  --      0.1274                 0.1648                 0.2267
 IR Inten    --      4.5968                 1.3765                 1.4408

                     16                     17                     18
                      A                      A                      A
 Frequencies --    351.9930               366.1998               400.3945
 Red. masses --      2.3898                 2.0117                 2.7516
 Frc consts  --      0.1745                 0.1589                 0.2599
 IR Inten    --      1.0797                 0.5974                 4.6420

                     19                     20                     21
                      A                      A                      A
 Frequencies --    422.7579               503.2614               541.2229
 Red. masses --      3.3581                 3.4368                 2.3770
 Frc consts  --      0.3536                 0.5129                 0.4102
 IR Inten    --      8.8763                 8.5063                 4.2691

                     22                     23                     24
                      A                      A                      A
 Frequencies --    623.8166               653.3668               684.8266
 Red. masses --      3.0062                 3.1571                 2.0265
 Frc consts  --      0.6893                 0.7941                 0.5600
 IR Inten    --      6.3280                 8.5287                51.2952

                     25                     26                     27
                      A                      A                      A
 Frequencies --    703.7037               773.8952               817.0283
 Red. masses --      1.9769                 1.5507                 3.9111
 Frc consts  --      0.5768                 0.5472                 1.5382
 IR Inten    --     49.2419                 5.3538                16.3156

                     28                     29                     30
                      A                      A                      A
 Frequencies --    860.2840               880.7975               893.1497
 Red. masses --      1.2974                 2.6831                 1.9263
 Frc consts  --      0.5657                 1.2264                 0.9054
 IR Inten    --      9.0522                18.2825                 9.8595

                     31                     32                     33
                      A                      A                      A
 Frequencies --    930.1228               934.3848               939.5719
 Red. masses --      1.8544                 2.4313                 1.7261
 Frc consts  --      0.9452                 1.2506                 0.8978
 IR Inten    --      8.5963                 4.2023                 2.6484

                     34                     35                     36
                      A                      A                      A
 Frequencies --    949.6126               960.4736               986.9018
 Red. masses --      2.2436                 1.7179                 1.7077
 Frc consts  --      1.1920                 0.9337                 0.9800
 IR Inten    --      4.4459                 6.8663                 0.6499

                     37                     38                     39
                      A                      A                      A
 Frequencies --   1002.4270              1025.1943              1050.5368
 Red. masses --      2.9534                 1.3858                 1.9559
 Frc consts  --      1.7486                 0.8581                 1.2718
 IR Inten    --      3.9162                 3.7537                 7.4805

                     40                     41                     42
                      A                      A                      A
 Frequencies --   1052.7697              1099.0093              1114.9703
 Red. masses --      2.8748                 4.4335                 2.5933
 Frc consts  --      1.8773                 3.1550                 1.8995
 IR Inten    --      2.9651                62.4910                29.5729

                     43                     44                     45
                      A                      A                      A
 Frequencies --   1123.2914              1142.9639              1153.1363
 Red. masses --      2.9180                 1.1280                 1.8631
 Frc consts  --      2.1693                 0.8682                 1.4597
 IR Inten    --     34.8942                 1.8485                26.8558

                     46                     47                     48
                      A                      A                      A
 Frequencies --   1165.1126              1171.2543              1191.7197
 Red. masses --      1.8559                 1.5464                 2.3976
 Frc consts  --      1.4844                 1.2499                 2.0062
 IR Inten    --     12.6674                 9.0648                44.0998

                     49                     50                     51
                      A                      A                      A
 Frequencies --   1197.7736              1219.3995              1222.5496
 Red. masses --      1.8415                 1.5244                 1.3996
 Frc consts  --      1.5566                 1.3355                 1.2325
 IR Inten    --     15.3555                 4.3663                 7.4184

                     52                     53                     54
                      A                      A                      A
 Frequencies --   1228.6156              1243.5281              1253.1867
 Red. masses --      1.3219                 3.5490                 2.1152
 Frc consts  --      1.1757                 3.2334                 1.9572
 IR Inten    --      2.2919                36.8102                 1.5100

                     55                     56                     57
                      A                      A                      A
 Frequencies --   1276.6310              1281.1808              1293.1342
 Red. masses --      1.5772                 1.3889                 1.3430
 Frc consts  --      1.5144                 1.3432                 1.3232
 IR Inten    --      7.1931                 3.4399                 8.6083

                     58                     59                     60
                      A                      A                      A
 Frequencies --   1296.6707              1321.8105              1335.6830
 Red. masses --      2.2012                 1.2702                 1.5087
 Frc consts  --      2.1806                 1.3076                 1.5858
 IR Inten    --     19.0537                 3.3244                 5.1883

                     61                     62                     63
                      A                      A                      A
 Frequencies --   1366.4876              1390.8312              1395.4920
 Red. masses --      1.5715                 1.2904                 1.2760
 Frc consts  --      1.7289                 1.4707                 1.4641
 IR Inten    --      8.3148                 1.6107                10.0941

                     64                     65                     66
                      A                      A                      A
 Frequencies --   1409.1844              1420.7865              1430.3664
 Red. masses --      1.3233                 1.3698                 1.3377
 Frc consts  --      1.5483                 1.6291                 1.6125
 IR Inten    --      3.5929                23.0677                28.7889

                     67                     68                     69
                      A                      A                      A
 Frequencies --   1444.0932              1485.2208              1503.1990
 Red. masses --      1.2462                 1.1451                 1.0480
 Frc consts  --      1.5312                 1.4882                 1.3952
 IR Inten    --      7.5674                 4.3947                 1.3251

                     70                     71                     72
                      A                      A                      A
 Frequencies --   1504.8629              1511.1137              1516.0659
 Red. masses --      1.0813                 1.0571                 1.2175
 Frc consts  --      1.4427                 1.4223                 1.6487
 IR Inten    --      3.3111                 2.5948                11.1060

                     73                     74                     75
                      A                      A                      A
 Frequencies --   1516.9700              1527.4968              1528.3115
 Red. masses --      1.1034                 1.0709                 1.0782
 Frc consts  --      1.4960                 1.4721                 1.4837
 IR Inten    --      1.2996                 6.6687                 5.2462

                     76                     77                     78
                      A                      A                      A
 Frequencies --   1532.1415              1537.3476              1551.6158
 Red. masses --      1.0533                 1.0816                 1.0528
 Frc consts  --      1.4567                 1.5061                 1.4934
 IR Inten    --      4.8466                 3.3823                 9.1921

                     79                     80                     81
                      A                      A                      A
 Frequencies --   1560.8970              1565.6884              2952.9816
 Red. masses --      1.0879                 1.1228                 1.0739
 Frc consts  --      1.5617                 1.6217                 5.5173
 IR Inten    --      3.4979                 6.6079                71.5159

                     82                     83                     84
                      A                      A                      A
 Frequencies --   2972.6272              2994.6623              3005.2374
 Red. masses --      1.0687                 1.0528                 1.0657
 Frc consts  --      5.5641                 5.5626                 5.6709
 IR Inten    --     59.5853                90.9597                59.2309

                     85                     86                     87
                      A                      A                      A
 Frequencies --   3033.2072              3049.1681              3053.7010
 Red. masses --      1.0647                 1.0542                 1.0639
 Frc consts  --      5.7713                 5.7747                 5.8451
 IR Inten    --     34.9807                 2.0339                25.2305

                     88                     89                     90
                      A                      A                      A
 Frequencies --   3063.6307              3066.2131              3070.2412
 Red. masses --      1.0386                 1.0931                 1.0908
 Frc consts  --      5.7433                 6.0548                 6.0580
 IR Inten    --     27.4493                65.3202                 7.7628

                     91                     92                     93
                      A                      A                      A
 Frequencies --   3072.6685              3075.1181              3078.6998
 Red. masses --      1.0868                 1.0937                 1.0931
 Frc consts  --      6.0455                 6.0936                 6.1042
 IR Inten    --    119.3914                23.3487                36.3034

                     94                     95                     96
                      A                      A                      A
 Frequencies --   3094.1737              3101.8528              3115.6246
 Red. masses --      1.0857                 1.0602                 1.1027
 Frc consts  --      6.1243                 6.0099                 6.3067
 IR Inten    --     20.3361                44.5356                34.2365

                     97                     98                     99
                      A                      A                      A
 Frequencies --   3119.2066              3126.2190              3133.1549
 Red. masses --      1.1015                 1.1025                 1.1021
 Frc consts  --      6.3144                 6.3485                 6.3745
 IR Inten    --     21.3830                24.4180                45.0784

                    100                    101                    102
                      A                      A                      A
 Frequencies --   3155.1086              3165.3139              3515.4305
 Red. masses --      1.1103                 1.0992                 1.0739
 Frc consts  --      6.5122                 6.4890                 7.8192
 IR Inten    --     29.1225                20.4947                 0.0327

 - Thermochemistry -
 -------------------
 Temperature   298.150 Kelvin.  Pressure   1.00000 Atm.
 Atom     1 has atomic number  6 and mass  12.00000

 Molecular mass:   198.17321 amu.
 Principal axes and moments of inertia in atomic units:
                           1         2         3
     Eigenvalues --  1648.331554126.911954570.45228
           X            0.99996  -0.00820  -0.00370
           Y            0.00812   0.99974  -0.02114
           Z            0.00387   0.02111   0.99977
 This molecule is an asymmetric top.
 Rotational symmetry number  1.
 Warning -- assumption of classical behavior for rotation
           may cause significant error
 Rotational temperatures (Kelvin)      0.05255     0.02099     0.01895
 Rotational constants (GHZ):           1.09489     0.43731     0.39487
 Zero-point vibrational energy     862078.8 (Joules/Mol)
                                  206.04179 (Kcal/Mol)
 Warning -- explicit consideration of  21 degrees of freedom as
           vibrations may cause significant error
 Vibrational temperatures:     51.52    85.69    98.17   125.77   187.26
          (Kelvin)            192.52   265.91   275.48   300.37   315.67
                              349.02   362.37   444.74   460.84   478.13
                              506.44   526.88   576.08   608.25   724.08
                              778.70   897.53   940.05   985.31  1012.47
                             1113.46  1175.52  1237.76  1267.27  1285.04
                             1338.24  1344.37  1351.83  1366.28  1381.91
                             1419.93  1442.27  1475.03  1511.49  1514.70
                             1581.23  1604.19  1616.17  1644.47  1659.11
                             1676.34  1685.17  1714.62  1723.33  1754.44
                             1758.98  1767.70  1789.16  1803.06  1836.79
                             1843.33  1860.53  1865.62  1901.79  1921.75
                             1966.07  2001.10  2007.80  2027.50  2044.19
                             2057.98  2077.73  2136.90  2162.77  2165.16
                             2174.16  2181.28  2182.58  2197.73  2198.90
                             2204.41  2211.90  2232.43  2245.78  2252.68
                             4248.68  4276.95  4308.65  4323.87  4364.11
                             4387.07  4393.59  4407.88  4411.60  4417.39
                             4420.88  4424.41  4429.56  4451.83  4462.87
                             4482.69  4487.84  4497.93  4507.91  4539.50
                             4554.18  5057.92

 Zero-point correction=                           0.328348 (Hartree/Particle)
 Thermal correction to Energy=                    0.343566
 Thermal correction to Enthalpy=                  0.344511
 Thermal correction to Gibbs Free Energy=         0.286126
 Sum of electronic and zero-point Energies=           -616.813366
 Sum of electronic and thermal Energies=              -616.798149
 Sum of electronic and thermal Enthalpies=            -616.797204
 Sum of electronic and thermal Free Energies=         -616.855589

                     E (Thermal)             CV                S
                      KCal/Mol        Cal/Mol-Kelvin    Cal/Mol-Kelvin
 Total                  215.591             57.947            122.881
 Electronic               0.000              0.000              0.000
 Translational            0.889              2.981             41.757
 Rotational               0.889              2.981             31.808
 Vibrational            213.814             51.985             49.316
 Vibration     1          0.594              1.982              5.478
 Vibration     2          0.597              1.974              4.472
 Vibration     3          0.598              1.969              4.204
 Vibration     4          0.601              1.958              3.717
 Vibration     5          0.612              1.923              2.944
 Vibration     6          0.613              1.920              2.891
 Vibration     7          0.631              1.861              2.279
 Vibration     8          0.634              1.852              2.214
 Vibration     9          0.642              1.827              2.054
 Vibration    10          0.647              1.812              1.964
 Vibration    11          0.659              1.775              1.784
 Vibration    12          0.664              1.760              1.718
 Vibration    13          0.698              1.656              1.367
 Vibration    14          0.706              1.635              1.309
 Vibration    15          0.714              1.611              1.249
 Vibration    16          0.729              1.571              1.157
 Vibration    17          0.739              1.542              1.096
 Vibration    18          0.766              1.469              0.961
 Vibration    19          0.785              1.421              0.883
 Vibration    20          0.859              1.243              0.650
 Vibration    21          0.896              1.159              0.563

                           ! Non-Optimized Parameters !
 Normal termination of Gaussian 16 at Thu Dec 10 10:34:54 2020.

 ----------------------------------------------------------------------
 # B3LYP/6-311++G(d,p) empiricaldispersion=gd3bj scf=xqc pop=npa geom=c
 heck
 ----------------------------------------------------------------------

 ---------------------------------------
 CID_130646261_JID_4608_Energie_neutraal
 ---------------------------------------
 Structure from the checkpoint file:  "JID_4608.chk"
 Charge =  0 Multiplicity = 1

 SCF Done:  E(RB3LYP) =  -617.315981967     A.U. after   14 cycles
 Normal termination of Gaussian 16 at Thu Dec 10 10:41:18 2020.

 ----------------------------------------------------------------------
 # B3LYP/6-311++G(d,p) empiricaldispersion=gd3bj scf=xqc pop=npa geom=c
 heck
 ----------------------------------------------------------------------

 -------------------------------------
 CID_130646261_JID_4608_Energie_kation
 -------------------------------------
 Structure from the checkpoint file:  "JID_4608.chk"
 Charge =  1 Multiplicity = 2

 SCF Done:  E(UB3LYP) =  -617.032159217     A.U. after   25 cycles
 Normal termination of Gaussian 16 at Thu Dec 10 10:58:37 2020.
 Gaussian 16:  ES64L-G16RevA.03 25-Dec-2016

 ----------------------------------------------------------------------
 # B3LYP/6-311++G(d,p) empiricaldispersion=gd3bj scf=xqc pop=npa geom=c
 heck
 ----------------------------------------------------------------------

 ------------------------------------
 CID_130646261_JID_4608_Energie_anion
 ------------------------------------
 Structure from the checkpoint file:  "JID_4608.chk"
 Charge = -1 Multiplicity = 2

                         Standard orientation:
 ---------------------------------------------------------------------
 Center     Atomic      Atomic             Coordinates (Angstroms)
 Number     Number       Type             X           Y           Z
 ---------------------------------------------------------------------
      1          6           0       -2.110261   -1.260214    1.708479
      2          6           0       -2.176334   -0.398108    0.440552
      3          6           0       -0.862749    0.424763    0.258911
      4          6           0        0.032155   -0.602155   -0.497918
      5          6           0       -1.004882   -1.255036   -1.417199
      6          8           0       -2.230035   -1.291955   -0.702176
      7          6           0        1.254966   -0.083719   -1.275052
      8          7           0        2.510662    0.042902   -0.555286
      9          6           0        2.616980    0.676967    0.774299
     10          6           0        3.744529   -0.324945    1.115290
     11          6           0        3.200242   -1.163887   -0.064559
     12          7           0       -1.090244    1.694234   -0.422191
     13          6           0       -0.168318    2.775130   -0.103208
     14          6           0       -3.448919    0.440443    0.433975
     15          1           0       -2.944306   -1.968722    1.714325
     16          1           0       -1.180343   -1.836477    1.755361
     17          1           0       -2.176575   -0.638855    2.609124
     18          1           0       -0.452846    0.666081    1.243814
     19          1           0        0.367462   -1.358452    0.222004
     20          1           0       -1.121990   -0.667486   -2.346351
     21          1           0       -0.726104   -2.274284   -1.709833
     22          1           0        1.456565   -0.774457   -2.105569
     23          1           0        1.010410    0.877887   -1.742353
     24          1           0        2.858901    1.746068    0.756249
     25          1           0        1.735564    0.527207    1.417373
     26          1           0        3.719968   -0.783368    2.105976
     27          1           0        4.740224    0.079145    0.919257
     28          1           0        2.520645   -1.961565    0.282424
     29          1           0        3.916933   -1.599103   -0.771926
     30          1           0       -1.168184    1.566316   -1.427650
     31          1           0        0.889218    2.592951   -0.354915
     32          1           0       -0.488814    3.681933   -0.627286
     33          1           0       -0.220457    2.980657    0.972137
     34          1           0       -3.535058    1.009363   -0.492532
     35          1           0       -4.319963   -0.216316    0.532345
     36          1           0       -3.448351    1.151732    1.266355
 ---------------------------------------------------------------------

 SCF Done:  E(UB3LYP) =  -617.300937725     A.U. after   30 cycles

 The electronic state is 2-A.
 Alpha  occ. eigenvalues --  -19.01783 -14.20201 -14.20122 -10.12683 -10.11725
 Alpha  occ. eigenvalues --  -10.10355 -10.09728 -10.09354 -10.09352 -10.08948
 Alpha  occ. eigenvalues --  -10.07625 -10.07074 -10.05958 -10.05569  -0.93752
 Alpha  occ. eigenvalues --   -0.84342  -0.81005  -0.70161  -0.69130  -0.64693
 Alpha  occ. eigenvalues --   -0.59440  -0.58641  -0.57828  -0.55255  -0.54479
 Alpha  occ. eigenvalues --   -0.48802  -0.46026  -0.44686  -0.41160  -0.40818
 Alpha  occ. eigenvalues --   -0.38654  -0.37619  -0.36936  -0.35076  -0.34469
 Alpha  occ. eigenvalues --   -0.34275  -0.33429  -0.31294  -0.30218  -0.29729
 Alpha  occ. eigenvalues --   -0.28895  -0.28821  -0.27762  -0.27211  -0.26825
 Alpha  occ. eigenvalues --   -0.26397  -0.24363  -0.24128  -0.23722  -0.23046
 Alpha  occ. eigenvalues --   -0.22386  -0.21503  -0.15584  -0.12528  -0.11725
 Alpha  occ. eigenvalues --    0.04425
 Alpha virt. eigenvalues --    0.06489   0.06862   0.07136   0.08576   0.08690
 Alpha virt. eigenvalues --    0.09028   0.09354   0.09791   0.10809   0.11077
 Alpha virt. eigenvalues --    0.11482   0.11804   0.12333   0.12604   0.13094

  Beta  occ. eigenvalues --  -19.01781 -14.20198 -14.20110 -10.12683 -10.11712
  Beta  occ. eigenvalues --  -10.10347 -10.09719 -10.09333 -10.09328 -10.08920
  Beta  occ. eigenvalues --  -10.07616 -10.07050 -10.05934 -10.05556  -0.93746
  Beta  occ. eigenvalues --   -0.84325  -0.80984  -0.70139  -0.69114  -0.64667
  Beta  occ. eigenvalues --   -0.59396  -0.58607  -0.57771  -0.55205  -0.54429
  Beta  occ. eigenvalues --   -0.48766  -0.45991  -0.44621  -0.41124  -0.40785
  Beta  occ. eigenvalues --   -0.38627  -0.37583  -0.36909  -0.35051  -0.34438
  Beta  occ. eigenvalues --   -0.34247  -0.33407  -0.31258  -0.30190  -0.29701
  Beta  occ. eigenvalues --   -0.28865  -0.28791  -0.27735  -0.27186  -0.26798
  Beta  occ. eigenvalues --   -0.26367  -0.24333  -0.24103  -0.23700  -0.23011
  Beta  occ. eigenvalues --   -0.22351  -0.21491  -0.15573  -0.12511  -0.11700
  Beta virt. eigenvalues --    0.06519   0.07312   0.07513   0.07666   0.08893
  Beta virt. eigenvalues --    0.09289   0.09464   0.09741   0.10106   0.11048
  Beta virt. eigenvalues --    0.11427   0.11846   0.12178   0.12702   0.12893

 Mulliken charges and spin densities:
               1          2
     1  C    0.314604  -0.849676
     2  C   -0.788754   0.750333
     3  C   -0.771058  -0.148045
     4  C    0.786748  -0.264014
     5  C    0.755989  -1.081853
     6  O   -0.036494   0.011518
     7  C   -1.395088   0.403709
     8  N    0.109519   0.037135
     9  C   -0.686943   0.560352
    10  C    1.728529  -2.160357
    11  C   -0.212804  -0.025688
    12  N   -0.034375   0.064089
    13  C    0.364103  -0.707677
    14  C    0.458124  -0.664089
    15  H    0.020122   0.122063
    16  H   -0.454489   0.608524
    17  H   -0.152245   0.291895
    18  H    0.140355   0.115711
    19  H    0.785094  -0.606101
    20  H   -0.017176   0.165889
    21  H   -0.161190   0.334613
    22  H   -0.105730   0.284683
    23  H   -0.040051   0.219726
    24  H   -0.408728   0.562801
    25  H    0.114885  -0.035117
    26  H   -0.478131   0.644533
    27  H    0.168431  -0.031785
    28  H   -0.255355   0.341989
    29  H   -0.399308   0.558658
    30  H    0.184595   0.071913
    31  H    0.098264   0.058048
    32  H   -0.501898   0.655698
    33  H   -0.162981   0.309115
    34  H    0.034156   0.110724
    35  H    0.017966   0.124310
    36  H   -0.018688   0.166371
 Sum of Mulliken charges =  -1.00000   1.00000

 Dipole moment (field-independent basis, Debye):
    X=             -2.2884    Y=              0.0172    Z=             -2.0945  Tot=              3.1022
 Quadrupole moment (field-independent basis, Debye-Ang):
   XX=           -153.9870   YY=           -142.1228   ZZ=           -130.5380
   XY=              4.0825   XZ=             -2.4991   YZ=              1.3751

 Summary of Natural Population Analysis:

                                       Natural Population
                Natural  -----------------------------------------------
    Atom  No    Charge         Core      Valence    Rydberg      Total
 -----------------------------------------------------------------------
      C    1   -0.29289      0.99960     2.28597    0.00732     3.29289
      C    2    0.13438      0.99953     1.84892    0.01718     2.86562
      C    3   -0.01352      0.99951     1.99935    0.01466     3.01352
      C    4   -0.14323      0.99957     2.13331    0.01035     3.14323
      C    5   -0.00370      0.99956     1.99116    0.01299     3.00370
      O    6   -0.31420      0.99988     3.30537    0.00895     4.31420
      C    7   -0.08108      0.99958     2.06884    0.01266     3.08108
      N    8   -0.28258      0.99973     2.76897    0.01388     3.78258
      C    9   -0.07868      0.99964     2.06847    0.01057     3.07868
      C   10   -0.19528      0.99963     2.18789    0.00776     3.19528
      C   11   -0.07588      0.99965     2.06605    0.01019     3.07588
      N   12   -0.34628      0.99974     2.83375    0.01280     3.84628
      C   13   -0.17472      0.99964     2.16710    0.00797     3.17472
      C   14   -0.28911      0.99960     2.28298    0.00653     3.28911
      H   15    0.10186      0.00000     0.39717    0.00097     0.39814
      H   16    0.10177      0.00000     0.39681    0.00142     0.39823
      H   17    0.09984      0.00000     0.39910    0.00107     0.40016
      H   18    0.10305      0.00000     0.39482    0.00212     0.39695
      H   19    0.10414      0.00000     0.39344    0.00243     0.39586
      H   20    0.07363      0.00000     0.42482    0.00155     0.42637
      H   21    0.08981      0.00000     0.40892    0.00127     0.41019
      H   22    0.09684      0.00000     0.40187    0.00129     0.40316
      H   23    0.09507      0.00000     0.40307    0.00186     0.40493
      H   24    0.09048      0.00000     0.40760    0.00192     0.40952
      H   25    0.08376      0.00000     0.41400    0.00224     0.41624
      H   26    0.09907      0.00000     0.39959    0.00134     0.40093
      H   27    0.09693      0.00000     0.40192    0.00115     0.40307
      H   28    0.08278      0.00000     0.41520    0.00202     0.41722
      H   29    0.08953      0.00000     0.40889    0.00158     0.41047
      H   30    0.17294      0.00000     0.32446    0.00260     0.32706
      H   31    0.08028      0.00000     0.41783    0.00189     0.41972
      H   32    0.09462      0.00000     0.40437    0.00100     0.40538
      H   33    0.09331      0.00000     0.40532    0.00137     0.40669
      H   34    0.10733      0.00000     0.39147    0.00120     0.39267
      H   35    0.09775      0.00000     0.40129    0.00097     0.40225
      H   36    0.10198      0.00000     0.39702    0.00101     0.39802
 =======================================================================
   * Total *   -0.00000     13.99484    40.81710    0.18806    55.00000

 Normal termination of Gaussian 16 at Thu Dec 10 11:18:23 2020.
