 Gaussian 16, Revision A.03,

 -----------------------------------------------------------
 # opt freq B3LYP/6-31G(d) empiricaldispersion=gd3bj scf=xqc
 -----------------------------------------------------------

 -------------------------------
 CID_103983213_JID_4215_neutraal
 -------------------------------
 Symbolic Z-matrix:
 Charge =  0 Multiplicity = 1

 SCF Done:  E(RB3LYP) =  -617.177049250     A.U. after   13 cycles
 SCF Done:  E(RB3LYP) =  -617.181306473     A.U. after   11 cycles
 SCF Done:  E(RB3LYP) =  -617.182262801     A.U. after   11 cycles
 SCF Done:  E(RB3LYP) =  -617.182532112     A.U. after   10 cycles
 SCF Done:  E(RB3LYP) =  -617.182627032     A.U. after   10 cycles
 SCF Done:  E(RB3LYP) =  -617.182682228     A.U. after   11 cycles
 SCF Done:  E(RB3LYP) =  -617.182737417     A.U. after   11 cycles
 SCF Done:  E(RB3LYP) =  -617.182818801     A.U. after   11 cycles
 SCF Done:  E(RB3LYP) =  -617.182812835     A.U. after   11 cycles
 SCF Done:  E(RB3LYP) =  -617.183032304     A.U. after   10 cycles
 SCF Done:  E(RB3LYP) =  -617.190097926     A.U. after   10 cycles
 SCF Done:  E(RB3LYP) =  -617.190170399     A.U. after    9 cycles
 SCF Done:  E(RB3LYP) =  -617.190195568     A.U. after    8 cycles
 SCF Done:  E(RB3LYP) =  -617.190208109     A.U. after    8 cycles
 SCF Done:  E(RB3LYP) =  -617.190209540     A.U. after    7 cycles
 SCF Done:  E(RB3LYP) =  -617.190210080     A.U. after    7 cycles
 Optimization completed.
    -- Stationary point found.
 Normal termination of Gaussian 16 at Thu Dec 10 09:36:32 2020.

 --------------------------------------------------------------------
 #N Geom=AllCheck Guess=TCheck SCRF=Check GenChk RB3LYP/6-31G(d) Freq
 --------------------------------------------------------------------

 Structure from the checkpoint file:  "JID_4215.chk"
 -------------------------------
 CID_103983213_JID_4215_neutraal
 -------------------------------
 Charge =  0 Multiplicity = 1

 SCF Done:  E(RB3LYP) =  -617.190210080     A.U. after    1 cycles

  Exact polarizability: 142.791  -0.807 123.266   0.694   1.695 117.751
 Approx polarizability: 186.354   0.947 177.627   1.939  -0.481 174.218

                      1                      2                      3
                      A                      A                      A
 Frequencies --     72.2360                89.0496               145.4507
 Red. masses --      4.1029                 3.9212                 3.1126
 Frc consts  --      0.0126                 0.0183                 0.0388
 IR Inten    --      2.1828                 1.5037                 0.5164

                      4                      5                      6
                      A                      A                      A
 Frequencies --    171.5060               207.3425               215.5709
 Red. masses --      3.5860                 3.4277                 2.4649
 Frc consts  --      0.0621                 0.0868                 0.0675
 IR Inten    --      2.7531                 0.5019                 1.4749

                      7                      8                      9
                      A                      A                      A
 Frequencies --    238.7544               299.8301               301.3440
 Red. masses --      2.5481                 2.5903                 3.2284
 Frc consts  --      0.0856                 0.1372                 0.1727
 IR Inten    --      1.0315                 0.5108                 4.0526

                     10                     11                     12
                      A                      A                      A
 Frequencies --    312.3486               347.0919               361.6278
 Red. masses --      2.4392                 2.6172                 2.6327
 Frc consts  --      0.1402                 0.1858                 0.2029
 IR Inten    --      1.3065                 1.0007                 4.0901

                     13                     14                     15
                      A                      A                      A
 Frequencies --    414.8496               435.0473               450.3167
 Red. masses --      2.8592                 2.1211                 2.0206
 Frc consts  --      0.2899                 0.2365                 0.2414
 IR Inten    --      1.5968                 3.2246                 4.3827

                     16                     17                     18
                      A                      A                      A
 Frequencies --    467.2291               503.8804               530.3033
 Red. masses --      2.5510                 2.5256                 2.0521
 Frc consts  --      0.3281                 0.3778                 0.3400
 IR Inten    --      5.0095                 2.5667                 0.5442

                     19                     20                     21
                      A                      A                      A
 Frequencies --    573.0349               663.9397               716.7178
 Red. masses --      2.1128                 2.7698                 2.0028
 Frc consts  --      0.4088                 0.7194                 0.6062
 IR Inten    --     10.9976                 7.4209                16.0994

                     22                     23                     24
                      A                      A                      A
 Frequencies --    743.1991               744.1467               799.4535
 Red. masses --      2.0053                 1.8339                 1.1294
 Frc consts  --      0.6526                 0.5983                 0.4253
 IR Inten    --      3.6723                 8.6423               100.5522

                     25                     26                     27
                      A                      A                      A
 Frequencies --    807.5128               832.6225               844.6319
 Red. masses --      2.6648                 2.3955                 2.4053
 Frc consts  --      1.0238                 0.9784                 1.0110
 IR Inten    --      8.6500                 3.6658                 8.7549

                     28                     29                     30
                      A                      A                      A
 Frequencies --    865.4372               872.1723               890.7039
 Red. masses --      1.7997                 1.7509                 2.0829
 Frc consts  --      0.7942                 0.7847                 0.9736
 IR Inten    --      8.3851                 5.4498                 3.1575

                     31                     32                     33
                      A                      A                      A
 Frequencies --    901.7641               939.0388               951.5615
 Red. masses --      2.3099                 1.8079                 2.0979
 Frc consts  --      1.1067                 0.9393                 1.1192
 IR Inten    --      6.7576                 3.7596                 7.8669

                     34                     35                     36
                      A                      A                      A
 Frequencies --    974.1841              1012.4463              1025.6520
 Red. masses --      2.1542                 2.1044                 1.9991
 Frc consts  --      1.2045                 1.2709                 1.2390
 IR Inten    --     21.7299                16.1955                19.9738

                     37                     38                     39
                      A                      A                      A
 Frequencies --   1036.2333              1039.8954              1049.2954
 Red. masses --      2.0473                 2.1973                 2.1224
 Frc consts  --      1.2952                 1.4000                 1.3768
 IR Inten    --      1.3041                 7.1569                 2.2199

                     40                     41                     42
                      A                      A                      A
 Frequencies --   1079.9758              1095.7330              1105.4371
 Red. masses --      1.7414                 1.7739                 1.6246
 Frc consts  --      1.1966                 1.2548                 1.1697
 IR Inten    --      2.0448                30.1126                 1.1626

                     43                     44                     45
                      A                      A                      A
 Frequencies --   1133.1212              1154.7652              1165.5638
 Red. masses --      2.3730                 2.0078                 1.5875
 Frc consts  --      1.7952                 1.5775                 1.2707
 IR Inten    --     30.0422                18.9574                16.8443

                     46                     47                     48
                      A                      A                      A
 Frequencies --   1185.9230              1200.9914              1227.3568
 Red. masses --      2.0726                 2.1152                 1.5007
 Frc consts  --      1.7175                 1.7975                 1.3320
 IR Inten    --     16.8360                38.7011                 5.3250

                     49                     50                     51
                      A                      A                      A
 Frequencies --   1240.7779              1254.8140              1263.3496
 Red. masses --      1.3832                 1.3227                 1.2293
 Frc consts  --      1.2546                 1.2271                 1.1560
 IR Inten    --      9.1629                 3.4416                34.3360

                     52                     53                     54
                      A                      A                      A
 Frequencies --   1269.6071              1286.9927              1299.4422
 Red. masses --      1.3113                 1.4009                 1.3651
 Frc consts  --      1.2453                 1.3671                 1.3581
 IR Inten    --      6.2368                13.5624                13.1724

                     55                     56                     57
                      A                      A                      A
 Frequencies --   1321.3444              1334.3996              1349.4776
 Red. masses --      1.1614                 1.3024                 1.3131
 Frc consts  --      1.1948                 1.3663                 1.4089
 IR Inten    --      1.8050                 8.7662                 3.4925

                     58                     59                     60
                      A                      A                      A
 Frequencies --   1369.0555              1371.5218              1372.3115
 Red. masses --      1.4464                 1.2756                 1.3673
 Frc consts  --      1.5973                 1.4137                 1.5171
 IR Inten    --      4.8200                 0.8588                16.1678

                     61                     62                     63
                      A                      A                      A
 Frequencies --   1387.1797              1389.6616              1402.0215
 Red. masses --      1.5033                 1.3641                 1.4295
 Frc consts  --      1.7044                 1.5521                 1.6556
 IR Inten    --     21.6578                 8.2993                 0.5535

                     64                     65                     66
                      A                      A                      A
 Frequencies --   1409.3102              1414.2466              1416.4986
 Red. masses --      1.4070                 1.4765                 1.3977
 Frc consts  --      1.6464                 1.7400                 1.6524
 IR Inten    --     20.8876                 1.2081                 6.4075

                     67                     68                     69
                      A                      A                      A
 Frequencies --   1430.6181              1434.5406              1446.9956
 Red. masses --      1.4131                 1.4283                 1.3598
 Frc consts  --      1.7041                 1.7318                 1.6775
 IR Inten    --     14.5979                33.3002                 7.4854

                     70                     71                     72
                      A                      A                      A
 Frequencies --   1457.9449              1505.1640              1505.9878
 Red. masses --      1.3044                 1.1947                 1.0893
 Frc consts  --      1.6336                 1.5947                 1.4556
 IR Inten    --     61.0917                 4.2645                 3.2408

                     73                     74                     75
                      A                      A                      A
 Frequencies --   1515.6322              1517.0993              1522.8852
 Red. masses --      1.0871                 1.1041                 1.1054
 Frc consts  --      1.4713                 1.4972                 1.5104
 IR Inten    --      3.4749                 2.7592                 1.0032

                     76                     77                     78
                      A                      A                      A
 Frequencies --   1526.8023              1532.0861              1539.3482
 Red. masses --      1.1169                 1.1127                 1.0995
 Frc consts  --      1.5340                 1.5389                 1.5350
 IR Inten    --      4.3007                 5.0379                 3.3105

                     79                     80                     81
                      A                      A                      A
 Frequencies --   1540.7694              1553.7122              2889.2592
 Red. masses --      1.1005                 1.0911                 1.0815
 Frc consts  --      1.5393                 1.5519                 5.3190
 IR Inten    --     16.6936                 8.4644                71.8182

                     82                     83                     84
                      A                      A                      A
 Frequencies --   2909.9600              2929.4077              2953.1323
 Red. masses --      1.0748                 1.0742                 1.0752
 Frc consts  --      5.3624                 5.4311                 5.5247
 IR Inten    --     81.8908               133.0567                95.9638

                     85                     86                     87
                      A                      A                      A
 Frequencies --   2964.3336              3025.7660              3037.0750
 Red. masses --      1.0722                 1.0678                 1.0674
 Frc consts  --      5.5512                 5.7600                 5.8008
 IR Inten    --     82.9678                25.5278                18.8215

                     88                     89                     90
                      A                      A                      A
 Frequencies --   3046.6873              3048.9590              3055.1132
 Red. masses --      1.0665                 1.0602                 1.0863
 Frc consts  --      5.8327                 5.8071                 5.9741
 IR Inten    --     50.3181                28.6204                99.0078

                     91                     92                     93
                      A                      A                      A
 Frequencies --   3060.9120              3072.8416              3075.9321
 Red. masses --      1.0628                 1.0963                 1.0939
 Frc consts  --      5.8668                 6.0988                 6.0977
 IR Inten    --     36.5126                17.0261                16.4170

                     94                     95                     96
                      A                      A                      A
 Frequencies --   3081.3340              3086.9193              3093.5536
 Red. masses --      1.0902                 1.0992                 1.0972
 Frc consts  --      6.0986                 6.1712                 6.1864
 IR Inten    --     53.6958                57.7444                50.7539

                     97                     98                     99
                      A                      A                      A
 Frequencies --   3095.0979              3113.2823              3119.2044
 Red. masses --      1.1005                 1.0951                 1.0862
 Frc consts  --      6.2112                 6.2538                 6.2263
 IR Inten    --     47.4802                25.4426                38.7098

                    100                    101                    102
                      A                      A                      A
 Frequencies --   3169.9211              3458.9961              3511.5091
 Red. masses --      1.0858                 1.0678                 1.0750
 Frc consts  --      6.4282                 7.5276                 7.8100
 IR Inten    --     22.8032               335.0657                 0.0524

 - Thermochemistry -
 -------------------
 Temperature   298.150 Kelvin.  Pressure   1.00000 Atm.
 Atom     1 has atomic number  6 and mass  12.00000

 Molecular mass:   198.17321 amu.
 Principal axes and moments of inertia in atomic units:
                           1         2         3
     Eigenvalues --  1709.932553097.216803313.83541
           X            0.99992  -0.01295   0.00064
           Y            0.01284   0.99582   0.09045
           Z           -0.00181  -0.09044   0.99590
 This molecule is an asymmetric top.
 Rotational symmetry number  1.
 Warning -- assumption of classical behavior for rotation
           may cause significant error
 Rotational temperatures (Kelvin)      0.05065     0.02797     0.02614
 Rotational constants (GHZ):           1.05545     0.58270     0.54461
 Zero-point vibrational energy     880314.5 (Joules/Mol)
                                  210.40020 (Kcal/Mol)
 Warning -- explicit consideration of  19 degrees of freedom as
           vibrations may cause significant error
 Vibrational temperatures:    103.93   128.12   209.27   246.76   298.32
          (Kelvin)            310.16   343.51   431.39   433.57   449.40
                              499.39   520.30   596.88   625.94   647.91
                              672.24   724.97   762.99   824.47   955.26
                             1031.20  1069.30  1070.66  1150.24  1161.83
                             1197.96  1215.24  1245.17  1254.86  1281.52
                             1297.44  1351.07  1369.08  1401.63  1456.68
                             1475.68  1490.91  1496.18  1509.70  1553.84
                             1576.52  1590.48  1630.31  1661.45  1676.99
                             1706.28  1727.96  1765.89  1785.20  1805.40
                             1817.68  1826.68  1851.70  1869.61  1901.12
                             1919.90  1941.60  1969.77  1973.31  1974.45
                             1995.84  1999.41  2017.20  2027.68  2034.79
                             2038.03  2058.34  2063.98  2081.90  2097.66
                             2165.60  2166.78  2180.66  2182.77  2191.09
                             2196.73  2204.33  2214.78  2216.82  2235.45
                             4157.00  4186.78  4214.76  4248.90  4265.01
                             4353.40  4369.67  4383.50  4386.77  4395.63
                             4403.97  4421.13  4425.58  4433.35  4441.39
                             4450.93  4453.16  4479.32  4487.84  4560.81
                             4976.72  5052.28

 Zero-point correction=                           0.335294 (Hartree/Particle)
 Thermal correction to Energy=                    0.347833
 Thermal correction to Enthalpy=                  0.348777
 Thermal correction to Gibbs Free Energy=         0.297646
 Sum of electronic and zero-point Energies=           -616.854916
 Sum of electronic and thermal Energies=              -616.842377
 Sum of electronic and thermal Enthalpies=            -616.841433
 Sum of electronic and thermal Free Energies=         -616.892564

                     E (Thermal)             CV                S
                      KCal/Mol        Cal/Mol-Kelvin    Cal/Mol-Kelvin
 Total                  218.269             52.613            107.616
 Electronic               0.000              0.000              0.000
 Translational            0.889              2.981             41.757
 Rotational               0.889              2.981             31.240
 Vibrational            216.491             46.652             34.619
 Vibration     1          0.598              1.967              4.091
 Vibration     2          0.602              1.957              3.681
 Vibration     3          0.617              1.908              2.731
 Vibration     4          0.626              1.878              2.419
 Vibration     5          0.641              1.829              2.067
 Vibration     6          0.645              1.817              1.996
 Vibration     7          0.657              1.781              1.812
 Vibration     8          0.692              1.674              1.418
 Vibration     9          0.693              1.671              1.409
 Vibration    10          0.701              1.650              1.350
 Vibration    11          0.725              1.581              1.179
 Vibration    12          0.736              1.551              1.115
 Vibration    13          0.778              1.438              0.910
 Vibration    14          0.796              1.394              0.842
 Vibration    15          0.809              1.360              0.795
 Vibration    16          0.825              1.323              0.745
 Vibration    17          0.859              1.241              0.648
 Vibration    18          0.885              1.183              0.587
 Vibration    19          0.929              1.090              0.498

                           ! Non-Optimized Parameters !
 Normal termination of Gaussian 16 at Thu Dec 10 09:49:20 2020.

 ----------------------------------------------------------------------
 # B3LYP/6-311++G(d,p) empiricaldispersion=gd3bj scf=xqc pop=npa geom=c
 heck
 ----------------------------------------------------------------------

 ---------------------------------------
 CID_103983213_JID_4215_Energie_neutraal
 ---------------------------------------
 Structure from the checkpoint file:  "JID_4215.chk"
 Charge =  0 Multiplicity = 1

 SCF Done:  E(RB3LYP) =  -617.369688903     A.U. after   13 cycles
 Normal termination of Gaussian 16 at Thu Dec 10 09:54:56 2020.

 ----------------------------------------------------------------------
 # B3LYP/6-311++G(d,p) empiricaldispersion=gd3bj scf=xqc pop=npa geom=c
 heck
 ----------------------------------------------------------------------

 -------------------------------------
 CID_103983213_JID_4215_Energie_kation
 -------------------------------------
 Structure from the checkpoint file:  "JID_4215.chk"
 Charge =  1 Multiplicity = 2

 SCF Done:  E(UB3LYP) =  -617.102498797     A.U. after   20 cycles
 Normal termination of Gaussian 16 at Thu Dec 10 10:06:59 2020.
 Gaussian 16:  ES64L-G16RevA.03 25-Dec-2016

 ----------------------------------------------------------------------
 # B3LYP/6-311++G(d,p) empiricaldispersion=gd3bj scf=xqc pop=npa geom=c
 heck
 ----------------------------------------------------------------------

 ------------------------------------
 CID_103983213_JID_4215_Energie_anion
 ------------------------------------
 Structure from the checkpoint file:  "JID_4215.chk"
 Charge = -1 Multiplicity = 2

                         Standard orientation:
 ---------------------------------------------------------------------
 Center     Atomic      Atomic             Coordinates (Angstroms)
 Number     Number       Type             X           Y           Z
 ---------------------------------------------------------------------
      1          6           0       -2.010938    1.451496    0.487473
      2          6           0       -1.720791    0.417005    1.586629
      3          6           0       -0.832835   -0.792781    1.221619
      4          6           0       -1.573735   -1.691780    0.200981
      5          6           0       -1.429789   -1.302715   -1.279215
      6          7           0       -1.458514    0.141227   -1.540928
      7          6           0       -2.512616    0.893167   -0.848503
      8          7           0        0.477529   -0.422714    0.700322
      9          6           0        1.417000   -1.510324    0.450918
     10          6           0        2.389766   -1.105890   -0.665136
     11          6           0        3.061158    0.239776   -0.359919
     12          6           0        2.021433    1.292620    0.058725
     13          6           0        1.184434    0.737464    1.221641
     14          8           0        1.165204    1.659794   -1.011998
     15          1           0       -2.761661    2.152291    0.877663
     16          1           0       -1.113942    2.036400    0.263115
     17          1           0       -1.298854    0.935573    2.455784
     18          1           0       -2.671495   -0.005684    1.936914
     19          1           0       -0.739980   -1.381731    2.157385
     20          1           0       -1.239148   -2.731657    0.291969
     21          1           0       -2.632888   -1.707349    0.481645
     22          1           0       -0.474403   -1.674702   -1.664097
     23          1           0       -2.224375   -1.837594   -1.830604
     24          1           0       -1.546183    0.280205   -2.544119
     25          1           0       -3.432208    0.297549   -0.706790
     26          1           0       -2.785670    1.740883   -1.486510
     27          1           0        1.981278   -1.766884    1.371177
     28          1           0        0.871483   -2.409738    0.155809
     29          1           0        1.823389   -1.017172   -1.599935
     30          1           0        3.142003   -1.890858   -0.811419
     31          1           0        3.616938    0.599881   -1.232692
     32          1           0        3.782588    0.115466    0.461010
     33          1           0        2.537568    2.207284    0.376376
     34          1           0        0.482370    1.502659    1.547168
     35          1           0        1.830177    0.485892    2.086114
     36          1           0        0.439754    0.993126   -1.057016
 ---------------------------------------------------------------------

 SCF Done:  E(UB3LYP) =  -617.355396337     A.U. after   29 cycles

 The electronic state is 2-A.
 Alpha  occ. eigenvalues --  -18.99441 -14.19770 -14.19282 -10.11268 -10.09807
 Alpha  occ. eigenvalues --  -10.09052 -10.08931 -10.08483 -10.08464 -10.06608
 Alpha  occ. eigenvalues --  -10.06555 -10.06285 -10.05988 -10.05648  -0.90312
 Alpha  occ. eigenvalues --   -0.82704  -0.79868  -0.70328  -0.67144  -0.66251
 Alpha  occ. eigenvalues --   -0.64176  -0.57963  -0.56545  -0.52743  -0.52326
 Alpha  occ. eigenvalues --   -0.46884  -0.45994  -0.44080  -0.40819  -0.40074
 Alpha  occ. eigenvalues --   -0.38525  -0.36861  -0.35647  -0.35030  -0.33769
 Alpha  occ. eigenvalues --   -0.33332  -0.32643  -0.32020  -0.31228  -0.30130
 Alpha  occ. eigenvalues --   -0.29139  -0.27980  -0.27027  -0.25234  -0.24632
 Alpha  occ. eigenvalues --   -0.24250  -0.23325  -0.22949  -0.22463  -0.21753
 Alpha  occ. eigenvalues --   -0.21247  -0.20258  -0.16007  -0.13238  -0.10201
 Alpha  occ. eigenvalues --    0.04495
 Alpha virt. eigenvalues --    0.06668   0.07111   0.07470   0.08552   0.08895
 Alpha virt. eigenvalues --    0.09161   0.09604   0.09934   0.11376   0.11577
 Alpha virt. eigenvalues --    0.11746   0.12113   0.12342   0.12724   0.13544

  Beta  occ. eigenvalues --  -18.99439 -14.19755 -14.19268 -10.11265 -10.09798
  Beta  occ. eigenvalues --  -10.09034 -10.08923 -10.08460 -10.08437 -10.06597
  Beta  occ. eigenvalues --  -10.06550 -10.06268 -10.05965 -10.05637  -0.90308
  Beta  occ. eigenvalues --   -0.82682  -0.79835  -0.70301  -0.67112  -0.66213
  Beta  occ. eigenvalues --   -0.64150  -0.57919  -0.56500  -0.52703  -0.52296
  Beta  occ. eigenvalues --   -0.46854  -0.45925  -0.44035  -0.40741  -0.40040
  Beta  occ. eigenvalues --   -0.38500  -0.36829  -0.35622  -0.34998  -0.33745
  Beta  occ. eigenvalues --   -0.33299  -0.32616  -0.31986  -0.31186  -0.30090
  Beta  occ. eigenvalues --   -0.29110  -0.27954  -0.26990  -0.25210  -0.24601
  Beta  occ. eigenvalues --   -0.24224  -0.23298  -0.22916  -0.22434  -0.21715
  Beta  occ. eigenvalues --   -0.21217  -0.20239  -0.15997  -0.13192  -0.10132
  Beta virt. eigenvalues --    0.06595   0.07366   0.07783   0.08176   0.09080
  Beta virt. eigenvalues --    0.09367   0.09476   0.10094   0.10414   0.11710
  Beta virt. eigenvalues --    0.11981   0.12011   0.12392   0.12651   0.13234

 Mulliken charges and spin densities:
               1          2
     1  C   -1.203423   1.136334
     2  C    1.556876  -2.370591
     3  C   -0.952195   1.380647
     4  C    0.482836  -0.936760
     5  C    0.542145  -0.899903
     6  N   -0.579634   0.205317
     7  C    1.276869  -1.710350
     8  N    0.117016  -0.020631
     9  C    0.161723  -0.506283
    10  C   -0.086209  -0.119001
    11  C   -0.192189  -0.293696
    12  C   -0.218936   0.131488
    13  C    0.023092  -0.364036
    14  O   -0.287359  -0.009666
    15  H   -0.352993   0.519008
    16  H    0.111303   0.012817
    17  H   -0.011403   0.164287
    18  H   -0.264596   0.411700
    19  H   -0.308075   0.505966
    20  H   -0.411267   0.595257
    21  H   -0.051134   0.194970
    22  H   -0.147660   0.269172
    23  H   -0.511640   0.676356
    24  H   -0.052211   0.338483
    25  H   -0.183962   0.322112
    26  H   -0.340510   0.509311
    27  H   -0.071110   0.181140
    28  H    0.005055   0.146438
    29  H    0.167920  -0.035772
    30  H   -0.179038   0.340399
    31  H    0.044772   0.132341
    32  H    0.102471  -0.008540
    33  H    0.066501   0.116605
    34  H    0.169631  -0.001563
    35  H   -0.030727   0.149943
    36  H    0.608061  -0.163300
 Sum of Mulliken charges =  -1.00000   1.00000

 Dipole moment (field-independent basis, Debye):
    X=              5.1407    Y=              1.9283    Z=              1.3008  Tot=              5.6424
 Quadrupole moment (field-independent basis, Debye-Ang):
   XX=           -146.5399   YY=           -136.7917   ZZ=           -132.0064
   XY=              0.3234   XZ=             -1.0612   YZ=              2.4726

 Summary of Natural Population Analysis:

                                       Natural Population
                Natural  -----------------------------------------------
    Atom  No    Charge         Core      Valence    Rydberg      Total
 -----------------------------------------------------------------------
      C    1   -0.19883      0.99961     2.18973    0.00950     3.19883
      C    2   -0.19231      0.99960     2.18349    0.00922     3.19231
      C    3    0.00540      0.99957     1.98152    0.01351     2.99460
      C    4   -0.20059      0.99960     2.19112    0.00987     3.20059
      C    5   -0.08269      0.99960     2.07088    0.01220     3.08269
      N    6   -0.35234      0.99974     2.83789    0.01471     3.85234
      C    7   -0.08669      0.99961     2.07574    0.01134     3.08669
      N    8   -0.30269      0.99968     2.78754    0.01547     3.80269
      C    9   -0.07959      0.99961     2.06908    0.01090     3.07959
      C   10   -0.19576      0.99962     2.18721    0.00894     3.19576
      C   11   -0.19764      0.99961     2.19056    0.00747     3.19764
      C   12    0.06278      0.99955     1.92361    0.01406     2.93722
      C   13   -0.09286      0.99959     2.08311    0.01016     3.09286
      O   14   -0.39646      0.99990     3.38994    0.00663     4.39646
      H   15    0.09754      0.00000     0.40133    0.00113     0.40246
      H   16    0.10180      0.00000     0.39615    0.00205     0.39820
      H   17    0.09864      0.00000     0.40022    0.00114     0.40136
      H   18    0.10107      0.00000     0.39752    0.00141     0.39893
      H   19    0.08519      0.00000     0.41286    0.00195     0.41481
      H   20    0.10435      0.00000     0.39401    0.00164     0.39565
      H   21    0.10089      0.00000     0.39737    0.00174     0.39911
      H   22    0.09194      0.00000     0.40614    0.00192     0.40806
      H   23    0.08567      0.00000     0.41247    0.00187     0.41433
      H   24    0.17942      0.00000     0.31787    0.00271     0.32058
      H   25    0.08240      0.00000     0.41575    0.00185     0.41760
      H   26    0.09664      0.00000     0.40201    0.00136     0.40336
      H   27    0.07842      0.00000     0.42006    0.00153     0.42158
      H   28    0.10173      0.00000     0.39675    0.00153     0.39827
      H   29    0.09946      0.00000     0.39887    0.00167     0.40054
      H   30    0.09646      0.00000     0.40262    0.00092     0.40354
      H   31    0.10022      0.00000     0.39869    0.00110     0.39978
      H   32    0.09231      0.00000     0.40646    0.00123     0.40769
      H   33    0.08076      0.00000     0.41780    0.00144     0.41924
      H   34    0.10264      0.00000     0.39601    0.00134     0.39736
      H   35    0.08232      0.00000     0.41624    0.00144     0.41768
      H   36    0.25041      0.00000     0.24512    0.00447     0.24959
 =======================================================================
   * Total *   -0.00000     13.99489    40.81370    0.19142    55.00000

 Normal termination of Gaussian 16 at Thu Dec 10 10:24:20 2020.
