 Gaussian 16, Revision A.03,

 -----------------------------------------------------------
 # opt freq B3LYP/6-31G(d) empiricaldispersion=gd3bj scf=xqc
 -----------------------------------------------------------

 -------------------------------
 CID_116680457_JID_4643_neutraal
 -------------------------------
 Symbolic Z-matrix:
 Charge =  0 Multiplicity = 1

 SCF Done:  E(RB3LYP) =  -613.465032087     A.U. after   14 cycles
 SCF Done:  E(RB3LYP) =  -613.475479212     A.U. after   12 cycles
 SCF Done:  E(RB3LYP) =  -613.476770225     A.U. after   11 cycles
 SCF Done:  E(RB3LYP) =  -613.477365771     A.U. after   11 cycles
 SCF Done:  E(RB3LYP) =  -613.477951073     A.U. after   12 cycles
 SCF Done:  E(RB3LYP) =  -613.478427455     A.U. after   12 cycles
 SCF Done:  E(RB3LYP) =  -613.479235758     A.U. after   12 cycles
 SCF Done:  E(RB3LYP) =  -613.479360851     A.U. after   11 cycles
 SCF Done:  E(RB3LYP) =  -613.479566534     A.U. after   12 cycles
 SCF Done:  E(RB3LYP) =  -613.479584541     A.U. after   11 cycles
 SCF Done:  E(RB3LYP) =  -613.479607776     A.U. after    9 cycles
 SCF Done:  E(RB3LYP) =  -613.479607927     A.U. after    7 cycles
 SCF Done:  E(RB3LYP) =  -613.479608011     A.U. after    7 cycles
 SCF Done:  E(RB3LYP) =  -613.479608039     A.U. after    7 cycles
 SCF Done:  E(RB3LYP) =  -613.479608050     A.U. after    6 cycles
 Optimization completed.
    -- Stationary point found.
 Normal termination of Gaussian 16 at Thu Dec 10 10:18:49 2020.

 --------------------------------------------------------------------
 #N Geom=AllCheck Guess=TCheck SCRF=Check GenChk RB3LYP/6-31G(d) Freq
 --------------------------------------------------------------------

 Structure from the checkpoint file:  "JID_4643.chk"
 -------------------------------
 CID_116680457_JID_4643_neutraal
 -------------------------------
 Charge =  0 Multiplicity = 1

 SCF Done:  E(RB3LYP) =  -613.479608050     A.U. after    1 cycles

  Exact polarizability: 131.514   2.057 140.757   9.806  -3.225  99.816
 Approx polarizability: 166.847   5.397 211.104  23.237  -3.240 165.875

                      1                      2                      3
                      A                      A                      A
 Frequencies --     21.1010                30.4108                41.2609
 Red. masses --      5.4864                 3.7477                 3.8030
 Frc consts  --      0.0014                 0.0020                 0.0038
 IR Inten    --      0.0235                 0.3139                 0.3502

                      4                      5                      6
                      A                      A                      A
 Frequencies --     76.8262               107.4244               133.2949
 Red. masses --      4.2598                 3.0658                 2.3013
 Frc consts  --      0.0148                 0.0208                 0.0241
 IR Inten    --      0.6336                 1.6277                 2.4246

                      7                      8                      9
                      A                      A                      A
 Frequencies --    160.5144               189.8739               196.8472
 Red. masses --      1.0719                 3.3588                 2.8537
 Frc consts  --      0.0163                 0.0713                 0.0652
 IR Inten    --      0.4921                 0.9502                 2.4120

                     10                     11                     12
                      A                      A                      A
 Frequencies --    212.5342               257.8352               321.8348
 Red. masses --      2.4885                 4.7845                 2.1075
 Frc consts  --      0.0662                 0.1874                 0.1286
 IR Inten    --      2.3566                 2.4088                 1.8819

                     13                     14                     15
                      A                      A                      A
 Frequencies --    337.9932               357.9237               454.4315
 Red. masses --      1.9125                 2.8462                 4.0852
 Frc consts  --      0.1287                 0.2148                 0.4971
 IR Inten    --      1.9882                 0.3852                 1.8817

                     16                     17                     18
                      A                      A                      A
 Frequencies --    505.6788               535.5028               620.2660
 Red. masses --      3.1567                 3.4061                 4.1013
 Frc consts  --      0.4756                 0.5755                 0.9297
 IR Inten    --      3.7646                 0.0245                11.2056

                     19                     20                     21
                      A                      A                      A
 Frequencies --    627.9432               666.2615               708.5164
 Red. masses --      3.5018                 3.2449                 1.9301
 Frc consts  --      0.8135                 0.8487                 0.5708
 IR Inten    --      4.4165                18.2892                16.1363

                     22                     23                     24
                      A                      A                      A
 Frequencies --    725.5240               731.7088               785.2229
 Red. masses --      1.4158                 1.8510                 1.3814
 Frc consts  --      0.4391                 0.5839                 0.5018
 IR Inten    --     17.1254                68.8892                40.5450

                     25                     26                     27
                      A                      A                      A
 Frequencies --    828.4722               840.2499               893.9911
 Red. masses --      1.8208                 1.2955                 4.1461
 Frc consts  --      0.7363                 0.5389                 1.9524
 IR Inten    --    116.2881                 3.9414                23.5075

                     28                     29                     30
                      A                      A                      A
 Frequencies --    900.6701               913.4431               939.5740
 Red. masses --      1.8852                 1.8638                 2.3131
 Frc consts  --      0.9010                 0.9162                 1.2031
 IR Inten    --      5.9557                 8.4249                16.7644

                     31                     32                     33
                      A                      A                      A
 Frequencies --    958.4332               975.4692               995.9535
 Red. masses --      1.7536                 1.7064                 2.7061
 Frc consts  --      0.9491                 0.9567                 1.5815
 IR Inten    --     10.0969                 3.5428                 1.5871

                     34                     35                     36
                      A                      A                      A
 Frequencies --   1002.6374              1018.4872              1058.7209
 Red. masses --      2.7264                 3.5368                 1.5504
 Frc consts  --      1.6149                 2.1616                 1.0239
 IR Inten    --      3.2627                17.3615                 0.9203

                     37                     38                     39
                      A                      A                      A
 Frequencies --   1066.4317              1099.5204              1102.4456
 Red. masses --      2.0609                 1.8351                 2.1533
 Frc consts  --      1.3809                 1.3071                 1.5419
 IR Inten    --     21.2502                10.4919                22.3398

                     40                     41                     42
                      A                      A                      A
 Frequencies --   1104.6642              1107.2948              1120.7037
 Red. masses --      1.4863                 1.7288                 2.8898
 Frc consts  --      1.0686                 1.2489                 2.1384
 IR Inten    --      7.4018                 6.1694                25.7258

                     43                     44                     45
                      A                      A                      A
 Frequencies --   1131.0785              1148.4861              1195.5807
 Red. masses --      2.6692                 2.0656                 1.3709
 Frc consts  --      2.0119                 1.6052                 1.1545
 IR Inten    --     31.4853                 4.6599                 1.5666

                     46                     47                     48
                      A                      A                      A
 Frequencies --   1204.1715              1228.7808              1271.1655
 Red. masses --      2.7559                 1.3331                 1.5530
 Frc consts  --      2.3544                 1.1860                 1.4785
 IR Inten    --     16.2514                 6.2516                 0.5639

                     49                     50                     51
                      A                      A                      A
 Frequencies --   1279.7930              1283.4131              1297.0344
 Red. masses --      1.3257                 2.2792                 1.9652
 Frc consts  --      1.2793                 2.2119                 1.9479
 IR Inten    --      4.9960                 0.2921                 1.4227

                     52                     53                     54
                      A                      A                      A
 Frequencies --   1324.9145              1361.3859              1381.1039
 Red. masses --      1.2982                 1.5411                 1.3460
 Frc consts  --      1.3427                 1.6828                 1.5127
 IR Inten    --      3.4267                 3.8419                16.9101

                     55                     56                     57
                      A                      A                      A
 Frequencies --   1388.8668              1405.4200              1432.2529
 Red. masses --      1.2819                 1.5615                 2.3087
 Frc consts  --      1.4569                 1.8173                 2.7903
 IR Inten    --      7.1795                 4.9284                 7.3270

                     58                     59                     60
                      A                      A                      A
 Frequencies --   1437.4098              1497.7637              1507.3897
 Red. masses --      1.3296                 1.0929                 1.0473
 Frc consts  --      1.6185                 1.4445                 1.4021
 IR Inten    --      4.1948                 4.1519                 4.8044

                     61                     62                     63
                      A                      A                      A
 Frequencies --   1517.0400              1521.4151              1525.0419
 Red. masses --      1.1653                 1.0830                 1.0579
 Frc consts  --      1.5800                 1.4769                 1.4497
 IR Inten    --     22.8428                 1.7800                11.2356

                     64                     65                     66
                      A                      A                      A
 Frequencies --   1545.1658              1548.1905              1550.1185
 Red. masses --      1.1066                 2.4328                 1.3275
 Frc consts  --      1.5567                 3.4356                 1.8794
 IR Inten    --      0.3628                14.0290                12.9375

                     67                     68                     69
                      A                      A                      A
 Frequencies --   1644.0198              1813.5712              2990.9229
 Red. masses --      5.6397                 9.4433                 1.0643
 Frc consts  --      8.9809                18.2997                 5.6097
 IR Inten    --      1.3187                 0.3370                65.3254

                     70                     71                     72
                      A                      A                      A
 Frequencies --   2996.3200              2998.8532              3031.9373
 Red. masses --      1.0651                 1.0658                 1.0735
 Frc consts  --      5.6342                 5.6471                 5.8143
 IR Inten    --     12.4511                82.2952                 5.4198

                     73                     74                     75
                      A                      A                      A
 Frequencies --   3036.0318              3047.0257              3054.4614
 Red. masses --      1.0670                 1.0597                 1.0955
 Frc consts  --      5.7945                 5.7965                 6.0218
 IR Inten    --     68.8698                50.0170                39.5659

                     76                     77                     78
                      A                      A                      A
 Frequencies --   3057.4156              3087.6130              3090.8029
 Red. masses --      1.0959                 1.1054                 1.0934
 Frc consts  --      6.0358                 6.2090                 6.1540
 IR Inten    --     33.7252                20.9263                18.3844

                     79                     80                     81
                      A                      A                      A
 Frequencies --   3128.6585              3256.0731              3291.2498
 Red. masses --      1.1022                 1.0926                 1.0972
 Frc consts  --      6.3564                 6.8248                 7.0024
 IR Inten    --     23.1101                 1.5656                 0.8348

                     82                     83                     84
                      A                      A                      A
 Frequencies --   3301.1729              3472.8919              3508.9415
 Red. masses --      1.1040                 1.0737                 1.0761
 Frc consts  --      7.0886                 7.6302                 7.8065
 IR Inten    --      1.1015                 0.8307                 4.0264

 - Thermochemistry -
 -------------------
 Temperature   298.150 Kelvin.  Pressure   1.00000 Atm.
 Atom     1 has atomic number  6 and mass  12.00000

 Molecular mass:   192.12626 amu.
 Principal axes and moments of inertia in atomic units:
                           1         2         3
     Eigenvalues --  1727.653264511.443715716.66049
           X            0.99999  -0.00097  -0.00357
           Y            0.00096   0.99999  -0.00383
           Z            0.00358   0.00383   0.99999
 This molecule is an asymmetric top.
 Rotational symmetry number  1.
 Warning -- assumption of classical behavior for rotation
           may cause significant error
 Rotational temperatures (Kelvin)      0.05013     0.01920     0.01515
 Rotational constants (GHZ):           1.04462     0.40004     0.31570
 Zero-point vibrational energy     679029.3 (Joules/Mol)
                                  162.29190 (Kcal/Mol)
 Warning -- explicit consideration of  18 degrees of freedom as
           vibrations may cause significant error
 Vibrational temperatures:     30.36    43.75    59.37   110.54   154.56
          (Kelvin)            191.78   230.94   273.19   283.22   305.79
                              370.97   463.05   486.30   514.97   653.83
                              727.56   770.47   892.42   903.47   958.60
                             1019.40  1043.87  1052.77  1129.76  1191.99
                             1208.93  1286.25  1295.86  1314.24  1351.84
                             1378.97  1403.48  1432.95  1442.57  1465.38
                             1523.26  1534.36  1581.96  1586.17  1589.37
                             1593.15  1612.44  1627.37  1652.42  1720.17
                             1732.53  1767.94  1828.92  1841.34  1846.55
                             1866.14  1906.26  1958.73  1987.10  1998.27
                             2022.09  2060.69  2068.11  2154.95  2168.80
                             2182.68  2188.98  2194.20  2223.15  2227.50
                             2230.27  2365.38  2609.32  4303.27  4311.04
                             4314.68  4362.28  4368.17  4383.99  4394.69
                             4398.94  4442.39  4446.98  4501.44  4684.76
                             4735.37  4749.65  4996.72  5048.58

 Zero-point correction=                           0.258629 (Hartree/Particle)
 Thermal correction to Energy=                    0.272612
 Thermal correction to Enthalpy=                  0.273556
 Thermal correction to Gibbs Free Energy=         0.215369
 Sum of electronic and zero-point Energies=           -613.220979
 Sum of electronic and thermal Energies=              -613.206996
 Sum of electronic and thermal Enthalpies=            -613.206052
 Sum of electronic and thermal Free Energies=         -613.264239

                     E (Thermal)             CV                S
                      KCal/Mol        Cal/Mol-Kelvin    Cal/Mol-Kelvin
 Total                  171.067             51.526            122.465
 Electronic               0.000              0.000              0.000
 Translational            0.889              2.981             41.664
 Rotational               0.889              2.981             32.166
 Vibrational            169.289             45.564             48.634
 Vibration     1          0.593              1.985              6.528
 Vibration     2          0.594              1.984              5.802
 Vibration     3          0.594              1.981              5.198
 Vibration     4          0.599              1.965              3.970
 Vibration     5          0.606              1.943              3.315
 Vibration     6          0.613              1.920              2.898
 Vibration     7          0.622              1.891              2.544
 Vibration     8          0.633              1.854              2.229
 Vibration     9          0.636              1.844              2.162
 Vibration    10          0.644              1.822              2.022
 Vibration    11          0.667              1.750              1.676
 Vibration    12          0.707              1.632              1.301
 Vibration    13          0.718              1.600              1.222
 Vibration    14          0.733              1.559              1.131
 Vibration    15          0.813              1.351              0.782
 Vibration    16          0.861              1.237              0.644
 Vibration    17          0.891              1.171              0.575
 Vibration    18          0.980              0.989              0.416

                           ! Non-Optimized Parameters !
 Normal termination of Gaussian 16 at Thu Dec 10 10:26:40 2020.

 ----------------------------------------------------------------------
 # B3LYP/6-311++G(d,p) empiricaldispersion=gd3bj scf=xqc pop=npa geom=c
 heck
 ----------------------------------------------------------------------

 ---------------------------------------
 CID_116680457_JID_4643_Energie_neutraal
 ---------------------------------------
 Structure from the checkpoint file:  "JID_4643.chk"
 Charge =  0 Multiplicity = 1

 SCF Done:  E(RB3LYP) =  -613.654263652     A.U. after   15 cycles
 Normal termination of Gaussian 16 at Thu Dec 10 10:29:49 2020.

 ----------------------------------------------------------------------
 # B3LYP/6-311++G(d,p) empiricaldispersion=gd3bj scf=xqc pop=npa geom=c
 heck
 ----------------------------------------------------------------------

 -------------------------------------
 CID_116680457_JID_4643_Energie_kation
 -------------------------------------
 Structure from the checkpoint file:  "JID_4643.chk"
 Charge =  1 Multiplicity = 2

 SCF Done:  E(UB3LYP) =  -613.368789306     A.U. after   27 cycles
 Normal termination of Gaussian 16 at Thu Dec 10 10:42:03 2020.
 Gaussian 16:  ES64L-G16RevA.03 25-Dec-2016

 ----------------------------------------------------------------------
 # B3LYP/6-311++G(d,p) empiricaldispersion=gd3bj scf=xqc pop=npa geom=c
 heck
 ----------------------------------------------------------------------

 ------------------------------------
 CID_116680457_JID_4643_Energie_anion
 ------------------------------------
 Structure from the checkpoint file:  "JID_4643.chk"
 Charge = -1 Multiplicity = 2

                         Standard orientation:
 ---------------------------------------------------------------------
 Center     Atomic      Atomic             Coordinates (Angstroms)
 Number     Number       Type             X           Y           Z
 ---------------------------------------------------------------------
      1          6           0        2.779442    2.112858   -0.096569
      2          6           0        1.867804    0.936436   -0.319309
      3          6           0        2.272953   -0.327647   -0.208847
      4          6           0        3.568052   -1.028343    0.157623
      5          7           0        2.793765   -2.291866    0.340836
      6          6           0        1.588831   -1.681706   -0.296876
      7          6           0        0.416406    1.229541   -0.606762
      8          7           0       -0.233298    1.755903    0.603419
      9          6           0       -1.695073    1.835089    0.488789
     10          6           0       -2.378538    0.518176    0.223129
     11          6           0       -3.068103    0.139361   -0.889505
     12          8           0       -3.489435   -1.157055   -0.788664
     13          6           0       -3.046105   -1.618763    0.416213
     14          6           0       -2.363147   -0.645397    1.076149
     15          1           0        3.775965    1.803466    0.233185
     16          1           0        2.351736    2.786004    0.655517
     17          1           0        2.894574    2.699843   -1.018401
     18          1           0        4.301486   -1.051214   -0.664633
     19          1           0        4.084292   -0.689158    1.065365
     20          1           0        3.173318   -3.079203   -0.179637
     21          1           0        0.661854   -1.817037    0.275644
     22          1           0        1.399214   -2.009631   -1.331705
     23          1           0        0.325989    1.998239   -1.388335
     24          1           0       -0.077750    0.323805   -0.991979
     25          1           0       -0.000807    1.128510    1.373230
     26          1           0       -2.072430    2.274192    1.420409
     27          1           0       -1.934047    2.542962   -0.314113
     28          1           0       -3.337884    0.651188   -1.800907
     29          1           0       -3.302851   -2.640816    0.648881
     30          1           0       -1.905578   -0.730606    2.052801
 ---------------------------------------------------------------------

 SCF Done:  E(UB3LYP) =  -613.638765071     A.U. after   33 cycles
 SCF Done:  E(UB3LYP) =  -613.638765071     a.u. after    1 cycles

 The electronic state is 2-A.
 Alpha  occ. eigenvalues --  -19.10107 -14.20647 -14.19427 -10.13385 -10.12933
 Alpha  occ. eigenvalues --  -10.11094 -10.09474 -10.09434 -10.09210 -10.08708
 Alpha  occ. eigenvalues --  -10.08303 -10.07400 -10.07308 -10.06716  -1.02350
 Alpha  occ. eigenvalues --   -0.82722  -0.81658  -0.72158  -0.69677  -0.66159
 Alpha  occ. eigenvalues --   -0.60886  -0.60319  -0.57737  -0.55448  -0.50856
 Alpha  occ. eigenvalues --   -0.49516  -0.48259  -0.44231  -0.42355  -0.40257
 Alpha  occ. eigenvalues --   -0.37867  -0.37275  -0.36302  -0.35770  -0.35166
 Alpha  occ. eigenvalues --   -0.32879  -0.32442  -0.32009  -0.30766  -0.29782
 Alpha  occ. eigenvalues --   -0.29685  -0.29247  -0.27923  -0.26662  -0.26406
 Alpha  occ. eigenvalues --   -0.24941  -0.21413  -0.18942  -0.15652  -0.14526
 Alpha  occ. eigenvalues --   -0.13968  -0.12204   0.04386
 Alpha virt. eigenvalues --    0.06163   0.06617   0.07020   0.07840   0.08298
 Alpha virt. eigenvalues --    0.08908   0.09387   0.09530   0.09869   0.10677
 Alpha virt. eigenvalues --    0.10966   0.11707   0.11983   0.12913   0.13444

  Beta  occ. eigenvalues --  -19.10107 -14.20640 -14.19401 -10.13373 -10.12916
  Beta  occ. eigenvalues --  -10.11080 -10.09464 -10.09406 -10.09187 -10.08709
  Beta  occ. eigenvalues --  -10.08287 -10.07396 -10.07307 -10.06700  -1.02346
  Beta  occ. eigenvalues --   -0.82694  -0.81642  -0.72145  -0.69656  -0.66134
  Beta  occ. eigenvalues --   -0.60855  -0.60278  -0.57678  -0.55412  -0.50810
  Beta  occ. eigenvalues --   -0.49482  -0.48219  -0.44198  -0.42274  -0.40226
  Beta  occ. eigenvalues --   -0.37845  -0.37249  -0.36290  -0.35735  -0.35140
  Beta  occ. eigenvalues --   -0.32853  -0.32410  -0.31984  -0.30743  -0.29746
  Beta  occ. eigenvalues --   -0.29657  -0.29217  -0.27891  -0.26637  -0.26383
  Beta  occ. eigenvalues --   -0.24910  -0.21390  -0.18931  -0.15620  -0.14509
  Beta  occ. eigenvalues --   -0.13957  -0.12162
  Beta virt. eigenvalues --    0.06465   0.07228   0.07337   0.07655   0.08288
  Beta virt. eigenvalues --    0.08406   0.09272   0.09681   0.09922   0.10324
  Beta virt. eigenvalues --    0.11014   0.11215   0.11935   0.12219   0.13018

 Mulliken charges and spin densities:
               1          2
     1  C    0.928471  -1.459355
     2  C    0.239090   0.395272
     3  C   -0.874334   1.007472
     4  C    0.797688  -1.264192
     5  N   -0.313629   0.247568
     6  C    1.291900  -1.658849
     7  C   -2.210524   0.921247
     8  N    0.058894   0.009187
     9  C    0.969310  -1.872924
    10  C    1.754877  -1.451043
    11  C   -1.281124   1.015424
    12  O   -0.004224  -0.005325
    13  C    0.866688  -1.312575
    14  C   -1.228423   1.589180
    15  H   -0.079236   0.220460
    16  H    0.047994   0.126767
    17  H   -0.004424   0.142014
    18  H   -0.523119   0.680433
    19  H    0.049620   0.144142
    20  H   -0.131105   0.357314
    21  H    0.442943  -0.200485
    22  H   -0.631071   0.793174
    23  H   -0.118900   0.265750
    24  H    0.516738  -0.333768
    25  H    0.169290   0.018343
    26  H   -0.055356   0.239152
    27  H   -0.092793   0.255414
    28  H   -0.628075   0.811897
    29  H   -0.358867   0.531039
    30  H   -0.598301   0.787268
 Sum of Mulliken charges =  -1.00000   1.00000

 Dipole moment (field-independent basis, Debye):
    X=             -2.3948    Y=              2.9372    Z=              1.2299  Tot=              3.9844
 Quadrupole moment (field-independent basis, Debye-Ang):
   XX=           -159.6959   YY=           -135.6586   ZZ=           -122.1764
   XY=              8.9954   XZ=              4.2027   YZ=             -0.2858

 Summary of Natural Population Analysis:

                                       Natural Population
                Natural  -----------------------------------------------
    Atom  No    Charge         Core      Valence    Rydberg      Total
 -----------------------------------------------------------------------
      C    1   -0.29231      0.99963     2.28791    0.00478     3.29231
      C    2   -0.02515      0.99940     2.01459    0.01115     3.02515
      C    3   -0.01082      0.99944     1.99875    0.01264     3.01082
      C    4   -0.09434      0.99961     2.08431    0.01042     3.09434
      N    5   -0.34145      0.99977     2.82948    0.01220     3.84145
      C    6   -0.09539      0.99961     2.08563    0.01014     3.09539
      C    7   -0.09483      0.99958     2.08485    0.01041     3.09483
      N    8   -0.33294      0.99976     2.82192    0.01126     3.83294
      C    9   -0.09387      0.99959     2.08327    0.01102     3.09387
      C   10   -0.07277      0.99952     2.06287    0.01038     3.07277
      C   11    0.06205      0.99942     1.92360    0.01493     2.93795
      O   12   -0.23344      0.99987     3.22484    0.00873     4.23344
      C   13    0.06682      0.99952     1.92020    0.01346     2.93318
      C   14   -0.15168      0.99952     2.14130    0.01086     3.15168
      H   15    0.10126      0.00000     0.39782    0.00092     0.39874
      H   16    0.10721      0.00000     0.39125    0.00154     0.39279
      H   17    0.10059      0.00000     0.39817    0.00124     0.39941
      H   18    0.09344      0.00000     0.40377    0.00279     0.40656
      H   19    0.09133      0.00000     0.40722    0.00146     0.40867
      H   20    0.17449      0.00000     0.32169    0.00382     0.32551
      H   21    0.09483      0.00000     0.40295    0.00222     0.40517
      H   22    0.09320      0.00000     0.40460    0.00220     0.40680
      H   23    0.09163      0.00000     0.40679    0.00159     0.40837
      H   24    0.08960      0.00000     0.40732    0.00308     0.41040
      H   25    0.17030      0.00000     0.32641    0.00329     0.32970
      H   26    0.09990      0.00000     0.39887    0.00123     0.40010
      H   27    0.09710      0.00000     0.40149    0.00141     0.40290
      H   28    0.09764      0.00000     0.40078    0.00158     0.40236
      H   29    0.09668      0.00000     0.40192    0.00140     0.40332
      H   30    0.11092      0.00000     0.38771    0.00138     0.38908
 =======================================================================
   * Total *    0.00000     13.99422    37.82228    0.18349    52.00000

 Normal termination of Gaussian 16 at Thu Dec 10 10:55:59 2020.
