 Gaussian 16, Revision A.03,

 -----------------------------------------------------------
 # opt freq B3LYP/6-31G(d) empiricaldispersion=gd3bj scf=xqc
 -----------------------------------------------------------

 ------------------------------
 CID_29006613_JID_8364_neutraal
 ------------------------------
 Symbolic Z-matrix:
 Charge =  0 Multiplicity = 1

 SCF Done:  E(RB3LYP) =  -810.567729829     A.U. after   15 cycles
 SCF Done:  E(RB3LYP) =  -810.572696076     A.U. after   14 cycles
 SCF Done:  E(RB3LYP) =  -810.573077121     A.U. after   13 cycles
 SCF Done:  E(RB3LYP) =  -810.574538671     A.U. after   13 cycles
 SCF Done:  E(RB3LYP) =  -810.575146050     A.U. after   13 cycles
 SCF Done:  E(RB3LYP) =  -810.575313293     A.U. after   13 cycles
 SCF Done:  E(RB3LYP) =  -810.575629138     A.U. after   11 cycles
 SCF Done:  E(RB3LYP) =  -810.575672030     A.U. after   11 cycles
 SCF Done:  E(RB3LYP) =  -810.575715789     A.U. after   10 cycles
 SCF Done:  E(RB3LYP) =  -810.575727250     A.U. after    9 cycles
 SCF Done:  E(RB3LYP) =  -810.575731606     A.U. after    9 cycles
 SCF Done:  E(RB3LYP) =  -810.575732555     A.U. after    8 cycles
 SCF Done:  E(RB3LYP) =  -810.575733167     A.U. after    8 cycles
 SCF Done:  E(RB3LYP) =  -810.575733304     A.U. after    7 cycles
 Optimization completed.
    -- Stationary point found.
 Normal termination of Gaussian 16 at Fri Dec 11 20:16:53 2020.

 --------------------------------------------------------------------
 #N Geom=AllCheck Guess=TCheck SCRF=Check GenChk RB3LYP/6-31G(d) Freq
 --------------------------------------------------------------------

 Structure from the checkpoint file:  "JID_8364.chk"
 ------------------------------
 CID_29006613_JID_8364_neutraal
 ------------------------------
 Charge =  0 Multiplicity = 1

 SCF Done:  E(RB3LYP) =  -810.575733304     A.U. after    1 cycles

  Exact polarizability: 200.382  31.563 148.380  10.698 -10.109 152.598
 Approx polarizability: 268.816  56.630 210.314  30.812 -15.805 264.385

                      1                      2                      3
                      A                      A                      A
 Frequencies --     11.1354                27.4322                45.4136
 Red. masses --      3.3905                 4.7676                 3.2916
 Frc consts  --      0.0002                 0.0021                 0.0040
 IR Inten    --      0.3294                 0.1423                 0.5556

                      4                      5                      6
                      A                      A                      A
 Frequencies --     57.3484                68.5784                86.9251
 Red. masses --      4.1761                 3.2339                 3.2533
 Frc consts  --      0.0081                 0.0090                 0.0145
 IR Inten    --      3.7997                 0.1781                 2.1907

                      7                      8                      9
                      A                      A                      A
 Frequencies --    100.9330               110.0291               153.0650
 Red. masses --      3.4543                 2.5857                 2.2927
 Frc consts  --      0.0207                 0.0184                 0.0316
 IR Inten    --      1.9621                 0.1286                 0.9056

                     10                     11                     12
                      A                      A                      A
 Frequencies --    162.1808               170.0067               171.2357
 Red. masses --      1.6617                 1.2082                 2.2715
 Frc consts  --      0.0258                 0.0206                 0.0392
 IR Inten    --      1.8046                 0.4211                 0.5795

                     13                     14                     15
                      A                      A                      A
 Frequencies --    182.8301               210.3822               249.6239
 Red. masses --      2.3448                 1.6923                 2.6708
 Frc consts  --      0.0462                 0.0441                 0.0981
 IR Inten    --      1.8212                 2.8716                 2.3088

                     16                     17                     18
                      A                      A                      A
 Frequencies --    264.5831               292.9256               311.0927
 Red. masses --      3.4224                 1.7669                 4.3891
 Frc consts  --      0.1412                 0.0893                 0.2503
 IR Inten    --      2.4656                 1.2925                 2.0166

                     19                     20                     21
                      A                      A                      A
 Frequencies --    320.3340               356.9364               390.0864
 Red. masses --      2.5061                 3.5621                 3.8648
 Frc consts  --      0.1515                 0.2674                 0.3465
 IR Inten    --      1.2966                 2.5630                 1.4581

                     22                     23                     24
                      A                      A                      A
 Frequencies --    394.2749               402.2767               456.9718
 Red. masses --      2.2634                 4.0109                 2.0784
 Frc consts  --      0.2073                 0.3824                 0.2557
 IR Inten    --      2.5640                 0.4533                 6.6581

                     25                     26                     27
                      A                      A                      A
 Frequencies --    513.6557               524.1830               547.7694
 Red. masses --      3.7783                 3.9071                 3.1520
 Frc consts  --      0.5873                 0.6325                 0.5572
 IR Inten    --      3.5789                 0.6785                 0.5713

                     28                     29                     30
                      A                      A                      A
 Frequencies --    554.8958               580.0540               602.4640
 Red. masses --      2.7157                 4.6270                 4.4613
 Frc consts  --      0.4927                 0.9172                 0.9541
 IR Inten    --      6.8649                33.6482                 6.3857

                     31                     32                     33
                      A                      A                      A
 Frequencies --    667.3125               700.4312               719.0447
 Red. masses --      3.1828                 4.7643                 1.4119
 Frc consts  --      0.8351                 1.3771                 0.4301
 IR Inten    --      4.3285                 8.0737                13.3208

                     34                     35                     36
                      A                      A                      A
 Frequencies --    747.3251               764.6341               767.0151
 Red. masses --      3.0305                 3.1678                 2.1473
 Frc consts  --      0.9972                 1.0912                 0.7443
 IR Inten    --      1.4521                 4.9696                 9.3248

                     37                     38                     39
                      A                      A                      A
 Frequencies --    828.0637               843.5561               862.0191
 Red. masses --      1.8504                 1.5602                 2.0297
 Frc consts  --      0.7476                 0.6541                 0.8886
 IR Inten    --      2.7101                17.3984                 3.0780

                     40                     41                     42
                      A                      A                      A
 Frequencies --    889.9697               909.8178               942.5735
 Red. masses --      3.1530                 1.9354                 1.3331
 Frc consts  --      1.4714                 0.9439                 0.6978
 IR Inten    --     33.2563                 1.4678                 7.9519

                     43                     44                     45
                      A                      A                      A
 Frequencies --    958.2300               962.2059               974.9069
 Red. masses --      1.3491                 1.6903                 2.2773
 Frc consts  --      0.7298                 0.9220                 1.2752
 IR Inten    --      2.1547                 6.1295                28.0882

                     46                     47                     48
                      A                      A                      A
 Frequencies --    987.2918              1029.1574              1050.1898
 Red. masses --      2.1069                 2.2009                 1.7631
 Frc consts  --      1.2100                 1.3734                 1.1457
 IR Inten    --     43.3769                53.7335                22.6477

                     49                     50                     51
                      A                      A                      A
 Frequencies --   1054.3372              1055.7936              1064.9327
 Red. masses --      2.5579                 1.8580                 1.8839
 Frc consts  --      1.6753                 1.2203                 1.2588
 IR Inten    --     57.1662                 0.9078                15.9297

                     52                     53                     54
                      A                      A                      A
 Frequencies --   1093.0207              1104.1437              1148.1059
 Red. masses --      1.9250                 2.1895                 2.0969
 Frc consts  --      1.3550                 1.5727                 1.6285
 IR Inten    --     14.0638                14.1048                 1.5765

                     55                     56                     57
                      A                      A                      A
 Frequencies --   1153.0922              1172.0576              1188.7594
 Red. masses --      1.8401                 1.8419                 1.2546
 Frc consts  --      1.4415                 1.4908                 1.0446
 IR Inten    --     55.3770                15.9091                 7.0307

                     58                     59                     60
                      A                      A                      A
 Frequencies --   1207.6925              1225.0776              1240.8265
 Red. masses --      1.5689                 1.2747                 1.8563
 Frc consts  --      1.3483                 1.1271                 1.6839
 IR Inten    --     22.5718                 8.8608                64.5696

                     61                     62                     63
                      A                      A                      A
 Frequencies --   1249.3960              1266.0708              1300.1790
 Red. masses --      1.8427                 1.5149                 1.5293
 Frc consts  --      1.6948                 1.4307                 1.5231
 IR Inten    --     33.4734                17.8159                88.1804

                     64                     65                     66
                      A                      A                      A
 Frequencies --   1310.1552              1315.9415              1327.4477
 Red. masses --      1.6528                 2.1223                 1.6093
 Frc consts  --      1.6716                 2.1653                 1.6707
 IR Inten    --     25.6169               264.2687               103.3046

                     67                     68                     69
                      A                      A                      A
 Frequencies --   1349.5504              1356.8982              1384.0371
 Red. masses --      1.3043                 3.3107                 1.4100
 Frc consts  --      1.3996                 3.5914                 1.5913
 IR Inten    --      2.6206                59.1301                 6.7969

                     70                     71                     72
                      A                      A                      A
 Frequencies --   1396.7040              1407.2582              1413.5889
 Red. masses --      1.4795                 1.3340                 1.3642
 Frc consts  --      1.7005                 1.5565                 1.6061
 IR Inten    --      5.0565                28.9866                 6.0323

                     73                     74                     75
                      A                      A                      A
 Frequencies --   1425.0508              1434.2673              1443.8864
 Red. masses --      1.4396                 1.3472                 1.2759
 Frc consts  --      1.7225                 1.6328                 1.5672
 IR Inten    --      1.1905                 0.9413                 3.6135

                     76                     77                     78
                      A                      A                      A
 Frequencies --   1457.8474              1500.5904              1502.0325
 Red. masses --      2.6909                 1.0617                 1.1318
 Frc consts  --      3.3696                 1.4086                 1.5044
 IR Inten    --    108.3652                12.4359                 0.7353

                     79                     80                     81
                      A                      A                      A
 Frequencies --   1502.7130              1508.2326              1515.9587
 Red. masses --      1.3050                 1.0483                 1.0640
 Frc consts  --      1.7363                 1.4050                 1.4407
 IR Inten    --      8.0907                 9.2500                 7.5515

                     82                     83                     84
                      A                      A                      A
 Frequencies --   1517.1880              1525.4768              1527.5213
 Red. masses --      1.0765                 1.0866                 1.0793
 Frc consts  --      1.4599                 1.4898                 1.4837
 IR Inten    --      3.5335                 9.2621                 5.3221

                     85                     86                     87
                      A                      A                      A
 Frequencies --   1533.2008              1538.6155              1539.7360
 Red. masses --      1.1224                 1.3387                 1.0920
 Frc consts  --      1.5546                 1.8673                 1.5254
 IR Inten    --     11.7629                42.2223                23.5353

                     88                     89                     90
                      A                      A                      A
 Frequencies --   1542.9927              1555.1611              1620.3894
 Red. masses --      1.0938                 1.6112                 6.6511
 Frc consts  --      1.5343                 2.2959                10.2892
 IR Inten    --      0.8993                48.4658                 7.4672

                     91                     92                     93
                      A                      A                      A
 Frequencies --   1657.3280              1776.4346              3032.3918
 Red. masses --      6.1701                10.6824                 1.0670
 Frc consts  --      9.9853                19.8617                 5.7810
 IR Inten    --     95.8508               171.6061                26.2775

                     94                     95                     96
                      A                      A                      A
 Frequencies --   3036.3424              3038.7954              3041.6890
 Red. masses --      1.0646                 1.0609                 1.0334
 Frc consts  --      5.7826                 5.7718                 5.6331
 IR Inten    --      6.0910                26.5881                59.5398

                     97                     98                     99
                      A                      A                      A
 Frequencies --   3044.0735              3052.8930              3054.4039
 Red. masses --      1.0390                 1.0654                 1.0382
 Frc consts  --      5.6726                 5.8502                 5.7064
 IR Inten    --     14.3898                24.3399                 2.9208

                    100                    101                    102
                      A                      A                      A
 Frequencies --   3067.5029              3075.3265              3082.6417
 Red. masses --      1.0975                 1.0979                 1.0882
 Frc consts  --      6.0843                 6.1177                 6.0928
 IR Inten    --     32.9357                13.3716                30.7969

                    103                    104                    105
                      A                      A                      A
 Frequencies --   3087.2638              3096.5114              3109.0766
 Red. masses --      1.0727                 1.0988                 1.1019
 Frc consts  --      6.0240                 6.2074                 6.2759
 IR Inten    --     61.3449                75.4388                48.5201

                    106                    107                    108
                      A                      A                      A
 Frequencies --   3110.6360              3113.9825              3114.5513
 Red. masses --      1.1043                 1.1000                 1.1018
 Frc consts  --      6.2957                 6.2843                 6.2974
 IR Inten    --     31.4083                10.1602                43.6294

                    109                    110                    111
                      A                      A                      A
 Frequencies --   3156.4931              3158.6685              3171.3931
 Red. masses --      1.1018                 1.1039                 1.1013
 Frc consts  --      6.4678                 6.4890                 6.5261
 IR Inten    --     14.0064                26.4365                13.7296

                    112                    113                    114
                      A                      A                      A
 Frequencies --   3207.2370              3222.6373              3232.3545
 Red. masses --      1.0874                 1.0941                 1.0905
 Frc consts  --      6.5901                 6.6947                 6.7130
 IR Inten    --      6.6338                 8.0779                 2.8058

 - Thermochemistry -
 -------------------
 Temperature   298.150 Kelvin.  Pressure   1.00000 Atm.
 Atom     1 has atomic number  6 and mass  12.00000

 Molecular mass:   250.15689 amu.
 Principal axes and moments of inertia in atomic units:
                           1         2         3
     Eigenvalues --  3273.851577411.635198448.00373
           X            0.99981  -0.01258  -0.01511
           Y            0.01216   0.99954  -0.02768
           Z            0.01545   0.02749   0.99950
 This molecule is an asymmetric top.
 Rotational symmetry number  1.
 Warning -- assumption of classical behavior for rotation
           may cause significant error
 Rotational temperatures (Kelvin)      0.02646     0.01169     0.01025
 Rotational constants (GHZ):           0.55126     0.24350     0.21363
 Zero-point vibrational energy     912989.5 (Joules/Mol)
                                  218.20972 (Kcal/Mol)
 Warning -- explicit consideration of  30 degrees of freedom as
           vibrations may cause significant error
 Vibrational temperatures:     16.02    39.47    65.34    82.51    98.67
          (Kelvin)            125.07   145.22   158.31   220.23   233.34
                              244.60   246.37   263.05   302.69   359.15
                              380.68   421.45   447.59   460.89   513.55
                              561.25   567.27   578.79   657.48   739.04
                              754.18   788.12   798.37   834.57   866.81
                              960.11  1007.76  1034.54  1075.23  1100.14
                             1103.56  1191.40  1213.69  1240.25  1280.47
                             1309.02  1356.15  1378.68  1384.40  1402.67
                             1420.49  1480.73  1510.99  1516.96  1519.05
                             1532.20  1572.61  1588.62  1651.87  1659.04
                             1686.33  1710.36  1737.60  1762.61  1785.27
                             1797.60  1821.59  1870.67  1885.02  1893.35
                             1909.90  1941.70  1952.27  1991.32  2009.55
                             2024.73  2033.84  2050.33  2063.59  2077.43
                             2097.52  2159.01  2161.09  2162.07  2170.01
                             2181.13  2182.90  2194.82  2197.76  2205.93
                             2213.72  2215.34  2220.02  2237.53  2331.38
                             2384.53  2555.89  4362.94  4368.62  4372.15
                             4376.31  4379.74  4392.43  4394.61  4413.45
                             4424.71  4435.23  4441.88  4455.19  4473.27
                             4475.51  4480.33  4481.14  4541.49  4544.62
                             4562.93  4614.50  4636.66  4650.64

 Zero-point correction=                           0.347739 (Hartree/Particle)
 Thermal correction to Energy=                    0.367185
 Thermal correction to Enthalpy=                  0.368130
 Thermal correction to Gibbs Free Energy=         0.297637
 Sum of electronic and zero-point Energies=           -810.227994
 Sum of electronic and thermal Energies=              -810.208548
 Sum of electronic and thermal Enthalpies=            -810.207604
 Sum of electronic and thermal Free Energies=         -810.278097

                     E (Thermal)             CV                S
                      KCal/Mol        Cal/Mol-Kelvin    Cal/Mol-Kelvin
 Total                  230.412             71.688            148.365
 Electronic               0.000              0.000              0.000
 Translational            0.889              2.981             42.451
 Rotational               0.889              2.981             33.682
 Vibrational            228.635             65.727             72.231
 Vibration     1          0.593              1.987              7.797
 Vibration     2          0.593              1.984              6.007
 Vibration     3          0.595              1.979              5.008
 Vibration     4          0.596              1.975              4.546
 Vibration     5          0.598              1.969              4.194
 Vibration     6          0.601              1.958              3.728
 Vibration     7          0.604              1.948              3.436
 Vibration     8          0.606              1.941              3.268
 Vibration     9          0.619              1.899              2.634
 Vibration    10          0.622              1.889              2.524
 Vibration    11          0.625              1.879              2.435
 Vibration    12          0.626              1.878              2.422
 Vibration    13          0.630              1.863              2.299
 Vibration    14          0.643              1.825              2.040
 Vibration    15          0.662              1.763              1.733
 Vibration    16          0.671              1.738              1.631
 Vibration    17          0.688              1.687              1.457
 Vibration    18          0.700              1.653              1.357
 Vibration    19          0.706              1.635              1.308
 Vibration    20          0.732              1.561              1.135
 Vibration    21          0.758              1.491              1.000
 Vibration    22          0.761              1.482              0.984
 Vibration    23          0.768              1.465              0.954
 Vibration    24          0.815              1.345              0.775
 Vibration    25          0.869              1.220              0.625
 Vibration    26          0.879              1.196              0.600
 Vibration    27          0.903              1.145              0.549
 Vibration    28          0.910              1.129              0.534
 Vibration    29          0.937              1.074              0.485
 Vibration    30          0.961              1.027              0.445

                           ! Non-Optimized Parameters !
 Normal termination of Gaussian 16 at Fri Dec 11 20:34:05 2020.

 ----------------------------------------------------------------------
 # B3LYP/6-311++G(d,p) empiricaldispersion=gd3bj scf=xqc pop=npa geom=c
 heck
 ----------------------------------------------------------------------

 --------------------------------------
 CID_29006613_JID_8364_Energie_neutraal
 --------------------------------------
 Structure from the checkpoint file:  "JID_8364.chk"
 Charge =  0 Multiplicity = 1

 SCF Done:  E(RB3LYP) =  -810.800909004     A.U. after   16 cycles
 Normal termination of Gaussian 16 at Fri Dec 11 20:41:33 2020.

 ----------------------------------------------------------------------
 # B3LYP/6-311++G(d,p) empiricaldispersion=gd3bj scf=xqc pop=npa geom=c
 heck
 ----------------------------------------------------------------------

 ------------------------------------
 CID_29006613_JID_8364_Energie_kation
 ------------------------------------
 Structure from the checkpoint file:  "JID_8364.chk"
 Charge =  1 Multiplicity = 2

 SCF Done:  E(UB3LYP) =  -810.495328441     A.U. after   29 cycles
 Normal termination of Gaussian 16 at Fri Dec 11 21:00:16 2020.
 Gaussian 16:  ES64L-G16RevA.03 25-Dec-2016

 ----------------------------------------------------------------------
 # B3LYP/6-311++G(d,p) empiricaldispersion=gd3bj scf=xqc pop=npa geom=c
 heck
 ----------------------------------------------------------------------

 -----------------------------------
 CID_29006613_JID_8364_Energie_anion
 -----------------------------------
 Structure from the checkpoint file:  "JID_8364.chk"
 Charge = -1 Multiplicity = 2

                         Standard orientation:
 ---------------------------------------------------------------------
 Center     Atomic      Atomic             Coordinates (Angstroms)
 Number     Number       Type             X           Y           Z
 ---------------------------------------------------------------------
      1          6           0        4.438447   -2.327715   -1.009182
      2          6           0        3.213156   -1.489871   -1.386347
      3          6           0        2.077036   -1.546726   -0.354284
      4          6           0        2.451501   -1.073696    1.059808
      5          6           0        3.045468    0.340783    1.145940
      6          6           0        2.184083    1.448686    0.551199
      7          8           0        0.957504    1.622538    1.302462
      8          6           0       -0.167039    0.986978    0.864016
      9          6           0       -0.678138    1.143352   -0.444322
     10          6           0       -1.830525    0.467771   -0.818518
     11          6           0       -2.521589   -0.347494    0.089571
     12          6           0       -2.038415   -0.458170    1.400992
     13          6           0       -0.874275    0.201781    1.779201
     14          6           0       -3.752953   -1.044057   -0.384828
     15          8           0       -4.144334   -0.914568   -1.535758
     16          6           0       -4.513537   -1.921388    0.595561
     17          8           0       -0.037690    1.934323   -1.373947
     18          6           0       -0.132941    3.336968   -1.104166
     19          1           0        4.919116   -1.957174   -0.096594
     20          1           0        5.189840   -2.312257   -1.806432
     21          1           0        4.159315   -3.373942   -0.832919
     22          1           0        3.520091   -0.447430   -1.546603
     23          1           0        2.821576   -1.835952   -2.351456
     24          1           0        1.228627   -0.960036   -0.726699
     25          1           0        1.714474   -2.581427   -0.282502
     26          1           0        1.558335   -1.127875    1.692109
     27          1           0        3.174379   -1.771735    1.500463
     28          1           0        3.248689    0.584468    2.196099
     29          1           0        4.013677    0.373391    0.627051
     30          1           0        2.701598    2.409670    0.627295
     31          1           0        1.952156    1.270311   -0.499606
     32          1           0       -2.210520    0.579226   -1.827989
     33          1           0       -2.557873   -1.070739    2.130036
     34          1           0       -0.475817    0.112818    2.784614
     35          1           0       -3.875520   -2.726434    0.978696
     36          1           0       -4.858175   -1.339087    1.458179
     37          1           0       -5.374399   -2.353556    0.083381
     38          1           0       -1.180949    3.660695   -1.126478
     39          1           0        0.303918    3.586668   -0.131263
     40          1           0        0.421944    3.838837   -1.899288
 ---------------------------------------------------------------------

 SCF Done:  E(UB3LYP) =  -810.806864508     A.U. after   33 cycles
 SCF Done:  E(UB3LYP) =  -810.806864508     a.u. after    1 cycles

 The electronic state is 2-A.
 Alpha  occ. eigenvalues --  -19.02462 -19.02058 -18.93007 -10.11063 -10.11062
 Alpha  occ. eigenvalues --  -10.09208 -10.08491 -10.07758 -10.07559 -10.07491
 Alpha  occ. eigenvalues --  -10.06965 -10.06506 -10.06300 -10.03944 -10.03641
 Alpha  occ. eigenvalues --  -10.03620 -10.02670 -10.02319  -0.94714  -0.92667
 Alpha  occ. eigenvalues --   -0.87046  -0.71992  -0.71240  -0.67193  -0.63248
 Alpha  occ. eigenvalues --   -0.62703  -0.60650  -0.59082  -0.57118  -0.55542
 Alpha  occ. eigenvalues --   -0.51308  -0.48589  -0.47227  -0.45049  -0.41952
 Alpha  occ. eigenvalues --   -0.40726  -0.38475  -0.37358  -0.36750  -0.36244
 Alpha  occ. eigenvalues --   -0.35293  -0.34767  -0.33603  -0.32476  -0.31804
 Alpha  occ. eigenvalues --   -0.31104  -0.30542  -0.30321  -0.29856  -0.27917
 Alpha  occ. eigenvalues --   -0.27806  -0.27290  -0.26605  -0.26506  -0.25592
 Alpha  occ. eigenvalues --   -0.24682  -0.23714  -0.23090  -0.22758  -0.22350
 Alpha  occ. eigenvalues --   -0.21909  -0.21677  -0.20508  -0.18064  -0.15528
 Alpha  occ. eigenvalues --   -0.11862  -0.10250  -0.09331   0.04415
 Alpha virt. eigenvalues --    0.05840   0.07132   0.07871   0.08355   0.08854
 Alpha virt. eigenvalues --    0.09504   0.10024   0.10083   0.10921   0.11339
 Alpha virt. eigenvalues --    0.11735   0.12001   0.12347   0.12517   0.12852

  Beta  occ. eigenvalues --  -19.02468 -19.02013 -18.92549 -10.11051 -10.11022
  Beta  occ. eigenvalues --  -10.09291 -10.08141 -10.07550 -10.07488 -10.07455
  Beta  occ. eigenvalues --  -10.06957 -10.06507 -10.06300 -10.04015 -10.03648
  Beta  occ. eigenvalues --  -10.03516 -10.02510 -10.02203  -0.94641  -0.92572
  Beta  occ. eigenvalues --   -0.86200  -0.71798  -0.71148  -0.67134  -0.62971
  Beta  occ. eigenvalues --   -0.62556  -0.60455  -0.58946  -0.56963  -0.55455
  Beta  occ. eigenvalues --   -0.51210  -0.48251  -0.47029  -0.44968  -0.41724
  Beta  occ. eigenvalues --   -0.40521  -0.38377  -0.37280  -0.36671  -0.36055
  Beta  occ. eigenvalues --   -0.35225  -0.34739  -0.33406  -0.32414  -0.31688
  Beta  occ. eigenvalues --   -0.31084  -0.30414  -0.29764  -0.29698  -0.27820
  Beta  occ. eigenvalues --   -0.27741  -0.27144  -0.26447  -0.26308  -0.25478
  Beta  occ. eigenvalues --   -0.24471  -0.23460  -0.23003  -0.22592  -0.22005
  Beta  occ. eigenvalues --   -0.21667  -0.21408  -0.19470  -0.17278  -0.15397
  Beta  occ. eigenvalues --   -0.11232  -0.08970  -0.08840
  Beta virt. eigenvalues --    0.05907   0.07206   0.07810   0.08307   0.08798
  Beta virt. eigenvalues --    0.09352   0.09860   0.10014   0.10401   0.10823
  Beta virt. eigenvalues --    0.11337   0.11760   0.12027   0.12436   0.12491

 Mulliken charges and spin densities:
               1          2
     1  C   -0.335603  -0.305760
     2  C   -0.368447   0.139642
     3  C   -0.123584  -0.086659
     4  C   -0.081689   0.042091
     5  C   -0.420308  -0.267218
     6  C   -0.145763  -0.022422
     7  O   -0.078423   0.012070
     8  C   -0.109223   0.155991
     9  C    0.066309  -0.064624
    10  C   -0.124159   0.197302
    11  C    1.272673  -0.021628
    12  C   -0.855927   0.140305
    13  C   -0.516134   0.013920
    14  C   -0.482734   0.160683
    15  O   -0.392904   0.166935
    16  C   -0.477357  -0.028759
    17  O   -0.132487   0.014210
    18  C   -0.083280  -0.177965
    19  H    0.064662   0.067620
    20  H   -0.001132   0.126099
    21  H    0.091844   0.041430
    22  H    0.091436   0.047188
    23  H    0.137829   0.004170
    24  H    0.240539   0.009470
    25  H    0.151965  -0.003295
    26  H    0.174602  -0.013583
    27  H    0.112574   0.046788
    28  H    0.122522   0.047223
    29  H    0.058677   0.065777
    30  H   -0.148071   0.293161
    31  H    0.245470  -0.078249
    32  H    0.209625  -0.008420
    33  H    0.130902  -0.002348
    34  H    0.126343   0.027573
    35  H    0.109005   0.013333
    36  H    0.085868   0.039382
    37  H    0.160039  -0.001128
    38  H    0.047389   0.074989
    39  H    0.119984   0.058930
    40  H    0.056965   0.075776
 Sum of Mulliken charges =  -1.00000   1.00000

 Dipole moment (field-independent basis, Debye):
    X=              6.6828    Y=              0.0771    Z=              2.2616  Tot=              7.0556
 Quadrupole moment (field-independent basis, Debye-Ang):
   XX=           -179.2798   YY=           -131.2882   ZZ=           -133.6811
   XY=             -6.0654   XZ=            -12.3296   YZ=             -6.2457

 Summary of Natural Population Analysis:

                                       Natural Population
                Natural  -----------------------------------------------
    Atom  No    Charge         Core      Valence    Rydberg      Total
 -----------------------------------------------------------------------
      C    1   -0.28733      0.99967     2.28327    0.00439     3.28733
      C    2   -0.19417      0.99964     2.18595    0.00858     3.19417
      C    3   -0.19417      0.99963     2.18722    0.00732     3.19417
      C    4   -0.19713      0.99963     2.18863    0.00888     3.19713
      C    5   -0.20238      0.99962     2.19368    0.00908     3.20238
      C    6   -0.01293      0.99954     1.99990    0.01349     3.01293
      O    7   -0.29154      0.99986     3.28166    0.01003     4.29154
      C    8    0.18934      0.99932     1.79760    0.01374     2.81066
      C    9    0.09729      0.99932     1.88908    0.01432     2.90271
      C   10   -0.05934      0.99949     2.04946    0.01039     3.05934
      C   11   -0.05931      0.99948     2.04780    0.01203     3.05931
      C   12   -0.06845      0.99954     2.05980    0.00911     3.06845
      C   13   -0.14639      0.99953     2.13665    0.01021     3.14639
      C   14    0.30605      0.99965     1.67477    0.01953     2.69395
      O   15   -0.26178      0.99988     3.25525    0.00665     4.26178
      C   16   -0.33114      0.99964     2.32748    0.00402     3.33114
      O   17   -0.29691      0.99986     3.28680    0.01025     4.29691
      C   18   -0.09777      0.99959     2.09053    0.00764     3.09777
      H   19    0.09552      0.00000     0.40348    0.00100     0.40448
      H   20    0.09575      0.00000     0.40332    0.00093     0.40425
      H   21    0.09394      0.00000     0.40499    0.00107     0.40606
      H   22    0.09323      0.00000     0.40553    0.00124     0.40677
      H   23    0.09575      0.00000     0.40332    0.00094     0.40425
      H   24    0.10997      0.00000     0.38888    0.00114     0.39003
      H   25    0.09468      0.00000     0.40443    0.00089     0.40532
      H   26    0.10766      0.00000     0.39119    0.00115     0.39234
      H   27    0.09162      0.00000     0.40745    0.00093     0.40838
      H   28    0.09788      0.00000     0.40110    0.00101     0.40212
      H   29    0.09340      0.00000     0.40556    0.00104     0.40660
      H   30    0.08453      0.00000     0.41424    0.00123     0.41547
      H   31    0.09441      0.00000     0.40359    0.00199     0.40559
      H   32    0.11148      0.00000     0.38713    0.00139     0.38852
      H   33    0.09402      0.00000     0.40514    0.00084     0.40598
      H   34    0.09810      0.00000     0.40081    0.00108     0.40190
      H   35    0.10096      0.00000     0.39816    0.00088     0.39904
      H   36    0.09996      0.00000     0.39783    0.00221     0.40004
      H   37    0.10214      0.00000     0.39660    0.00126     0.39786
      H   38    0.08271      0.00000     0.41592    0.00137     0.41729
      H   39    0.08679      0.00000     0.41159    0.00162     0.41321
      H   40    0.08360      0.00000     0.41528    0.00112     0.41640
 =======================================================================
   * Total *    0.00000     17.99291    49.80109    0.20600    68.00000

 Normal termination of Gaussian 16 at Fri Dec 11 21:22:01 2020.
