 Gaussian 16, Revision A.03,

 -----------------------------------------------------------
 # opt freq B3LYP/6-31G(d) empiricaldispersion=gd3bj scf=xqc
 -----------------------------------------------------------

 -------------------------------
 CID_149803077_JID_1133_neutraal
 -------------------------------
 Symbolic Z-matrix:
 Charge =  0 Multiplicity = 1

 SCF Done:  E(RB3LYP) =  -478.085630443     A.U. after   16 cycles
 SCF Done:  E(RB3LYP) =  -478.087275820     A.U. after   14 cycles
 SCF Done:  E(RB3LYP) =  -478.088916249     A.U. after   13 cycles
 SCF Done:  E(RB3LYP) =  -478.088918079     A.U. after   13 cycles
 SCF Done:  E(RB3LYP) =  -478.089291209     A.U. after   12 cycles
 SCF Done:  E(RB3LYP) =  -478.089401109     A.U. after   12 cycles
 SCF Done:  E(RB3LYP) =  -478.089425626     A.U. after   11 cycles
 SCF Done:  E(RB3LYP) =  -478.089428778     A.U. after    9 cycles
 SCF Done:  E(RB3LYP) =  -478.089429126     A.U. after    8 cycles
 SCF Done:  E(RB3LYP) =  -478.089429160     A.U. after    7 cycles
 Optimization completed.
    -- Stationary point found.

 1\1\GINC-NODE114\FOpt\RB3LYP\6-31G(d)\C8H15N3\VSC10255\08-Dec-2020\0\\
 # opt freq B3LYP/6-31G(d) empiricaldispersion=gd3bj scf=xqc\\CID_14980
 3077_JID_1133_neutraal\\0,1\C,0.841756045,0.0521335566,-0.0326079314\C
 ,0.4724464657,1.4258696242,0.5334373209\C,0.9754290168,2.6287606622,-0
 .2943650416\C,0.4967707638,2.5611166265,-1.7356160175\C,1.2429313436,3
 .2385023733,-2.8586512769\C,1.2228605707,1.736196927,-2.7732046874\C,0
 .5302636112,3.9556292722,0.3720847319\C,0.9574546511,4.1102509377,1.83
 54705473\N,0.9784554492,5.1537726987,-0.4006998205\N,2.1951529561,5.27

 Normal termination of Gaussian 16 at Tue Dec  8 19:14:43 2020.

 --------------------------------------------------------------------
 #N Geom=AllCheck Guess=TCheck SCRF=Check GenChk RB3LYP/6-31G(d) Freq
 --------------------------------------------------------------------

 Structure from the checkpoint file:  "JID_1133.chk"
 -------------------------------
 CID_149803077_JID_1133_neutraal
 -------------------------------
 Charge =  0 Multiplicity = 1

 SCF Done:  E(RB3LYP) =  -478.089429160     A.U. after    1 cycles

  Exact polarizability: 105.259  -5.945 101.382  -7.529   7.076  90.966
 Approx polarizability: 140.133 -16.803 139.311 -27.943  28.588 178.942

                      1                      2                      3
                      A                      A                      A
 Frequencies --     43.7416                74.9023                88.7338
 Red. masses --      3.9552                 7.4887                 2.0576
 Frc consts  --      0.0045                 0.0248                 0.0095
 IR Inten    --      0.5468                 0.1954                 0.0559

                      4                      5                      6
                      A                      A                      A
 Frequencies --    118.9040               150.2345               176.2650
 Red. masses --      2.2499                 4.2182                 3.0727
 Frc consts  --      0.0187                 0.0561                 0.0562
 IR Inten    --      0.0423                 1.6601                 0.4023

                      7                      8                      9
                      A                      A                      A
 Frequencies --    207.2706               225.5445               269.8238
 Red. masses --      2.5888                 1.5948                 1.2456
 Frc consts  --      0.0655                 0.0478                 0.0534
 IR Inten    --      0.3989                 0.6224                 0.4265

                     10                     11                     12
                      A                      A                      A
 Frequencies --    294.9315               334.7081               357.9540
 Red. masses --      1.6312                 2.9962                 3.4097
 Frc consts  --      0.0836                 0.1978                 0.2574
 IR Inten    --      0.2505                 1.0372                 0.5190

                     13                     14                     15
                      A                      A                      A
 Frequencies --    374.2832               445.3741               474.1488
 Red. masses --      3.2707                 2.8119                 3.5976
 Frc consts  --      0.2700                 0.3286                 0.4765
 IR Inten    --      0.3277                 0.6311                 1.5708

                     16                     17                     18
                      A                      A                      A
 Frequencies --    520.9577               583.1578               707.1803
 Red. masses --      2.7410                13.1810                 4.7037
 Frc consts  --      0.4383                 2.6410                 1.3860
 IR Inten    --      3.6914                14.9974                14.9192

                     19                     20                     21
                      A                      A                      A
 Frequencies --    755.0060               798.5361               829.7180
 Red. masses --      1.3818                 1.0645                 1.5492
 Frc consts  --      0.4641                 0.3999                 0.6284
 IR Inten    --      2.8099                 0.4227                 1.4258

                     22                     23                     24
                      A                      A                      A
 Frequencies --    844.9417               866.0489               909.1491
 Red. masses --      2.2483                 1.5182                 2.6774
 Frc consts  --      0.9457                 0.6709                 1.3039
 IR Inten    --     15.1276                 1.0464                 5.3982

                     25                     26                     27
                      A                      A                      A
 Frequencies --    919.9217               966.9230               988.3822
 Red. masses --      2.9387                 1.9938                 2.1216
 Frc consts  --      1.4652                 1.0983                 1.2211
 IR Inten    --      5.6982                 1.5637                24.1604

                     28                     29                     30
                      A                      A                      A
 Frequencies --   1029.3760              1057.2280              1071.9874
 Red. masses --      1.9517                 1.3482                 1.7602
 Frc consts  --      1.2185                 0.8879                 1.1917
 IR Inten    --      5.3864                 0.1728                10.0446

                     31                     32                     33
                      A                      A                      A
 Frequencies --   1083.9828              1097.4876              1121.7707
 Red. masses --      1.6242                 1.3940                 2.1969
 Frc consts  --      1.1244                 0.9893                 1.6288
 IR Inten    --      2.7829                 3.0581                 6.7514

                     34                     35                     36
                      A                      A                      A
 Frequencies --   1135.5768              1148.1477              1162.8484
 Red. masses --      1.9662                 1.1176                 2.3458
 Frc consts  --      1.4939                 0.8680                 1.8689
 IR Inten    --     17.1383                 1.6276                 4.6143

                     37                     38                     39
                      A                      A                      A
 Frequencies --   1215.3755              1226.1699              1241.7786
 Red. masses --      1.3971                 2.1170                 1.8417
 Frc consts  --      1.2159                 1.8753                 1.6732
 IR Inten    --      0.6384                 1.6059                 0.7611

                     40                     41                     42
                      A                      A                      A
 Frequencies --   1284.8093              1304.0382              1317.4318
 Red. masses --      1.5493                 1.3508                 2.3932
 Frc consts  --      1.5069                 1.3533                 2.4473
 IR Inten    --     29.1203                 2.4896                79.5087

                     43                     44                     45
                      A                      A                      A
 Frequencies --   1358.8669              1384.7768              1399.9844
 Red. masses --      1.1605                 1.3852                 1.4443
 Frc consts  --      1.2625                 1.5651                 1.6679
 IR Inten    --      4.5373                11.4345                 4.1191

                     46                     47                     48
                      A                      A                      A
 Frequencies --   1408.5704              1437.7394              1440.4658
 Red. masses --      1.5093                 1.2409                 1.3191
 Frc consts  --      1.7644                 1.5113                 1.6126
 IR Inten    --      6.7169                 7.0652                 2.1556

                     49                     50                     51
                      A                      A                      A
 Frequencies --   1446.2639              1497.3093              1517.6271
 Red. masses --      1.4770                 1.0883                 1.0678
 Frc consts  --      1.8203                 1.4375                 1.4490
 IR Inten    --      0.5638                 0.7198                 0.9652

                     52                     53                     54
                      A                      A                      A
 Frequencies --   1524.4510              1528.7772              1533.8331
 Red. masses --      1.0500                 1.0557                 1.0463
 Frc consts  --      1.4377                 1.4537                 1.4503
 IR Inten    --      3.8929                 4.8615                 5.7057

                     55                     56                     57
                      A                      A                      A
 Frequencies --   1536.1364              1542.4874              2247.9735
 Red. masses --      1.1976                 1.1882                13.8436
 Frc consts  --      1.6651                 1.6657                41.2174
 IR Inten    --      3.7698                 6.5150               423.0441

                     58                     59                     60
                      A                      A                      A
 Frequencies --   3000.1281              3026.1597              3052.5424
 Red. masses --      1.0819                 1.0685                 1.0388
 Frc consts  --      5.7372                 5.7651                 5.7030
 IR Inten    --      5.7059                28.8162                28.3984

                     61                     62                     63
                      A                      A                      A
 Frequencies --   3055.8263              3083.1970              3088.2186
 Red. masses --      1.0402                 1.0890                 1.0890
 Frc consts  --      5.7232                 6.0993                 6.1192
 IR Inten    --      9.1550                 7.8663                37.4181

                     64                     65                     66
                      A                      A                      A
 Frequencies --   3111.1864              3127.6619              3129.3219
 Red. masses --      1.1019                 1.0904                 1.0951
 Frc consts  --      6.2839                 6.2848                 6.3184
 IR Inten    --     39.6881                 3.5354                46.4045

                     67                     68                     69
                      A                      A                      A
 Frequencies --   3143.6532              3146.1447              3147.7894
 Red. masses --      1.0999                 1.0538                 1.1012
 Frc consts  --      6.4045                 6.1456                 6.4288
 IR Inten    --     28.8607                19.0568                27.0999

                     70                     71                     72
                      A                      A                      A
 Frequencies --   3155.5593              3220.2545              3236.8138
 Red. masses --      1.0578                 1.1190                 1.1162
 Frc consts  --      6.2056                 6.8369                 6.8904
 IR Inten    --     10.3287                 3.0437                18.7874

 - Thermochemistry -
 -------------------
 Temperature   298.150 Kelvin.  Pressure   1.00000 Atm.
 Atom     1 has atomic number  6 and mass  12.00000

 Molecular mass:   153.12660 amu.
 Principal axes and moments of inertia in atomic units:
                           1         2         3
     Eigenvalues --  1308.010172009.857212840.24947
           X            0.99943   0.03019   0.01512
           Y           -0.03002   0.99948  -0.01143
           Z           -0.01545   0.01097   0.99982
 This molecule is an asymmetric top.
 Rotational symmetry number  1.
 Warning -- assumption of classical behavior for rotation
           may cause significant error
 Rotational temperatures (Kelvin)      0.06622     0.04309     0.03050
 Rotational constants (GHZ):           1.37976     0.89794     0.63542
 Zero-point vibrational energy     600253.0 (Joules/Mol)
                                  143.46392 (Kcal/Mol)
 Warning -- explicit consideration of  17 degrees of freedom as
           vibrations may cause significant error
 Vibrational temperatures:     62.93   107.77   127.67   171.08   216.15
          (Kelvin)            253.61   298.22   324.51   388.22   424.34
                              481.57   515.02   538.51   640.79   682.19
                              749.54   839.03  1017.47  1086.29  1148.92
                             1193.78  1215.68  1246.05  1308.06  1323.56
                             1391.19  1422.06  1481.04  1521.12  1542.35
                             1559.61  1579.04  1613.98  1633.84  1651.93
                             1673.08  1748.65  1764.18  1786.64  1848.55
                             1876.22  1895.49  1955.11  1992.39  2014.27
                             2026.62  2068.59  2072.51  2080.85  2154.29
                             2183.53  2193.34  2199.57  2206.84  2210.16
                             2219.30  3234.33  4316.52  4353.97  4391.93
                             4396.65  4436.03  4443.26  4476.30  4500.01
                             4502.40  4523.02  4526.60  4528.97  4540.15
                             4633.23  4657.05

 Zero-point correction=                           0.228624 (Hartree/Particle)
 Thermal correction to Energy=                    0.240747
 Thermal correction to Enthalpy=                  0.241692
 Thermal correction to Gibbs Free Energy=         0.190331
 Sum of electronic and zero-point Energies=           -477.860805
 Sum of electronic and thermal Energies=              -477.848682
 Sum of electronic and thermal Enthalpies=            -477.847738
 Sum of electronic and thermal Free Energies=         -477.899098

                     E (Thermal)             CV                S
                      KCal/Mol        Cal/Mol-Kelvin    Cal/Mol-Kelvin
 Total                  151.071             44.686            108.097
 Electronic               0.000              0.000              0.000
 Translational            0.889              2.981             40.988
 Rotational               0.889              2.981             30.391
 Vibrational            149.294             38.724             36.718
 Vibration     1          0.595              1.980              5.082
 Vibration     2          0.599              1.966              4.020
 Vibration     3          0.602              1.957              3.688
 Vibration     4          0.609              1.934              3.118
 Vibration     5          0.618              1.902              2.669
 Vibration     6          0.628              1.872              2.368
 Vibration     7          0.641              1.829              2.068
 Vibration     8          0.650              1.802              1.914
 Vibration     9          0.674              1.729              1.597
 Vibration    10          0.689              1.683              1.446
 Vibration    11          0.716              1.606              1.237
 Vibration    12          0.733              1.559              1.131
 Vibration    13          0.745              1.525              1.062
 Vibration    14          0.805              1.371              0.810
 Vibration    15          0.831              1.307              0.726
 Vibration    16          0.876              1.204              0.608
 Vibration    17          0.940              1.068              0.480

 Optimization completed.
    -- Stationary point found.

 1\1\GINC-NODE114\Freq\RB3LYP\6-31G(d)\C8H15N3\VSC10255\08-Dec-2020\0\\
 #N Geom=AllCheck Guess=TCheck SCRF=Check GenChk RB3LYP/6-31G(d) Freq\\
 CID_149803077_JID_1133_neutraal\\0,1\C,0.841756045,0.0521335566,-0.032
 6079314\C,0.4724464657,1.4258696242,0.5334373209\C,0.9754290168,2.6287
 606622,-0.2943650416\C,0.4967707638,2.5611166265,-1.7356160175\C,1.242
 9313436,3.2385023733,-2.8586512769\C,1.2228605707,1.736196927,-2.77320
 46874\C,0.5302636112,3.9556292722,0.3720847319\C,0.9574546511,4.110250
 9377,1.8354705473\N,0.9784554492,5.1537726987,-0.4006998205\N,2.195152

 Normal termination of Gaussian 16 at Tue Dec  8 19:20:49 2020.

 ----------------------------------------------------------------------
 # B3LYP/6-311++G(d,p) empiricaldispersion=gd3bj scf=xqc pop=npa geom=c
 heck
 ----------------------------------------------------------------------

 ---------------------------------------
 CID_149803077_JID_1133_Energie_neutraal
 ---------------------------------------
 Structure from the checkpoint file:  "JID_1133.chk"
 Charge =  0 Multiplicity = 1

 SCF Done:  E(RB3LYP) =  -478.220859865     A.U. after   15 cycles
 Normal termination of Gaussian 16 at Tue Dec  8 19:23:36 2020.

 ----------------------------------------------------------------------
 # B3LYP/6-311++G(d,p) empiricaldispersion=gd3bj scf=xqc pop=npa geom=c
 heck
 ----------------------------------------------------------------------

 -------------------------------------
 CID_149803077_JID_1133_Energie_kation
 -------------------------------------
 Structure from the checkpoint file:  "JID_1133.chk"
 Charge =  1 Multiplicity = 2

 SCF Done:  E(UB3LYP) =  -477.889695196     A.U. after   25 cycles
 Normal termination of Gaussian 16 at Tue Dec  8 19:30:23 2020.
 Gaussian 16:  ES64L-G16RevA.03 25-Dec-2016

 ------------------------------------
 CID_149803077_JID_1133_Energie_anion
 ------------------------------------
 Structure from the checkpoint file:  "JID_1133.chk"
 Charge = -1 Multiplicity = 2

                         Standard orientation:
 ---------------------------------------------------------------------
 Center     Atomic      Atomic             Coordinates (Angstroms)
 Number     Number       Type             X           Y           Z
 ---------------------------------------------------------------------
      1          6           0        2.909846   -0.969176    0.694269
      2          6           0        1.607185   -1.424118    0.030907
      3          6           0        0.482629   -0.365780    0.008759
      4          6           0        0.934313    0.923133   -0.658759
      5          6           0        0.294865    2.253187   -0.344314
      6          6           0        1.706598    1.978650    0.098703
      7          6           0       -0.773366   -0.939843   -0.695397
      8          6           0       -1.297523   -2.250158   -0.098544
      9          7           0       -1.888611    0.053060   -0.758571
     10          7           0       -2.302167    0.460402    0.326595
     11          7           0       -2.758651    0.922794    1.269388
     12          1           0        3.380728   -0.148841    0.147032
     13          1           0        3.623058   -1.799643    0.740347
     14          1           0        2.731879   -0.626437    1.720545
     15          1           0        1.816268   -1.736849   -1.002889
     16          1           0        1.248479   -2.317162    0.553827
     17          1           0        0.208528   -0.138632    1.051672
     18          1           0        1.232055    0.784892   -1.698669
     19          1           0        0.127022    2.944703   -1.164568
     20          1           0       -0.472101    2.288134    0.423833
     21          1           0        1.877654    1.817430    1.159519
     22          1           0        2.525396    2.481884   -0.408106
     23          1           0       -0.530146   -1.100206   -1.750529
     24          1           0       -1.476879   -2.144761    0.978422
     25          1           0       -2.242085   -2.523165   -0.577839
     26          1           0       -0.591138   -3.070505   -0.248214
 ---------------------------------------------------------------------

 SCF Done:  E(UB3LYP) =  -478.205260473     A.U. after   33 cycles
 SCF Done:  E(UB3LYP) =  -478.205260473     a.u. after    1 cycles

 The electronic state is 2-A.
 Alpha  occ. eigenvalues --  -14.34300 -14.24643 -14.23240 -10.11112 -10.07479
 Alpha  occ. eigenvalues --  -10.07291 -10.06534 -10.06491 -10.06320 -10.05800
 Alpha  occ. eigenvalues --  -10.04256  -1.01167  -0.85555  -0.76005  -0.70268
 Alpha  occ. eigenvalues --   -0.65102  -0.59017  -0.54064  -0.49860  -0.49451
 Alpha  occ. eigenvalues --   -0.46403  -0.41680  -0.39651  -0.38630  -0.37838
 Alpha  occ. eigenvalues --   -0.36681  -0.33564  -0.32508  -0.32242  -0.30866
 Alpha  occ. eigenvalues --   -0.30072  -0.28359  -0.26415  -0.26107  -0.25004
 Alpha  occ. eigenvalues --   -0.24685  -0.23397  -0.22121  -0.19077  -0.18631
 Alpha  occ. eigenvalues --   -0.16850  -0.13337   0.05098
 Alpha virt. eigenvalues --    0.06732   0.07477   0.08469   0.08769   0.10054
 Alpha virt. eigenvalues --    0.10555   0.10815   0.11116   0.12008   0.12506
 Alpha virt. eigenvalues --    0.13175   0.13677   0.14139   0.14413   0.14778

  Beta  occ. eigenvalues --  -14.34044 -14.24401 -14.23271 -10.11042 -10.07478
  Beta  occ. eigenvalues --  -10.07288 -10.06530 -10.06470 -10.06310 -10.05782
  Beta  occ. eigenvalues --  -10.04210  -1.00735  -0.85373  -0.75985  -0.70197
  Beta  occ. eigenvalues --   -0.65025  -0.58976  -0.53920  -0.49829  -0.49391
  Beta  occ. eigenvalues --   -0.46351  -0.41398  -0.39280  -0.38408  -0.37785
  Beta  occ. eigenvalues --   -0.36314  -0.33317  -0.32326  -0.31855  -0.30760
  Beta  occ. eigenvalues --   -0.30008  -0.28320  -0.26363  -0.26089  -0.24879
  Beta  occ. eigenvalues --   -0.24634  -0.23349  -0.22090  -0.18851  -0.18587
  Beta  occ. eigenvalues --   -0.16584  -0.13278
  Beta virt. eigenvalues --    0.07477   0.08085   0.08321   0.09190   0.09715
  Beta virt. eigenvalues --    0.10446   0.11026   0.11199   0.11725   0.12357
  Beta virt. eigenvalues --    0.12839   0.13593   0.14056   0.14404   0.14616

 Mulliken charges and spin densities:
               1          2
     1  C    2.162400  -2.843553
     2  C   -1.355015   1.184170
     3  C    0.930662  -0.920018
     4  C   -0.911315   1.089867
     5  C   -0.184641  -0.362467
     6  C    0.548914  -1.067121
     7  C   -0.322211   0.281901
     8  C    0.104123  -0.798094
     9  N   -0.345161  -0.011246
    10  N    0.486005   0.070069
    11  N   -0.264627   0.167598
    12  H   -0.217966   0.379100
    13  H   -1.097002   1.256252
    14  H   -0.137157   0.275355
    15  H   -0.033418   0.165880
    16  H   -0.133684   0.269005
    17  H   -0.091119   0.277814
    18  H   -0.115589   0.322156
    19  H    0.132729   0.005424
    20  H    0.150472  -0.014217
    21  H    0.046501   0.094201
    22  H   -0.330666   0.485090
    23  H    0.246662  -0.038168
    24  H    0.007186   0.169909
    25  H    0.140681   0.002999
    26  H   -0.416761   0.558093
 Sum of Mulliken charges =  -1.00000   1.00000

 Dipole moment (field-independent basis, Debye):
    X=             -5.4422    Y=              3.0277    Z=             -2.9403  Tot=              6.8870
 Quadrupole moment (field-independent basis, Debye-Ang):
   XX=           -137.0057   YY=           -113.6179   ZZ=            -96.0274
   XY=             11.7588   XZ=             -0.1392   YZ=              4.0673

 Summary of Natural Population Analysis:

                                       Natural Population
                Natural  -----------------------------------------------
    Atom  No    Charge         Core      Valence    Rydberg      Total
 -----------------------------------------------------------------------
      C    1   -0.28285      0.99966     2.27771    0.00547     3.28285
      C    2   -0.18671      0.99962     2.17754    0.00956     3.18671
      C    3   -0.11788      0.99955     2.10555    0.01278     3.11788
      C    4   -0.11318      0.99957     2.10190    0.01171     3.11318
      C    5   -0.19742      0.99962     2.19026    0.00754     3.19742
      C    6   -0.19780      0.99961     2.18920    0.00899     3.19780
      C    7   -0.00296      0.99955     1.99114    0.01227     3.00296
      C    8   -0.29456      0.99964     2.28899    0.00594     3.29456
      N    9   -0.19632      0.99970     2.68298    0.01364     3.69632
      N   10    0.13357      0.99970     2.35067    0.01607     3.36643
      N   11   -0.04094      0.99982     2.52839    0.01273     3.54094
      H   12    0.09908      0.00000     0.39923    0.00169     0.40092
      H   13    0.10253      0.00000     0.39484    0.00263     0.39747
      H   14    0.09554      0.00000     0.40297    0.00149     0.40446
      H   15    0.09200      0.00000     0.40664    0.00137     0.40800
      H   16    0.09969      0.00000     0.39847    0.00184     0.40031
      H   17    0.09703      0.00000     0.40096    0.00201     0.40297
      H   18    0.10155      0.00000     0.39730    0.00115     0.39845
      H   19    0.09859      0.00000     0.40059    0.00082     0.40141
      H   20    0.10416      0.00000     0.39474    0.00109     0.39584
      H   21    0.10314      0.00000     0.39581    0.00105     0.39686
      H   22    0.10205      0.00000     0.39686    0.00108     0.39795
      H   23    0.09348      0.00000     0.40514    0.00138     0.40652
      H   24    0.10105      0.00000     0.39806    0.00089     0.39895
      H   25    0.10143      0.00000     0.39777    0.00080     0.39857
      H   26    0.10574      0.00000     0.39321    0.00105     0.39426
 =======================================================================
   * Total *    0.00000     10.99604    30.86690    0.13705    42.00000

 Normal termination of Gaussian 16 at Tue Dec  8 19:39:18 2020.
