 Gaussian 16, Revision A.03,

 -----------------------------------------------------------
 # opt freq B3LYP/6-31G(d) empiricaldispersion=gd3bj scf=xqc
 -----------------------------------------------------------

 -------------------------------
 CID_105199102_JID_2945_neutraal
 -------------------------------
 Symbolic Z-matrix:
 Charge =  0 Multiplicity = 1

 SCF Done:  E(RB3LYP) =  -540.929001995     A.U. after   13 cycles
 SCF Done:  E(RB3LYP) =  -540.936314560     A.U. after   11 cycles
 SCF Done:  E(RB3LYP) =  -540.937680543     A.U. after   11 cycles
 SCF Done:  E(RB3LYP) =  -540.937876131     A.U. after   10 cycles
 SCF Done:  E(RB3LYP) =  -540.937945649     A.U. after   10 cycles
 SCF Done:  E(RB3LYP) =  -540.937999678     A.U. after   10 cycles
 SCF Done:  E(RB3LYP) =  -540.938061618     A.U. after   10 cycles
 SCF Done:  E(RB3LYP) =  -540.938110409     A.U. after   10 cycles
 SCF Done:  E(RB3LYP) =  -540.938142554     A.U. after    9 cycles
 SCF Done:  E(RB3LYP) =  -540.938202509     A.U. after   10 cycles
 SCF Done:  E(RB3LYP) =  -540.941536267     A.U. after    9 cycles
 SCF Done:  E(RB3LYP) =  -540.941541793     A.U. after    9 cycles
 SCF Done:  E(RB3LYP) =  -540.941543120     A.U. after    8 cycles
 SCF Done:  E(RB3LYP) =  -540.941543277     A.U. after    7 cycles
 SCF Done:  E(RB3LYP) =  -540.941543295     A.U. after    6 cycles
 SCF Done:  E(RB3LYP) =  -540.941543291     A.U. after    5 cycles
 Optimization completed.
    -- Stationary point found.
 Normal termination of Gaussian 16 at Wed Dec  9 18:49:31 2020.

 --------------------------------------------------------------------
 #N Geom=AllCheck Guess=TCheck SCRF=Check GenChk RB3LYP/6-31G(d) Freq
 --------------------------------------------------------------------

 Structure from the checkpoint file:  "JID_2945.chk"
 -------------------------------
 CID_105199102_JID_2945_neutraal
 -------------------------------
 Charge =  0 Multiplicity = 1

 SCF Done:  E(RB3LYP) =  -540.941543291     A.U. after    1 cycles

  Exact polarizability: 127.986   3.510 115.679  -1.304   0.650  98.060
 Approx polarizability: 155.008   0.060 153.524  -1.178   1.572 147.342

                      1                      2                      3
                      A                      A                      A
 Frequencies --     20.1654                41.0018                60.6280
 Red. masses --      3.2546                 3.1027                 2.5962
 Frc consts  --      0.0008                 0.0031                 0.0056
 IR Inten    --      0.1839                 0.1181                 0.1550

                      4                      5                      6
                      A                      A                      A
 Frequencies --     84.9026               101.9184               140.6486
 Red. masses --      3.3059                 3.0698                 3.3014
 Frc consts  --      0.0140                 0.0188                 0.0385
 IR Inten    --      1.6025                 4.3624                 0.2975

                      7                      8                      9
                      A                      A                      A
 Frequencies --    174.1687               183.2747               234.2425
 Red. masses --      2.3371                 2.6407                 1.0862
 Frc consts  --      0.0418                 0.0523                 0.0351
 IR Inten    --      1.8374                12.8185                 0.0693

                     10                     11                     12
                      A                      A                      A
 Frequencies --    234.4636               240.7376               264.3838
 Red. masses --      1.6671                 1.2528                 1.3898
 Frc consts  --      0.0540                 0.0428                 0.0572
 IR Inten    --      0.1754                 1.6076                 1.1861

                     13                     14                     15
                      A                      A                      A
 Frequencies --    266.5444               296.2722               313.9663
 Red. masses --      1.0763                 2.3344                 1.3180
 Frc consts  --      0.0451                 0.1207                 0.0765
 IR Inten    --      0.0369                 2.2000                39.3696

                     16                     17                     18
                      A                      A                      A
 Frequencies --    336.0832               362.9913               375.9737
 Red. masses --      2.2615                 2.1849                 2.1953
 Frc consts  --      0.1505                 0.1696                 0.1828
 IR Inten    --     18.4383                 0.9418                 2.0464

                     19                     20                     21
                      A                      A                      A
 Frequencies --    420.3105               423.7086               456.0134
 Red. masses --      3.1747                 2.2488                 2.3381
 Frc consts  --      0.3304                 0.2379                 0.2865
 IR Inten    --      6.3307                 1.5890                 0.5974

                     22                     23                     24
                      A                      A                      A
 Frequencies --    536.3675               565.6971               622.4237
 Red. masses --      2.4361                 2.6951                 2.3658
 Frc consts  --      0.4129                 0.5081                 0.5400
 IR Inten    --      1.5398                10.2898                 5.8434

                     25                     26                     27
                      A                      A                      A
 Frequencies --    806.5330               819.9367               836.4572
 Red. masses --      2.4857                 2.8369                 2.5162
 Frc consts  --      0.9527                 1.1237                 1.0372
 IR Inten    --     50.7611                11.4051                 0.9266

                     28                     29                     30
                      A                      A                      A
 Frequencies --    853.7253               911.8705               930.7257
 Red. masses --      2.0209                 1.8155                 1.3411
 Frc consts  --      0.8678                 0.8894                 0.6845
 IR Inten    --      6.8268                22.2040                 0.4050

                     31                     32                     33
                      A                      A                      A
 Frequencies --    938.9867               943.6195               949.5209
 Red. masses --      1.7948                 1.2145                 1.3769
 Frc consts  --      0.9324                 0.6372                 0.7314
 IR Inten    --     11.6212                 1.0684                 2.1208

                     34                     35                     36
                      A                      A                      A
 Frequencies --    968.5472               979.6430               985.2409
 Red. masses --      1.9997                 1.7065                 1.6353
 Frc consts  --      1.1052                 0.9649                 0.9353
 IR Inten    --     11.4979                22.4060                18.8832

                     37                     38                     39
                      A                      A                      A
 Frequencies --   1026.0056              1053.6261              1101.9807
 Red. masses --      1.6822                 2.0146                 2.1476
 Frc consts  --      1.0433                 1.3177                 1.5366
 IR Inten    --     51.0683                49.2315                 9.5610

                     40                     41                     42
                      A                      A                      A
 Frequencies --   1126.4995              1151.9211              1162.0666
 Red. masses --      1.7450                 2.1347                 2.0660
 Frc consts  --      1.3047                 1.6689                 1.6438
 IR Inten    --     11.1826                14.1913                11.4037

                     43                     44                     45
                      A                      A                      A
 Frequencies --   1181.4219              1203.5211              1208.8935
 Red. masses --      1.9847                 2.7148                 1.8242
 Frc consts  --      1.6322                 2.3168                 1.5707
 IR Inten    --      2.5443               152.3486                16.0574

                     46                     47                     48
                      A                      A                      A
 Frequencies --   1209.7018              1220.5298              1266.3498
 Red. masses --      2.0296                 2.2658                 1.3964
 Frc consts  --      1.7499                 1.9887                 1.3193
 IR Inten    --      6.2173                12.4926                 9.5853

                     49                     50                     51
                      A                      A                      A
 Frequencies --   1289.2426              1315.7694              1327.5004
 Red. masses --      1.1980                 1.2328                 1.2218
 Frc consts  --      1.1732                 1.2575                 1.2686
 IR Inten    --      7.1096                 0.7973                 5.4519

                     52                     53                     54
                      A                      A                      A
 Frequencies --   1370.3595              1378.3675              1382.3560
 Red. masses --      1.3063                 1.4420                 1.3245
 Frc consts  --      1.4453                 1.6142                 1.4913
 IR Inten    --      3.5784                11.0197                 4.2343

                     55                     56                     57
                      A                      A                      A
 Frequencies --   1392.8883              1414.1439              1418.3025
 Red. masses --      1.3448                 1.3100                 1.3818
 Frc consts  --      1.5373                 1.5435                 1.6377
 IR Inten    --     12.0691                 2.2596                 5.0419

                     58                     59                     60
                      A                      A                      A
 Frequencies --   1423.5636              1425.6214              1430.5983
 Red. masses --      1.3429                 1.3323                 1.3001
 Frc consts  --      1.6034                 1.5953                 1.5677
 IR Inten    --      6.1828                12.5894                 5.9480

                     61                     62                     63
                      A                      A                      A
 Frequencies --   1442.8941              1449.6640              1510.6158
 Red. masses --      1.2549                 1.2463                 1.0791
 Frc consts  --      1.5394                 1.5432                 1.4508
 IR Inten    --     20.0851                 2.9207                 0.7491

                     64                     65                     66
                      A                      A                      A
 Frequencies --   1514.2335              1519.6785              1520.8592
 Red. masses --      1.0473                 1.0487                 1.0511
 Frc consts  --      1.4148                 1.4270                 1.4324
 IR Inten    --      0.9394                 0.1971                 0.4290

                     67                     68                     69
                      A                      A                      A
 Frequencies --   1525.8310              1527.9188              1534.2377
 Red. masses --      1.0592                 1.0457                 1.0692
 Frc consts  --      1.4529                 1.4383                 1.4828
 IR Inten    --      2.1365                10.0979                 2.8373

                     70                     71                     72
                      A                      A                      A
 Frequencies --   1537.5878              1538.5749              1543.9503
 Red. masses --      1.0895                 1.0552                 1.0785
 Frc consts  --      1.5175                 1.4717                 1.5148
 IR Inten    --      0.1740                 1.0275                 8.9814

                     73                     74                     75
                      A                      A                      A
 Frequencies --   1559.9950              1706.0819              3022.2371
 Red. masses --      1.0829                 1.0799                 1.0761
 Frc consts  --      1.5527                 1.8520                 5.7911
 IR Inten    --     22.9251                10.4204                20.5436

                     76                     77                     78
                      A                      A                      A
 Frequencies --   3031.2937              3035.7833              3038.7867
 Red. masses --      1.0632                 1.0375                 1.0465
 Frc consts  --      5.7557                 5.6333                 5.6936
 IR Inten    --     22.7463                20.4123                29.5209

                     79                     80                     81
                      A                      A                      A
 Frequencies --   3044.5738              3048.9891              3056.0248
 Red. masses --      1.0475                 1.0384                 1.0534
 Frc consts  --      5.7210                 5.6873                 5.7966
 IR Inten    --     33.2440                 8.4956                20.5473

                     82                     83                     84
                      A                      A                      A
 Frequencies --   3056.5983              3069.2456              3073.4329
 Red. masses --      1.0684                 1.0994                 1.0942
 Frc consts  --      5.8812                 6.1020                 6.0895
 IR Inten    --     13.3628                62.4472                 4.5100

                     85                     86                     87
                      A                      A                      A
 Frequencies --   3088.9030              3099.2116              3106.5604
 Red. masses --      1.0941                 1.1017                 1.1009
 Frc consts  --      6.1503                 6.2349                 6.2598
 IR Inten    --     44.7517                 4.5980                80.6613

                     88                     89                     90
                      A                      A                      A
 Frequencies --   3109.6696              3114.9401              3118.4249
 Red. masses --      1.1023                 1.1005                 1.1021
 Frc consts  --      6.2801                 6.2911                 6.3146
 IR Inten    --     46.4605                44.9175                 1.3505

                     91                     92                     93
                      A                      A                      A
 Frequencies --   3122.0075              3126.5673              3129.9707
 Red. masses --      1.1030                 1.1012                 1.1030
 Frc consts  --      6.3341                 6.3427                 6.3663
 IR Inten    --     29.7633                71.2205                30.2238

                     94                     95                     96
                      A                      A                      A
 Frequencies --   3407.8599              3432.4417              3536.2496
 Red. masses --      1.0564                 1.0705                 1.0891
 Frc consts  --      7.2283                 7.4308                 8.0244
 IR Inten    --     17.5073                 2.8323                 0.5579

 - Thermochemistry -
 -------------------
 Temperature   298.150 Kelvin.  Pressure   1.00000 Atm.
 Atom     1 has atomic number  6 and mass  12.00000

 Molecular mass:   174.17321 amu.
 Principal axes and moments of inertia in atomic units:
                           1         2         3
     Eigenvalues --  1709.455623229.759374298.95917
           X            0.99998   0.00613   0.00259
           Y           -0.00611   0.99995  -0.00756
           Z           -0.00264   0.00754   0.99997
 This molecule is an asymmetric top.
 Rotational symmetry number  1.
 Warning -- assumption of classical behavior for rotation
           may cause significant error
 Rotational temperatures (Kelvin)      0.05067     0.02682     0.02015
 Rotational constants (GHZ):           1.05574     0.55879     0.41981
 Zero-point vibrational energy     828203.5 (Joules/Mol)
                                  197.94540 (Kcal/Mol)
 Warning -- explicit consideration of  23 degrees of freedom as
           vibrations may cause significant error
 Vibrational temperatures:     29.01    58.99    87.23   122.16   146.64
          (Kelvin)            202.36   250.59   263.69   337.02   337.34
                              346.37   380.39   383.50   426.27   451.73
                              483.55   522.26   540.94   604.73   609.62
                              656.10   771.71   813.91   895.53  1160.42
                             1179.71  1203.48  1228.32  1311.98  1339.11
                             1350.99  1357.66  1366.15  1393.52  1409.49
                             1417.54  1476.19  1515.93  1585.50  1620.78
                             1657.36  1671.95  1699.80  1731.60  1739.33
                             1740.49  1756.07  1821.99  1854.93  1893.10
                             1909.98  1971.64  1983.16  1988.90  2004.06
                             2034.64  2040.62  2048.19  2051.15  2058.31
                             2076.00  2085.74  2173.44  2178.64  2186.48
                             2188.18  2195.33  2198.33  2207.43  2212.25
                             2213.67  2221.40  2244.48  2454.67  4348.33
                             4361.36  4367.82  4372.14  4380.46  4386.82
                             4396.94  4397.76  4415.96  4421.98  4444.24
                             4459.07  4469.65  4474.12  4481.70  4486.72
                             4491.87  4498.43  4503.33  4903.15  4938.52
                             5087.87

 Zero-point correction=                           0.315446 (Hartree/Particle)
 Thermal correction to Energy=                    0.330929
 Thermal correction to Enthalpy=                  0.331873
 Thermal correction to Gibbs Free Energy=         0.272262
 Sum of electronic and zero-point Energies=           -540.626097
 Sum of electronic and thermal Energies=              -540.610614
 Sum of electronic and thermal Enthalpies=            -540.609670
 Sum of electronic and thermal Free Energies=         -540.669281

                     E (Thermal)             CV                S
                      KCal/Mol        Cal/Mol-Kelvin    Cal/Mol-Kelvin
 Total                  207.661             56.817            125.462
 Electronic               0.000              0.000              0.000
 Translational            0.889              2.981             41.372
 Rotational               0.889              2.981             31.540
 Vibrational            205.884             50.856             52.550
 Vibration     1          0.593              1.986              6.618
 Vibration     2          0.594              1.981              5.210
 Vibration     3          0.597              1.973              4.437
 Vibration     4          0.601              1.960              3.774
 Vibration     5          0.604              1.948              3.417
 Vibration     6          0.615              1.913              2.795
 Vibration     7          0.627              1.874              2.390
 Vibration     8          0.631              1.863              2.295
 Vibration     9          0.654              1.788              1.846
 Vibration    10          0.654              1.788              1.845
 Vibration    11          0.658              1.778              1.797
 Vibration    12          0.671              1.738              1.633
 Vibration    13          0.672              1.734              1.619
 Vibration    14          0.690              1.681              1.438
 Vibration    15          0.702              1.647              1.341
 Vibration    16          0.717              1.603              1.231
 Vibration    17          0.737              1.548              1.109
 Vibration    18          0.747              1.521              1.055
 Vibration    19          0.783              1.426              0.891
 Vibration    20          0.786              1.419              0.879
 Vibration    21          0.814              1.348              0.778
 Vibration    22          0.891              1.170              0.573
 Vibration    23          0.922              1.105              0.513

 Optimization completed.
    -- Stationary point found.
 Normal termination of Gaussian 16 at Wed Dec  9 18:57:45 2020.

 ----------------------------------------------------------------------
 # B3LYP/6-311++G(d,p) empiricaldispersion=gd3bj scf=xqc pop=npa geom=c
 heck
 ----------------------------------------------------------------------

 ---------------------------------------
 CID_105199102_JID_2945_Energie_neutraal
 ---------------------------------------
 Structure from the checkpoint file:  "JID_2945.chk"
 Charge =  0 Multiplicity = 1

 SCF Done:  E(RB3LYP) =  -541.110143273     A.U. after   13 cycles
 Normal termination of Gaussian 16 at Wed Dec  9 19:00:59 2020.

 ----------------------------------------------------------------------
 # B3LYP/6-311++G(d,p) empiricaldispersion=gd3bj scf=xqc pop=npa geom=c
 heck
 ----------------------------------------------------------------------

 -------------------------------------
 CID_105199102_JID_2945_Energie_kation
 -------------------------------------
 Structure from the checkpoint file:  "JID_2945.chk"
 Charge =  1 Multiplicity = 2

 SCF Done:  E(UB3LYP) =  -540.793424325     A.U. after   26 cycles
 Normal termination of Gaussian 16 at Wed Dec  9 19:09:22 2020.
 Gaussian 16:  ES64L-G16RevA.03 25-Dec-2016

 ----------------------------------------------------------------------
 # B3LYP/6-311++G(d,p) empiricaldispersion=gd3bj scf=xqc pop=npa geom=c
 heck
 ----------------------------------------------------------------------

 ------------------------------------
 CID_105199102_JID_2945_Energie_anion
 ------------------------------------
 Structure from the checkpoint file:  "JID_2945.chk"
 Charge = -1 Multiplicity = 2

                         Standard orientation:
 ---------------------------------------------------------------------
 Center     Atomic      Atomic             Coordinates (Angstroms)
 Number     Number       Type             X           Y           Z
 ---------------------------------------------------------------------
      1          6           0       -2.990780   -0.418360    1.361904
      2          6           0       -2.375297   -0.691788   -0.016370
      3          6           0       -3.452028   -1.163485   -1.001994
      4          6           0       -1.645672    0.535032   -0.587372
      5          6           0       -0.511894    1.109785    0.273873
      6          6           0        0.542477    0.063566    0.648278
      7          8           0        1.091403   -0.433151   -0.568022
      8          6           0        2.291424   -1.204365   -0.471794
      9          6           0        3.496278   -0.335858   -0.098014
     10          6           0        2.137435   -2.418484    0.445828
     11          7           0        0.061578    2.245963   -0.458391
     12          7           0        1.080633    2.892215    0.320713
     13          1           0       -3.693180    0.423689    1.311245
     14          1           0       -2.231660   -0.171470    2.111861
     15          1           0       -3.543703   -1.292540    1.725177
     16          1           0       -1.643929   -1.505881    0.086694
     17          1           0       -4.217615   -0.389557   -1.142176
     18          1           0       -3.020437   -1.387338   -1.984507
     19          1           0       -3.954597   -2.067709   -0.638957
     20          1           0       -1.229968    0.262468   -1.565987
     21          1           0       -2.369026    1.341221   -0.765472
     22          1           0       -0.913569    1.516501    1.208218
     23          1           0        1.309931    0.542850    1.269134
     24          1           0        0.095735   -0.747836    1.238644
     25          1           0        2.435749   -1.564677   -1.497366
     26          1           0        3.561253    0.528032   -0.768655
     27          1           0        3.432756    0.027410    0.933501
     28          1           0        4.424884   -0.910143   -0.188972
     29          1           0        3.005783   -3.079117    0.347662
     30          1           0        2.060776   -2.123799    1.498164
     31          1           0        1.239927   -2.986074    0.178912
     32          1           0        0.463604    1.868410   -1.318807
     33          1           0        2.001708    2.493712    0.123937
     34          1           0        1.107214    3.863547    0.019637
 ---------------------------------------------------------------------

 SCF Done:  E(UB3LYP) =  -541.096175822     A.U. after   26 cycles

 The electronic state is 2-A.
 Alpha  occ. eigenvalues --  -19.01839 -14.21888 -14.21866 -10.11896 -10.10625
 Alpha  occ. eigenvalues --  -10.09326 -10.07814 -10.06577 -10.06547 -10.06243
 Alpha  occ. eigenvalues --  -10.05639 -10.05472  -0.93080  -0.85875  -0.72751
 Alpha  occ. eigenvalues --   -0.69269  -0.67057  -0.60929  -0.59257  -0.58856
 Alpha  occ. eigenvalues --   -0.58144  -0.50600  -0.47498  -0.44470  -0.41809
 Alpha  occ. eigenvalues --   -0.40014  -0.38508  -0.37148  -0.36491  -0.35363
 Alpha  occ. eigenvalues --   -0.34612  -0.32667  -0.32372  -0.30676  -0.30534
 Alpha  occ. eigenvalues --   -0.29756  -0.29053  -0.28142  -0.26753  -0.26302
 Alpha  occ. eigenvalues --   -0.25193  -0.24671  -0.23201  -0.22886  -0.22512
 Alpha  occ. eigenvalues --   -0.20228  -0.16004  -0.15806  -0.13851   0.04402
 Alpha virt. eigenvalues --    0.06237   0.07000   0.07674   0.08627   0.08959
 Alpha virt. eigenvalues --    0.09137   0.09769   0.10505   0.10985   0.11291
 Alpha virt. eigenvalues --    0.11715   0.11957   0.12220   0.13013   0.13940

  Beta  occ. eigenvalues --  -19.01836 -14.21876 -14.21834 -10.11882 -10.10611
  Beta  occ. eigenvalues --  -10.09321 -10.07806 -10.06561 -10.06530 -10.06239
  Beta  occ. eigenvalues --  -10.05601 -10.05422  -0.93070  -0.85842  -0.72724
  Beta  occ. eigenvalues --   -0.69234  -0.67009  -0.60885  -0.59223  -0.58772
  Beta  occ. eigenvalues --   -0.58113  -0.50561  -0.47449  -0.44423  -0.41767
  Beta  occ. eigenvalues --   -0.39981  -0.38470  -0.37101  -0.36457  -0.35324
  Beta  occ. eigenvalues --   -0.34579  -0.32637  -0.32343  -0.30637  -0.30496
  Beta  occ. eigenvalues --   -0.29734  -0.29029  -0.28100  -0.26721  -0.26280
  Beta  occ. eigenvalues --   -0.25147  -0.24635  -0.23182  -0.22861  -0.22491
  Beta  occ. eigenvalues --   -0.20199  -0.15972  -0.15789  -0.13832
  Beta virt. eigenvalues --    0.06385   0.07127   0.07827   0.07943   0.09053
  Beta virt. eigenvalues --    0.09365   0.09611   0.10213   0.10713   0.11459
  Beta virt. eigenvalues --    0.11586   0.11972   0.12315   0.12480   0.13312

 Mulliken charges and spin densities:
               1          2
     1  C    0.075145  -0.767027
     2  C   -0.270253   0.784112
     3  C   -0.142868  -0.464007
     4  C   -0.614510   0.040419
     5  C    1.466978  -1.636049
     6  C   -0.729685  -0.131495
     7  O   -0.019133   0.037388
     8  C   -2.361962   2.565204
     9  C    2.078377  -2.598697
    10  C    1.424680  -1.970328
    11  N   -0.106703   0.187865
    12  N   -0.301911  -0.185121
    13  H    0.051741   0.091229
    14  H    0.026063   0.100803
    15  H   -0.145113   0.281533
    16  H    0.118444   0.039807
    17  H    0.014385   0.105671
    18  H   -0.008490   0.148563
    19  H   -0.136964   0.279214
    20  H    0.173028  -0.019407
    21  H    0.121720   0.053385
    22  H    0.209413  -0.016911
    23  H    0.123875   0.063508
    24  H    0.172733  -0.027608
    25  H   -0.452912   0.625154
    26  H   -0.337764   0.487158
    27  H   -0.279290   0.418722
    28  H   -0.434599   0.595268
    29  H   -0.506208   0.669758
    30  H   -0.309054   0.452637
    31  H   -0.120224   0.261269
    32  H    0.148009   0.108551
    33  H    0.094881   0.141519
    34  H   -0.021828   0.277913
 Sum of Mulliken charges =  -1.00000   1.00000

 Dipole moment (field-independent basis, Debye):
    X=             -5.5126    Y=              2.2075    Z=             -0.0332  Tot=              5.9382
 Quadrupole moment (field-independent basis, Debye-Ang):
   XX=           -155.2564   YY=           -132.6887   ZZ=           -109.8098
   XY=              3.4620   XZ=              1.9387   YZ=              0.6375

 Summary of Natural Population Analysis:

                                       Natural Population
                Natural  -----------------------------------------------
    Atom  No    Charge         Core      Valence    Rydberg      Total
 -----------------------------------------------------------------------
      C    1   -0.28672      0.99965     2.28064    0.00643     3.28672
      C    2   -0.11892      0.99961     2.10939    0.00991     3.11892
      C    3   -0.27947      0.99965     2.27507    0.00475     3.27947
      C    4   -0.19095      0.99959     2.18214    0.00922     3.19095
      C    5   -0.01672      0.99958     2.00347    0.01366     3.01672
      C    6   -0.02492      0.99953     2.01358    0.01182     3.02492
      O    7   -0.31510      0.99988     3.30449    0.01073     4.31510
      C    8    0.06798      0.99957     1.91828    0.01417     2.93202
      C    9   -0.29983      0.99964     2.29419    0.00600     3.29983
      C   10   -0.30048      0.99965     2.29532    0.00551     3.30048
      N   11   -0.25508      0.99973     2.74045    0.01491     3.75508
      N   12   -0.33432      0.99977     2.82238    0.01217     3.83432
      H   13    0.09457      0.00000     0.40466    0.00077     0.40543
      H   14    0.09933      0.00000     0.39982    0.00085     0.40067
      H   15    0.09881      0.00000     0.40040    0.00079     0.40119
      H   16    0.09682      0.00000     0.40089    0.00229     0.40318
      H   17    0.09316      0.00000     0.40587    0.00097     0.40684
      H   18    0.09946      0.00000     0.39963    0.00091     0.40054
      H   19    0.09781      0.00000     0.40124    0.00095     0.40219
      H   20    0.10283      0.00000     0.39565    0.00152     0.39717
      H   21    0.09875      0.00000     0.39985    0.00140     0.40125
      H   22    0.09733      0.00000     0.40114    0.00153     0.40267
      H   23    0.08819      0.00000     0.40995    0.00186     0.41181
      H   24    0.08344      0.00000     0.41483    0.00173     0.41656
      H   25    0.08759      0.00000     0.41071    0.00170     0.41241
      H   26    0.10196      0.00000     0.39597    0.00207     0.39804
      H   27    0.09667      0.00000     0.40189    0.00144     0.40333
      H   28    0.10527      0.00000     0.39285    0.00188     0.39473
      H   29    0.10532      0.00000     0.39317    0.00151     0.39468
      H   30    0.09743      0.00000     0.40144    0.00114     0.40257
      H   31    0.10277      0.00000     0.39581    0.00142     0.39723
      H   32    0.16564      0.00000     0.33078    0.00358     0.33436
      H   33    0.16825      0.00000     0.32958    0.00217     0.33175
      H   34    0.17314      0.00000     0.32497    0.00190     0.32686
 =======================================================================
   * Total *   -0.00000     11.99586    36.85048    0.15366    49.00000

 Normal termination of Gaussian 16 at Wed Dec  9 19:17:52 2020.
