 Gaussian 16, Revision A.03,

 -----------------------------------------------------------
 # opt freq B3LYP/6-31G(d) empiricaldispersion=gd3bj scf=xqc
 -----------------------------------------------------------

 ------------------------------
 CID_10856325_JID_4875_neutraal
 ------------------------------
 Symbolic Z-matrix:
 Charge =  0 Multiplicity = 1

 SCF Done:  E(RB3LYP) =  -582.715464341     A.U. after   14 cycles
 SCF Done:  E(RB3LYP) =  -582.718746593     A.U. after   12 cycles
 SCF Done:  E(RB3LYP) =  -582.718333324     A.U. after   12 cycles
 SCF Done:  E(RB3LYP) =  -582.720024591     A.U. after   12 cycles
 SCF Done:  E(RB3LYP) =  -582.720614975     A.U. after   11 cycles
 SCF Done:  E(RB3LYP) =  -582.721313515     A.U. after   11 cycles
 SCF Done:  E(RB3LYP) =  -582.721487438     A.U. after   11 cycles
 SCF Done:  E(RB3LYP) =  -582.721596989     A.U. after   11 cycles
 SCF Done:  E(RB3LYP) =  -582.721655812     A.U. after   10 cycles
 SCF Done:  E(RB3LYP) =  -582.721700134     A.U. after   10 cycles
 SCF Done:  E(RB3LYP) =  -582.721727305     A.U. after    9 cycles
 SCF Done:  E(RB3LYP) =  -582.721729891     A.U. after    9 cycles
 SCF Done:  E(RB3LYP) =  -582.721730492     A.U. after    7 cycles
 SCF Done:  E(RB3LYP) =  -582.721730664     A.U. after    7 cycles
 SCF Done:  E(RB3LYP) =  -582.721730721     A.U. after    6 cycles
 Optimization completed.
    -- Stationary point found.
 Normal termination of Gaussian 16 at Thu Dec 10 10:51:38 2020.

 --------------------------------------------------------------------
 #N Geom=AllCheck Guess=TCheck SCRF=Check GenChk RB3LYP/6-31G(d) Freq
 --------------------------------------------------------------------

 Structure from the checkpoint file:  "JID_4875.chk"
 ------------------------------
 CID_10856325_JID_4875_neutraal
 ------------------------------
 Charge =  0 Multiplicity = 1

 SCF Done:  E(RB3LYP) =  -582.721730721     A.U. after    1 cycles

  Exact polarizability: 163.532  -0.795 148.673 -18.311   0.735  98.375
 Approx polarizability: 222.130  -0.516 228.565 -37.692   0.439 153.170

                      1                      2                      3
                      A                      A                      A
 Frequencies --     30.5443                72.3248                81.8615
 Red. masses --      3.2964                 2.8406                 3.0905
 Frc consts  --      0.0018                 0.0088                 0.0122
 IR Inten    --      0.0252                 0.0621                 0.8141

                      4                      5                      6
                      A                      A                      A
 Frequencies --    136.7777               140.7079               187.2375
 Red. masses --      1.4662                 1.7597                 2.0453
 Frc consts  --      0.0162                 0.0205                 0.0422
 IR Inten    --      0.0191                 0.1215                 1.2520

                      7                      8                      9
                      A                      A                      A
 Frequencies --    200.4439               209.5549               218.3745
 Red. masses --      2.2856                 1.0880                 1.3949
 Frc consts  --      0.0541                 0.0282                 0.0392
 IR Inten    --      1.3122                 0.1681                 0.9558

                     10                     11                     12
                      A                      A                      A
 Frequencies --    238.3904               257.3469               264.9464
 Red. masses --      2.6421                 1.3178                 1.1624
 Frc consts  --      0.0885                 0.0514                 0.0481
 IR Inten    --      0.1905                 0.8013                 0.2496

                     13                     14                     15
                      A                      A                      A
 Frequencies --    271.7345               307.3251               324.8774
 Red. masses --      1.7833                 3.2678                 2.7812
 Frc consts  --      0.0776                 0.1818                 0.1730
 IR Inten    --      1.3951                 3.1400                 3.0732

                     16                     17                     18
                      A                      A                      A
 Frequencies --    338.7811               378.1376               414.8285
 Red. masses --      2.3109                 2.4733                 2.3958
 Frc consts  --      0.1563                 0.2084                 0.2429
 IR Inten    --      0.6788                 0.9282                 0.8261

                     19                     20                     21
                      A                      A                      A
 Frequencies --    418.9702               473.9934               501.4142
 Red. masses --      2.0176                 3.3418                 3.6306
 Frc consts  --      0.2087                 0.4424                 0.5378
 IR Inten    --      0.7609                 1.8865                 1.1882

                     22                     23                     24
                      A                      A                      A
 Frequencies --    515.3229               531.5172               563.6821
 Red. masses --      3.3129                 4.0404                 4.9767
 Frc consts  --      0.5183                 0.6725                 0.9317
 IR Inten    --      0.9899                 0.6556                 0.1207

                     25                     26                     27
                      A                      A                      A
 Frequencies --    588.4739               678.5965               749.5068
 Red. masses --      3.6680                 4.6891                 4.3376
 Frc consts  --      0.7484                 1.2722                 1.4357
 IR Inten    --      2.0103                 2.2131                 3.3466

                     28                     29                     30
                      A                      A                      A
 Frequencies --    758.7823               783.6797               827.3320
 Red. masses --      4.0151                 1.2182                 4.8513
 Frc consts  --      1.3620                 0.4408                 1.9565
 IR Inten    --      0.9270                28.2570                 4.2876

                     31                     32                     33
                      A                      A                      A
 Frequencies --    902.8501               917.0024               935.2199
 Red. masses --      1.3039                 2.1887                 2.3917
 Frc consts  --      0.6262                 1.0844                 1.2325
 IR Inten    --      0.0476                 4.4507                 0.4904

                     34                     35                     36
                      A                      A                      A
 Frequencies --    948.3304               952.6874               959.2799
 Red. masses --      2.1845                 1.6144                 1.2659
 Frc consts  --      1.1575                 0.8633                 0.6864
 IR Inten    --      2.1497                 3.4706                 0.2801

                     37                     38                     39
                      A                      A                      A
 Frequencies --    970.6632               976.6068              1018.6502
 Red. masses --      1.2757                 1.2877                 1.5756
 Frc consts  --      0.7082                 0.7236                 0.9633
 IR Inten    --      1.1741                 1.7169                 5.1431

                     40                     41                     42
                      A                      A                      A
 Frequencies --   1042.1450              1060.0228              1068.5879
 Red. masses --      2.9030                 1.7064                 1.9386
 Frc consts  --      1.8576                 1.1297                 1.3043
 IR Inten    --     70.0760                 1.3873                35.8279

                     43                     44                     45
                      A                      A                      A
 Frequencies --   1074.0459              1079.9995              1096.0526
 Red. masses --      1.5023                 1.4823                 1.4925
 Frc consts  --      1.0210                 1.0186                 1.0564
 IR Inten    --      1.0704                 2.6691                 0.3541

                     46                     47                     48
                      A                      A                      A
 Frequencies --   1133.1243              1199.4394              1229.6256
 Red. masses --      1.7009                 1.2040                 3.1657
 Frc consts  --      1.2867                 1.0206                 2.8201
 IR Inten    --     42.7114                 0.2211               131.0852

                     49                     50                     51
                      A                      A                      A
 Frequencies --   1252.6888              1265.4509              1294.0015
 Red. masses --      2.5436                 2.5060                 1.7025
 Frc consts  --      2.3517                 2.3644                 1.6796
 IR Inten    --      3.4545                26.8719                 2.4852

                     52                     53                     54
                      A                      A                      A
 Frequencies --   1297.1208              1306.9482              1346.6032
 Red. masses --      2.9874                 2.9923                 4.9902
 Frc consts  --      2.9615                 3.0114                 5.3314
 IR Inten    --     42.9135                23.9099                 1.1221

                     55                     56                     57
                      A                      A                      A
 Frequencies --   1367.5363              1421.9932              1427.4352
 Red. masses --      1.4048                 1.2619                 1.2644
 Frc consts  --      1.5479                 1.5033                 1.5179
 IR Inten    --     18.0924                 3.6374                 4.8499

                     58                     59                     60
                      A                      A                      A
 Frequencies --   1429.3997              1441.3045              1446.9322
 Red. masses --      1.2542                 1.2413                 1.2654
 Frc consts  --      1.5099                 1.5193                 1.5609
 IR Inten    --      6.2656                 0.5597                 2.7100

                     61                     62                     63
                      A                      A                      A
 Frequencies --   1462.5637              1484.2074              1507.6193
 Red. masses --      1.2674                 1.9095                 1.0535
 Frc consts  --      1.5973                 2.4783                 1.4108
 IR Inten    --     26.9691                39.8779                 3.5930

                     64                     65                     66
                      A                      A                      A
 Frequencies --   1509.8525              1512.7677              1514.2209
 Red. masses --      1.2945                 1.1232                 1.2536
 Frc consts  --      1.7387                 1.5144                 1.6935
 IR Inten    --      1.0111                 2.1880                 1.0685

                     67                     68                     69
                      A                      A                      A
 Frequencies --   1518.7435              1520.9441              1524.1525
 Red. masses --      1.0564                 1.0599                 1.0764
 Frc consts  --      1.4356                 1.4446                 1.4733
 IR Inten    --      2.2130                 2.0024                 9.2841

                     70                     71                     72
                      A                      A                      A
 Frequencies --   1533.9187              1535.5609              1538.2372
 Red. masses --      1.1581                 1.2381                 1.0765
 Frc consts  --      1.6054                 1.7200                 1.5008
 IR Inten    --     14.5100                12.1606                14.0402

                     73                     74                     75
                      A                      A                      A
 Frequencies --   1543.4149              1551.5886              1649.9269
 Red. masses --      1.1884                 1.0654                 6.2763
 Frc consts  --      1.6679                 1.5111                10.0667
 IR Inten    --     35.0945                12.2241                 3.6698

                     76                     77                     78
                      A                      A                      A
 Frequencies --   1654.2445              3038.0519              3042.4996
 Red. masses --      5.6961                 1.0356                 1.0433
 Frc consts  --      9.1839                 5.6317                 5.6901
 IR Inten    --      5.8116                20.1999                20.0926

                     79                     80                     81
                      A                      A                      A
 Frequencies --   3046.3305              3050.8751              3056.5141
 Red. masses --      1.0392                 1.0435                 1.0369
 Frc consts  --      5.6822                 5.7228                 5.7072
 IR Inten    --     37.1929                22.8442                32.7555

                     82                     83                     84
                      A                      A                      A
 Frequencies --   3060.5585              3101.0729              3101.5553
 Red. masses --      1.0569                 1.0956                 1.1003
 Frc consts  --      5.8327                 6.2077                 6.2360
 IR Inten    --     52.8320                19.2686                 8.4205

                     85                     86                     87
                      A                      A                      A
 Frequencies --   3104.9198              3106.1537              3111.9062
 Red. masses --      1.1018                 1.1018                 1.0991
 Frc consts  --      6.2581                 6.2635                 6.2710
 IR Inten    --     23.4268                20.5491                21.5755

                     88                     89                     90
                      A                      A                      A
 Frequencies --   3114.2588              3124.0021              3132.1610
 Red. masses --      1.1011                 1.1029                 1.1032
 Frc consts  --      6.2921                 6.3415                 6.3765
 IR Inten    --     64.9608                45.1208                21.0268

                     91                     92                     93
                      A                      A                      A
 Frequencies --   3134.3720              3151.4710              3158.5804
 Red. masses --      1.1020                 1.0973                 1.0951
 Frc consts  --      6.3785                 6.4212                 6.4371
 IR Inten    --     11.2705                 8.4977                27.4849

                     94                     95                     96
                      A                      A                      A
 Frequencies --   3174.6889              3182.1521              3205.1344
 Red. masses --      1.0863                 1.0901                 1.0961
 Frc consts  --      6.4506                 6.5037                 6.6345
 IR Inten    --      3.8195                25.8525                30.8345

 - Thermochemistry -
 -------------------
 Temperature   298.150 Kelvin.  Pressure   1.00000 Atm.
 Atom     1 has atomic number  6 and mass  12.00000

 Molecular mass:   192.15142 amu.
 Principal axes and moments of inertia in atomic units:
                           1         2         3
     Eigenvalues --  1631.580873757.623134572.92282
           X            0.99999   0.00329   0.00270
           Y           -0.00328   0.99999  -0.00265
           Z           -0.00270   0.00264   0.99999
 This molecule is an asymmetric top.
 Rotational symmetry number  1.
 Warning -- assumption of classical behavior for rotation
           may cause significant error
 Rotational temperatures (Kelvin)      0.05309     0.02305     0.01894
 Rotational constants (GHZ):           1.10613     0.48029     0.39466
 Zero-point vibrational energy     796033.7 (Joules/Mol)
                                  190.25661 (Kcal/Mol)
 Warning -- explicit consideration of  25 degrees of freedom as
           vibrations may cause significant error
 Vibrational temperatures:     43.95   104.06   117.78   196.79   202.45
          (Kelvin)            269.39   288.39   301.50   314.19   342.99
                              370.26   381.20   390.97   442.17   467.43
                              487.43   544.06   596.85   602.80   681.97
                              721.42   741.43   764.73   811.01   846.68
                              976.35  1078.37  1091.72  1127.54  1190.35
                             1299.00  1319.36  1345.57  1364.44  1370.70
                             1380.19  1396.57  1405.12  1465.61  1499.41
                             1525.14  1537.46  1545.31  1553.88  1576.98
                             1630.31  1725.73  1769.16  1802.34  1820.70
                             1861.78  1866.27  1880.41  1937.46  1967.58
                             2045.93  2053.76  2056.59  2073.72  2081.81
                             2104.30  2135.44  2169.13  2172.34  2176.54
                             2178.63  2185.13  2188.30  2192.92  2206.97
                             2209.33  2213.18  2220.63  2232.39  2373.88
                             2380.09  4371.08  4377.48  4382.99  4389.53
                             4397.64  4403.46  4461.75  4462.45  4467.29
                             4469.06  4477.34  4480.72  4494.74  4506.48
                             4509.66  4534.26  4544.49  4567.67  4578.41
                             4611.47

 Zero-point correction=                           0.303193 (Hartree/Particle)
 Thermal correction to Energy=                    0.318493
 Thermal correction to Enthalpy=                  0.319437
 Thermal correction to Gibbs Free Energy=         0.261753
 Sum of electronic and zero-point Energies=           -582.418538
 Sum of electronic and thermal Energies=              -582.403238
 Sum of electronic and thermal Enthalpies=            -582.402294
 Sum of electronic and thermal Free Energies=         -582.459978

                     E (Thermal)             CV                S
                      KCal/Mol        Cal/Mol-Kelvin    Cal/Mol-Kelvin
 Total                  199.857             58.986            121.407
 Electronic               0.000              0.000              0.000
 Translational            0.889              2.981             41.665
 Rotational               0.889              2.981             31.706
 Vibrational            198.080             53.025             48.037
 Vibration     1          0.594              1.984              5.794
 Vibration     2          0.598              1.967              4.089
 Vibration     3          0.600              1.962              3.846
 Vibration     4          0.614              1.917              2.848
 Vibration     5          0.615              1.913              2.794
 Vibration     6          0.632              1.857              2.255
 Vibration     7          0.638              1.839              2.129
 Vibration     8          0.642              1.826              2.048
 Vibration     9          0.646              1.813              1.973
 Vibration    10          0.656              1.782              1.815
 Vibration    11          0.667              1.750              1.680
 Vibration    12          0.671              1.737              1.629
 Vibration    13          0.675              1.725              1.585
 Vibration    14          0.697              1.660              1.377
 Vibration    15          0.709              1.626              1.285
 Vibration    16          0.719              1.598              1.218
 Vibration    17          0.748              1.517              1.047
 Vibration    18          0.778              1.438              0.910
 Vibration    19          0.782              1.429              0.895
 Vibration    20          0.831              1.308              0.726
 Vibration    21          0.857              1.247              0.655
 Vibration    22          0.870              1.216              0.621
 Vibration    23          0.886              1.180              0.584
 Vibration    24          0.919              1.110              0.517
 Vibration    25          0.946              1.056              0.470

 Optimization completed.
    -- Stationary point found.
 Normal termination of Gaussian 16 at Thu Dec 10 11:01:58 2020.

 ----------------------------------------------------------------------
 # B3LYP/6-311++G(d,p) empiricaldispersion=gd3bj scf=xqc pop=npa geom=c
 heck
 ----------------------------------------------------------------------

 --------------------------------------
 CID_10856325_JID_4875_Energie_neutraal
 --------------------------------------
 Structure from the checkpoint file:  "JID_4875.chk"
 Charge =  0 Multiplicity = 1

 SCF Done:  E(RB3LYP) =  -582.878529876     A.U. after   14 cycles
 Normal termination of Gaussian 16 at Thu Dec 10 11:05:55 2020.

 ----------------------------------------------------------------------
 # B3LYP/6-311++G(d,p) empiricaldispersion=gd3bj scf=xqc pop=npa geom=c
 heck
 ----------------------------------------------------------------------

 ------------------------------------
 CID_10856325_JID_4875_Energie_kation
 ------------------------------------
 Structure from the checkpoint file:  "JID_4875.chk"
 Charge =  1 Multiplicity = 2

 SCF Done:  E(UB3LYP) =  -582.587409335     A.U. after   22 cycles
 Normal termination of Gaussian 16 at Thu Dec 10 11:14:16 2020.
 Gaussian 16:  ES64L-G16RevA.03 25-Dec-2016

 ----------------------------------------------------------------------
 # B3LYP/6-311++G(d,p) empiricaldispersion=gd3bj scf=xqc pop=npa geom=c
 heck
 ----------------------------------------------------------------------

 -----------------------------------
 CID_10856325_JID_4875_Energie_anion
 -----------------------------------
 Structure from the checkpoint file:  "JID_4875.chk"
 Charge = -1 Multiplicity = 2

                         Standard orientation:
 ---------------------------------------------------------------------
 Center     Atomic      Atomic             Coordinates (Angstroms)
 Number     Number       Type             X           Y           Z
 ---------------------------------------------------------------------
      1          6           0       -1.209185   -2.581496   -0.563966
      2          6           0       -1.649050   -1.197370   -0.146562
      3          6           0       -0.895790   -0.046433   -0.442644
      4          6           0       -1.410364    1.243429   -0.211942
      5          6           0       -2.652452    1.362627    0.415202
      6          6           0       -3.380483    0.235279    0.791513
      7          6           0       -2.883722   -1.029202    0.492665
      8          6           0       -0.655275    2.466704   -0.667644
      9          8           0        0.325522   -0.121449   -1.080784
     10          6           0        1.382110   -0.885319   -0.482083
     11          6           0        2.417429   -0.034010    0.272349
     12          6           0        1.792785    0.567579    1.541775
     13          6           0        3.562095   -0.980345    0.676741
     14          6           0        2.963541    1.071999   -0.642169
     15          1           0       -0.604105   -2.545908   -1.474633
     16          1           0       -0.617906   -3.093654    0.205918
     17          1           0       -2.085373   -3.206658   -0.763059
     18          1           0       -3.051717    2.356211    0.603026
     19          1           0       -4.342836    0.343384    1.283250
     20          1           0       -3.471071   -1.912968    0.730754
     21          1           0        0.245610    2.644715   -0.069631
     22          1           0       -0.326692    2.363324   -1.706576
     23          1           0       -1.287162    3.356631   -0.590458
     24          1           0        0.972384   -1.633867    0.201369
     25          1           0        1.872947   -1.410676   -1.309515
     26          1           0        1.436147   -0.222180    2.214078
     27          1           0        2.532117    1.164851    2.088172
     28          1           0        0.941855    1.211916    1.310698
     29          1           0        4.044241   -1.423959   -0.202731
     30          1           0        4.328550   -0.435125    1.238892
     31          1           0        3.200378   -1.797213    1.313572
     32          1           0        3.442528    0.643293   -1.531017
     33          1           0        2.163757    1.734657   -0.980745
     34          1           0        3.712342    1.674169   -0.114495
 ---------------------------------------------------------------------

 SCF Done:  E(UB3LYP) =  -582.863230847     A.U. after   33 cycles
 SCF Done:  E(UB3LYP) =  -582.863230847     a.u. after    1 cycles

 The electronic state is 2-A.
 Alpha  occ. eigenvalues --  -19.04115 -10.13039 -10.11850 -10.08600 -10.08504
 Alpha  occ. eigenvalues --  -10.08486 -10.07542 -10.07496 -10.07423 -10.07100
 Alpha  occ. eigenvalues --  -10.07012 -10.05875 -10.05596 -10.05578  -0.95604
 Alpha  occ. eigenvalues --   -0.76270  -0.72435  -0.69051  -0.66062  -0.61356
 Alpha  occ. eigenvalues --   -0.58980  -0.58742  -0.58421  -0.57012  -0.49471
 Alpha  occ. eigenvalues --   -0.48805  -0.44767  -0.42031  -0.39248  -0.37994
 Alpha  occ. eigenvalues --   -0.37772  -0.35695  -0.34321  -0.33268  -0.32690
 Alpha  occ. eigenvalues --   -0.31813  -0.31697  -0.31055  -0.30778  -0.28768
 Alpha  occ. eigenvalues --   -0.28378  -0.28140  -0.26832  -0.26801  -0.26391
 Alpha  occ. eigenvalues --   -0.25575  -0.24218  -0.23692  -0.22936  -0.22344
 Alpha  occ. eigenvalues --   -0.18974  -0.14718  -0.13083   0.04393
 Alpha virt. eigenvalues --    0.06318   0.06681   0.07779   0.07874   0.08350
 Alpha virt. eigenvalues --    0.08537   0.08968   0.09648   0.09745   0.10408
 Alpha virt. eigenvalues --    0.10654   0.11015   0.12018   0.12742   0.12923

  Beta  occ. eigenvalues --  -19.04111 -10.13034 -10.11829 -10.08597 -10.08502
  Beta  occ. eigenvalues --  -10.08486 -10.07533 -10.07487 -10.07415 -10.07083
  Beta  occ. eigenvalues --  -10.06979 -10.05838 -10.05571 -10.05551  -0.95597
  Beta  occ. eigenvalues --   -0.76256  -0.72416  -0.69032  -0.66039  -0.61317
  Beta  occ. eigenvalues --   -0.58931  -0.58693  -0.58378  -0.56965  -0.49443
  Beta  occ. eigenvalues --   -0.48773  -0.44718  -0.41993  -0.39227  -0.37963
  Beta  occ. eigenvalues --   -0.37739  -0.35667  -0.34292  -0.33236  -0.32650
  Beta  occ. eigenvalues --   -0.31779  -0.31673  -0.31029  -0.30749  -0.28738
  Beta  occ. eigenvalues --   -0.28347  -0.28112  -0.26804  -0.26772  -0.26363
  Beta  occ. eigenvalues --   -0.25555  -0.24191  -0.23668  -0.22901  -0.22317
  Beta  occ. eigenvalues --   -0.18955  -0.14703  -0.13067
  Beta virt. eigenvalues --    0.06380   0.07055   0.07424   0.08031   0.08236
  Beta virt. eigenvalues --    0.08925   0.09004   0.09060   0.10000   0.10208
  Beta virt. eigenvalues --    0.10784   0.11046   0.11427   0.12397   0.13002

 Mulliken charges and spin densities:
               1          2
     1  C    1.520043  -2.001242
     2  C   -0.597136   0.909318
     3  C   -1.774167   1.719978
     4  C   -0.685470   0.988390
     5  C    0.319637  -0.614880
     6  C   -0.031332  -0.374907
     7  C    1.261266  -1.548633
     8  C    0.825684  -1.267274
     9  O   -0.049973   0.000215
    10  C    0.178966  -0.596808
    11  C   -1.572995   1.999366
    12  C    0.868275  -1.439349
    13  C    0.354080  -0.907330
    14  C    0.163753  -0.624337
    15  H    0.047808   0.129846
    16  H   -0.507192   0.704725
    17  H   -0.270306   0.429487
    18  H   -0.172879   0.316419
    19  H   -0.275570   0.428705
    20  H   -0.236582   0.388405
    21  H   -0.159215   0.341203
    22  H    0.070948   0.115000
    23  H   -0.152589   0.298210
    24  H    0.894072  -0.816932
    25  H   -0.158460   0.339637
    26  H   -0.199056   0.352459
    27  H   -0.059520   0.225250
    28  H    0.381703  -0.322737
    29  H   -0.221169   0.358038
    30  H   -0.134383   0.286563
    31  H   -0.486294   0.632346
    32  H   -0.106079   0.249157
    33  H    0.235809  -0.112544
    34  H   -0.271674   0.414255
 Sum of Mulliken charges =  -1.00000   1.00000

 Dipole moment (field-independent basis, Debye):
    X=             -2.2363    Y=              2.5788    Z=             -1.4794  Tot=              3.7202
 Quadrupole moment (field-independent basis, Debye-Ang):
   XX=           -160.1384   YY=           -140.5366   ZZ=           -123.8298
   XY=              1.0743   XZ=             -1.9073   YZ=              1.9179

 Summary of Natural Population Analysis:

                                       Natural Population
                Natural  -----------------------------------------------
    Atom  No    Charge         Core      Valence    Rydberg      Total
 -----------------------------------------------------------------------
      C    1   -0.29641      0.99964     2.29071    0.00607     3.29641
      C    2   -0.03687      0.99947     2.02789    0.00951     3.03687
      C    3    0.16074      0.99927     1.82666    0.01333     2.83926
      C    4   -0.03251      0.99947     2.02389    0.00916     3.03251
      C    5   -0.10143      0.99952     2.09248    0.00943     3.10143
      C    6   -0.10624      0.99956     2.09708    0.00960     3.10624
      C    7   -0.09820      0.99952     2.08896    0.00972     3.09820
      C    8   -0.29245      0.99963     2.28697    0.00585     3.29245
      O    9   -0.29438      0.99986     3.28504    0.00948     4.29438
      C   10   -0.00337      0.99947     1.99061    0.01329     3.00337
      C   11   -0.06144      0.99959     2.05017    0.01169     3.06144
      C   12   -0.28517      0.99962     2.27833    0.00722     3.28517
      C   13   -0.28451      0.99962     2.27747    0.00741     3.28451
      C   14   -0.28518      0.99962     2.27812    0.00744     3.28518
      H   15    0.10652      0.00000     0.39228    0.00120     0.39348
      H   16    0.10757      0.00000     0.39084    0.00159     0.39243
      H   17    0.10408      0.00000     0.39484    0.00108     0.39592
      H   18    0.09831      0.00000     0.40072    0.00097     0.40169
      H   19    0.09929      0.00000     0.39982    0.00089     0.40071
      H   20    0.09928      0.00000     0.39967    0.00105     0.40072
      H   21    0.10520      0.00000     0.39359    0.00120     0.39480
      H   22    0.10794      0.00000     0.39099    0.00107     0.39206
      H   23    0.09962      0.00000     0.39953    0.00085     0.40038
      H   24    0.09072      0.00000     0.40703    0.00226     0.40928
      H   25    0.09070      0.00000     0.40789    0.00141     0.40930
      H   26    0.10126      0.00000     0.39761    0.00113     0.39874
      H   27    0.09959      0.00000     0.39944    0.00097     0.40041
      H   28    0.10119      0.00000     0.39716    0.00165     0.39881
      H   29    0.10019      0.00000     0.39849    0.00132     0.39981
      H   30    0.10197      0.00000     0.39679    0.00124     0.39803
      H   31    0.10196      0.00000     0.39653    0.00151     0.39804
      H   32    0.09902      0.00000     0.40001    0.00096     0.40098
      H   33    0.10423      0.00000     0.39445    0.00132     0.39577
      H   34    0.09877      0.00000     0.40028    0.00095     0.40123
 =======================================================================
   * Total *    0.00000     13.99385    38.85233    0.15382    53.00000

 Normal termination of Gaussian 16 at Thu Dec 10 11:26:54 2020.
