 Gaussian 16, Revision A.03,

 -----------------------------------------------------------
 # opt freq B3LYP/6-31G(d) empiricaldispersion=gd3bj scf=xqc
 -----------------------------------------------------------

 -------------------------------
 CID_147629762_JID_2847_neutraal
 -------------------------------
 Symbolic Z-matrix:
 Charge =  0 Multiplicity = 1

 SCF Done:  E(RB3LYP) =  -579.475070768     A.U. after   13 cycles
 SCF Done:  E(RB3LYP) =  -579.477933796     A.U. after   11 cycles
 SCF Done:  E(RB3LYP) =  -579.478552214     A.U. after   11 cycles
 SCF Done:  E(RB3LYP) =  -579.479043665     A.U. after   10 cycles
 SCF Done:  E(RB3LYP) =  -579.479127822     A.U. after   10 cycles
 SCF Done:  E(RB3LYP) =  -579.479164582     A.U. after    9 cycles
 SCF Done:  E(RB3LYP) =  -579.479203443     A.U. after   10 cycles
 SCF Done:  E(RB3LYP) =  -579.479240156     A.U. after   10 cycles
 SCF Done:  E(RB3LYP) =  -579.479236132     A.U. after    9 cycles
 SCF Done:  E(RB3LYP) =  -579.479456449     A.U. after   11 cycles
 SCF Done:  E(RB3LYP) =  -579.483928566     A.U. after   11 cycles
 SCF Done:  E(RB3LYP) =  -579.484185303     A.U. after   11 cycles
 SCF Done:  E(RB3LYP) =  -579.484203257     A.U. after    9 cycles
 SCF Done:  E(RB3LYP) =  -579.484206370     A.U. after    8 cycles
 SCF Done:  E(RB3LYP) =  -579.484206693     A.U. after    7 cycles
 SCF Done:  E(RB3LYP) =  -579.484206749     A.U. after    6 cycles
 Optimization completed.
    -- Stationary point found.

 1\1\GINC-NODE301\FOpt\RB3LYP\6-31G(d)\C9H18O3\VSC10255\09-Dec-2020\0\\
 # opt freq B3LYP/6-31G(d) empiricaldispersion=gd3bj scf=xqc\\CID_14762
 9762_JID_2847_neutraal\\0,1\C,1.6669815086,-0.9436285811,0.2472370703\
 O,1.0727471927,-0.1326041295,-0.739894186\C,1.3011016562,-0.6125340668
 ,-2.0518829418\C,0.6107419067,0.3117002751,-3.0504547067\C,1.179678233
 8,1.7409743197,-2.9850280563\C,0.4763661098,2.6815849673,-3.9746191502
 \C,-1.030265772,2.6689352431,-3.7193067439\C,-1.6019384675,1.252620650
 1,-3.8405862285\C,-0.9137808269,0.3209673817,-2.848461593\O,-2.9975910

 Normal termination of Gaussian 16 at Wed Dec  9 18:20:13 2020.

 --------------------------------------------------------------------
 #N Geom=AllCheck Guess=TCheck SCRF=Check GenChk RB3LYP/6-31G(d) Freq
 --------------------------------------------------------------------

 Structure from the checkpoint file:  "JID_2847.chk"
 -------------------------------
 CID_147629762_JID_2847_neutraal
 -------------------------------
 Charge =  0 Multiplicity = 1

 SCF Done:  E(RB3LYP) =  -579.484206749     A.U. after    1 cycles

  Exact polarizability: 126.420  -1.540  96.702  -1.453   0.612  88.153
 Approx polarizability: 144.585  -0.852 136.349  -0.762   3.022 138.009

                      1                      2                      3
                      A                      A                      A
 Frequencies --     59.0533                63.6975                89.7318
 Red. masses --      3.7917                 3.0217                 2.2939
 Frc consts  --      0.0078                 0.0072                 0.0109
 IR Inten    --      0.3932                 1.5871                 0.3364

                      4                      5                      6
                      A                      A                      A
 Frequencies --    102.2637               144.3594               174.1522
 Red. masses --      2.4392                 3.0871                 1.7669
 Frc consts  --      0.0150                 0.0379                 0.0316
 IR Inten    --      2.8323                 2.1041                 1.3932

                      7                      8                      9
                      A                      A                      A
 Frequencies --    204.3301               228.8539               263.6055
 Red. masses --      1.6706                 1.5151                 2.5316
 Frc consts  --      0.0411                 0.0468                 0.1036
 IR Inten    --      0.6437                 1.4104                 5.1393

                     10                     11                     12
                      A                      A                      A
 Frequencies --    271.7726               288.1878               303.8761
 Red. masses --      2.9748                 2.9309                 2.8769
 Frc consts  --      0.1295                 0.1434                 0.1565
 IR Inten    --      3.9091                10.9985                 1.7654

                     13                     14                     15
                      A                      A                      A
 Frequencies --    331.8382               365.8168               433.0977
 Red. masses --      2.5720                 3.1115                 2.8095
 Frc consts  --      0.1669                 0.2453                 0.3105
 IR Inten    --      2.0646                 0.4113                 3.1881

                     16                     17                     18
                      A                      A                      A
 Frequencies --    444.4077               488.3892               500.9598
 Red. masses --      2.3036                 1.9798                 1.4732
 Frc consts  --      0.2680                 0.2782                 0.2178
 IR Inten    --     10.4360                22.0826                58.6940

                     19                     20                     21
                      A                      A                      A
 Frequencies --    545.4111               583.1335               690.3317
 Red. masses --      2.9409                 3.5950                 3.3680
 Frc consts  --      0.5154                 0.7202                 0.9457
 IR Inten    --      5.2983                10.2568                 5.7165

                     22                     23                     24
                      A                      A                      A
 Frequencies --    792.5473               863.4533               868.9382
 Red. masses --      2.0096                 2.2373                 2.0303
 Frc consts  --      0.7437                 0.9828                 0.9032
 IR Inten    --      1.1909                 8.0928                 0.0488

                     25                     26                     27
                      A                      A                      A
 Frequencies --    930.9042               940.2030               966.1036
 Red. masses --      1.6494                 2.1083                 2.4398
 Frc consts  --      0.8421                 1.0981                 1.3417
 IR Inten    --      3.1154                 3.0155                27.0383

                     28                     29                     30
                      A                      A                      A
 Frequencies --    998.7700              1030.0442              1049.2118
 Red. masses --      2.5437                 1.8430                 2.2294
 Frc consts  --      1.4950                 1.1521                 1.4460
 IR Inten    --      9.7209                 1.8357                10.3209

                     31                     32                     33
                      A                      A                      A
 Frequencies --   1075.6154              1088.1486              1119.1795
 Red. masses --      1.8724                 2.1045                 2.8498
 Frc consts  --      1.2763                 1.4682                 2.1031
 IR Inten    --     38.0487                31.3567               101.3503

                     34                     35                     36
                      A                      A                      A
 Frequencies --   1127.2664              1148.0246              1162.3208
 Red. masses --      3.4087                 2.2682                 2.9085
 Frc consts  --      2.5521                 1.7613                 2.3151
 IR Inten    --     37.1086                74.1668               113.5695

                     37                     38                     39
                      A                      A                      A
 Frequencies --   1177.4250              1181.2722              1190.7375
 Red. masses --      2.1306                 2.1441                 1.3470
 Frc consts  --      1.7403                 1.7627                 1.1253
 IR Inten    --     21.4980                17.0557                 2.1680

                     40                     41                     42
                      A                      A                      A
 Frequencies --   1201.7690              1225.1126              1238.0147
 Red. masses --      1.4954                 1.6185                 1.6099
 Frc consts  --      1.2725                 1.4312                 1.4538
 IR Inten    --      5.8118                54.5426                 8.5019

                     43                     44                     45
                      A                      A                      A
 Frequencies --   1258.7428              1277.6590              1289.4766
 Red. masses --      1.4299                 1.2132                 1.3056
 Frc consts  --      1.3348                 1.1668                 1.2790
 IR Inten    --     21.4543                 0.4337                 6.1747

                     46                     47                     48
                      A                      A                      A
 Frequencies --   1307.5523              1328.0440              1341.0486
 Red. masses --      1.2100                 1.2487                 1.2801
 Frc consts  --      1.2188                 1.2976                 1.3564
 IR Inten    --     12.1054                22.4254                46.7471

                     49                     50                     51
                      A                      A                      A
 Frequencies --   1350.5312              1377.1027              1397.7434
 Red. masses --      1.3053                 1.2921                 1.4358
 Frc consts  --      1.4027                 1.4437                 1.6528
 IR Inten    --      0.7966                 1.8211                 1.7978

                     52                     53                     54
                      A                      A                      A
 Frequencies --   1411.5913              1418.9592              1427.7736
 Red. masses --      1.5472                 1.4486                 1.3861
 Frc consts  --      1.8164                 1.7185                 1.6648
 IR Inten    --      6.7180                 8.0839                 2.0638

                     55                     56                     57
                      A                      A                      A
 Frequencies --   1437.7103              1458.9257              1503.7593
 Red. masses --      1.3354                 1.5899                 1.1465
 Frc consts  --      1.6263                 1.9938                 1.5275
 IR Inten    --     48.0143                31.2506                 1.0576

                     58                     59                     60
                      A                      A                      A
 Frequencies --   1504.1808              1514.6163              1519.5554
 Red. masses --      1.1641                 1.0478                 1.0731
 Frc consts  --      1.5519                 1.4162                 1.4600
 IR Inten    --      2.2901                 5.0081                 2.4933

                     61                     62                     63
                      A                      A                      A
 Frequencies --   1521.8634              1529.5629              1532.0486
 Red. masses --      1.0818                 1.0791                 1.0647
 Frc consts  --      1.4761                 1.4875                 1.4723
 IR Inten    --      3.6925                 2.9146                15.6873

                     64                     65                     66
                      A                      A                      A
 Frequencies --   1536.7941              1540.9265              1554.3561
 Red. masses --      1.0934                 1.0519                 1.0887
 Frc consts  --      1.5215                 1.4716                 1.5498
 IR Inten    --      2.2892                11.1701                 0.8753

                     67                     68                     69
                      A                      A                      A
 Frequencies --   2943.7073              2962.5376              2988.8462
 Red. masses --      1.0808                 1.0538                 1.0405
 Frc consts  --      5.5182                 5.4490                 5.4767
 IR Inten    --     43.2010                31.8971                94.5664

                     70                     71                     72
                      A                      A                      A
 Frequencies --   2992.9141              3008.1806              3021.5694
 Red. masses --      1.1051                 1.0819                 1.0367
 Frc consts  --      5.8321                 5.7685                 5.5768
 IR Inten    --     67.4375                37.6974                37.0360

                     73                     74                     75
                      A                      A                      A
 Frequencies --   3030.2555              3040.2775              3049.6952
 Red. masses --      1.1048                 1.0624                 1.0626
 Frc consts  --      5.9773                 5.7859                 5.8230
 IR Inten    --     59.6225                35.4942                41.3541

                     76                     77                     78
                      A                      A                      A
 Frequencies --   3057.9627              3061.3296              3077.3274
 Red. masses --      1.0668                 1.0792                 1.1042
 Frc consts  --      5.8775                 5.9589                 6.1610
 IR Inten    --     12.2371                41.2645                53.0478

                     79                     80                     81
                      A                      A                      A
 Frequencies --   3085.3629              3098.2112              3106.4374
 Red. masses --      1.1004                 1.1022                 1.1016
 Frc consts  --      6.1719                 6.2336                 6.2632
 IR Inten    --     25.5481                26.1039                48.4901

                     82                     83                     84
                      A                      A                      A
 Frequencies --   3136.9132              3137.0108              3686.7737
 Red. masses --      1.0983                 1.0980                 1.0651
 Frc consts  --      6.3676                 6.3660                 8.5294
 IR Inten    --     30.5281                35.7916                37.7276

 - Thermochemistry -
 -------------------
 Temperature   298.150 Kelvin.  Pressure   1.00000 Atm.
 Atom     1 has atomic number  6 and mass  12.00000

 Molecular mass:   174.12559 amu.
 Principal axes and moments of inertia in atomic units:
                           1         2         3
     Eigenvalues --   911.468453958.223834429.56173
           X            0.99994  -0.00877  -0.00592
           Y            0.00880   0.99994   0.00580
           Z            0.00587  -0.00585   0.99997
 This molecule is an asymmetric top.
 Rotational symmetry number  1.
 Warning -- assumption of classical behavior for rotation
           may cause significant error
 Rotational temperatures (Kelvin)      0.09503     0.02188     0.01955
 Rotational constants (GHZ):           1.98004     0.45595     0.40743
 Zero-point vibrational energy     710451.2 (Joules/Mol)
                                  169.80192 (Kcal/Mol)
 Warning -- explicit consideration of  20 degrees of freedom as
           vibrations may cause significant error
 Vibrational temperatures:     84.96    91.65   129.10   147.13   207.70
          (Kelvin)            250.57   293.99   329.27   379.27   391.02
                              414.64   437.21   477.44   526.33   623.13
                              639.40   702.68   720.77   784.72   839.00
                              993.23  1140.30  1242.32  1250.21  1339.36
                             1352.74  1390.01  1437.01  1482.00  1509.58
                             1547.57  1565.60  1610.25  1621.88  1651.75
                             1672.32  1694.05  1699.59  1713.21  1729.08
                             1762.66  1781.23  1811.05  1838.27  1855.27
                             1881.28  1910.76  1929.47  1943.11  1981.34
                             2011.04  2030.97  2041.57  2054.25  2068.54
                             2099.07  2163.57  2164.18  2179.20  2186.30
                             2189.62  2200.70  2204.28  2211.10  2217.05
                             2236.37  4235.34  4262.43  4300.28  4306.14
                             4328.10  4347.36  4359.86  4374.28  4387.83
                             4399.73  4404.57  4427.59  4439.15  4457.63
                             4469.47  4513.32  4513.46  5304.45

 Zero-point correction=                           0.270597 (Hartree/Particle)
 Thermal correction to Energy=                    0.283694
 Thermal correction to Enthalpy=                  0.284638
 Thermal correction to Gibbs Free Energy=         0.231192
 Sum of electronic and zero-point Energies=           -579.213610
 Sum of electronic and thermal Energies=              -579.200513
 Sum of electronic and thermal Enthalpies=            -579.199569
 Sum of electronic and thermal Free Energies=         -579.253015

                     E (Thermal)             CV                S
                      KCal/Mol        Cal/Mol-Kelvin    Cal/Mol-Kelvin
 Total                  178.021             48.907            112.487
 Electronic               0.000              0.000              0.000
 Translational            0.889              2.981             41.371
 Rotational               0.889              2.981             31.147
 Vibrational            176.243             42.946             39.968
 Vibration     1          0.596              1.974              4.489
 Vibration     2          0.597              1.972              4.339
 Vibration     3          0.602              1.956              3.666
 Vibration     4          0.604              1.947              3.411
 Vibration     5          0.616              1.909              2.745
 Vibration     6          0.627              1.874              2.390
 Vibration     7          0.640              1.834              2.094
 Vibration     8          0.652              1.797              1.888
 Vibration     9          0.670              1.740              1.638
 Vibration    10          0.675              1.725              1.585
 Vibration    11          0.685              1.696              1.485
 Vibration    12          0.695              1.666              1.395
 Vibration    13          0.714              1.612              1.251
 Vibration    14          0.739              1.543              1.097
 Vibration    15          0.794              1.398              0.849
 Vibration    16          0.804              1.373              0.813
 Vibration    17          0.844              1.276              0.688
 Vibration    18          0.856              1.248              0.656
 Vibration    19          0.901              1.150              0.554
 Vibration    20          0.940              1.068              0.480

 Optimization completed.
    -- Stationary point found.

 1\1\GINC-NODE301\Freq\RB3LYP\6-31G(d)\C9H18O3\VSC10255\09-Dec-2020\0\\
 #N Geom=AllCheck Guess=TCheck SCRF=Check GenChk RB3LYP/6-31G(d) Freq\\
 CID_147629762_JID_2847_neutraal\\0,1\C,1.6669815086,-0.9436285811,0.24
 72370703\O,1.0727471927,-0.1326041295,-0.739894186\C,1.3011016562,-0.6
 125340668,-2.0518829418\C,0.6107419067,0.3117002751,-3.0504547067\C,1.
 1796782338,1.7409743197,-2.9850280563\C,0.4763661098,2.6815849673,-3.9
 746191502\C,-1.030265772,2.6689352431,-3.7193067439\C,-1.6019384675,1.
 2526206501,-3.8405862285\C,-0.9137808269,0.3209673817,-2.848461593\O,-

 Normal termination of Gaussian 16 at Wed Dec  9 18:27:23 2020.

 ----------------------------------------------------------------------
 # B3LYP/6-311++G(d,p) empiricaldispersion=gd3bj scf=xqc pop=npa geom=c
 heck
 ----------------------------------------------------------------------

 ---------------------------------------
 CID_147629762_JID_2847_Energie_neutraal
 ---------------------------------------
 Structure from the checkpoint file:  "JID_2847.chk"
 Charge =  0 Multiplicity = 1

 SCF Done:  E(RB3LYP) =  -579.663162877     A.U. after   13 cycles
 Normal termination of Gaussian 16 at Wed Dec  9 18:30:09 2020.

 ----------------------------------------------------------------------
 # B3LYP/6-311++G(d,p) empiricaldispersion=gd3bj scf=xqc pop=npa geom=c
 heck
 ----------------------------------------------------------------------

 -------------------------------------
 CID_147629762_JID_2847_Energie_kation
 -------------------------------------
 Structure from the checkpoint file:  "JID_2847.chk"
 Charge =  1 Multiplicity = 2

 SCF Done:  E(UB3LYP) =  -579.340773686     A.U. after   25 cycles
 Normal termination of Gaussian 16 at Wed Dec  9 18:36:58 2020.
 Gaussian 16:  ES64L-G16RevA.03 25-Dec-2016

 ------------------------------------
 CID_147629762_JID_2847_Energie_anion
 ------------------------------------
 Structure from the checkpoint file:  "JID_2847.chk"
 Charge = -1 Multiplicity = 2

                         Standard orientation:
 ---------------------------------------------------------------------
 Center     Atomic      Atomic             Coordinates (Angstroms)
 Number     Number       Type             X           Y           Z
 ---------------------------------------------------------------------
      1          6           0       -4.419300    0.163573    0.585837
      2          8           0       -3.016486    0.055039    0.510769
      3          6           0       -2.556492   -0.184674   -0.806324
      4          6           0       -1.033148   -0.270042   -0.796992
      5          6           0       -0.537485   -1.437557    0.075947
      6          6           0        0.995928   -1.518088    0.105075
      7          6           0        1.575515   -0.184738    0.575753
      8          6           0        1.124862    0.966710   -0.328981
      9          6           0       -0.397473    1.056190   -0.347454
     10          8           0        1.664970    2.193239    0.136205
     11          8           0        3.000817   -0.158367    0.747295
     12          6           0        3.777841   -0.634280   -0.340174
     13          1           0       -4.675167    0.347959    1.632347
     14          1           0       -4.917749   -0.761254    0.252191
     15          1           0       -4.795987    0.998010   -0.027690
     16          1           0       -2.988134   -1.125357   -1.191719
     17          1           0       -2.886928    0.627848   -1.476618
     18          1           0       -0.727397   -0.466411   -1.836772
     19          1           0       -0.953812   -2.382483   -0.295415
     20          1           0       -0.923335   -1.301110    1.092882
     21          1           0        1.363284   -1.754094   -0.902546
     22          1           0        1.332910   -2.323222    0.768562
     23          1           0        1.200226    0.030059    1.583893
     24          1           0        1.476891    0.765279   -1.357798
     25          1           0       -0.748993    1.309277    0.658936
     26          1           0       -0.704323    1.875471   -1.008828
     27          1           0        2.550027    1.966591    0.472629
     28          1           0        3.660813   -1.715997   -0.486445
     29          1           0        3.542039   -0.125023   -1.284922
     30          1           0        4.819730   -0.427391   -0.082956
 ---------------------------------------------------------------------

 SCF Done:  E(UB3LYP) =  -579.648821365     A.U. after   27 cycles

 The electronic state is 2-A.
 Alpha  occ. eigenvalues --  -19.03559 -19.02878 -19.02211 -10.12360 -10.11842
 Alpha  occ. eigenvalues --  -10.11532 -10.11499 -10.11470 -10.07666 -10.07094
 Alpha  occ. eigenvalues --  -10.06691 -10.06412  -0.94976  -0.94310  -0.91980
 Alpha  occ. eigenvalues --   -0.73822  -0.67114  -0.64155  -0.61716  -0.58438
 Alpha  occ. eigenvalues --   -0.54366  -0.51534  -0.49041  -0.46391  -0.41898
 Alpha  occ. eigenvalues --   -0.40385  -0.39628  -0.38119  -0.37020  -0.36554
 Alpha  occ. eigenvalues --   -0.36244  -0.34147  -0.32467  -0.31966  -0.31168
 Alpha  occ. eigenvalues --   -0.30560  -0.28434  -0.27425  -0.26148  -0.25172
 Alpha  occ. eigenvalues --   -0.24484  -0.23273  -0.22537  -0.22006  -0.20457
 Alpha  occ. eigenvalues --   -0.18927  -0.16549  -0.16076   0.04401
 Alpha virt. eigenvalues --    0.05966   0.07387   0.07859   0.08915   0.09028
 Alpha virt. eigenvalues --    0.09433   0.10573   0.11018   0.11066   0.11525
 Alpha virt. eigenvalues --    0.11706   0.12619   0.13543   0.14214   0.14610

  Beta  occ. eigenvalues --  -19.03546 -19.02871 -19.02209 -10.12360 -10.11833
  Beta  occ. eigenvalues --  -10.11496 -10.11456 -10.11444 -10.07653 -10.07076
  Beta  occ. eigenvalues --  -10.06678 -10.06408  -0.94952  -0.94295  -0.91968
  Beta  occ. eigenvalues --   -0.73797  -0.67084  -0.64132  -0.61667  -0.58374
  Beta  occ. eigenvalues --   -0.54296  -0.51500  -0.48997  -0.46349  -0.41877
  Beta  occ. eigenvalues --   -0.40349  -0.39562  -0.38096  -0.36991  -0.36517
  Beta  occ. eigenvalues --   -0.36215  -0.34110  -0.32441  -0.31928  -0.31139
  Beta  occ. eigenvalues --   -0.30530  -0.28403  -0.27400  -0.26116  -0.25132
  Beta  occ. eigenvalues --   -0.24462  -0.23225  -0.22505  -0.21968  -0.20420
  Beta  occ. eigenvalues --   -0.18910  -0.16526  -0.16060
  Beta virt. eigenvalues --    0.06735   0.07084   0.08070   0.08380   0.09172
  Beta virt. eigenvalues --    0.09726   0.09981   0.10923   0.11347   0.11447
  Beta virt. eigenvalues --    0.11854   0.12254   0.12979   0.13845   0.14383

 Mulliken charges and spin densities:
               1          2
     1  C    0.741042  -0.986727
     2  O   -0.183985   0.077800
     3  C    0.202527  -0.942378
     4  C   -0.155850   0.746122
     5  C    0.674517  -1.283777
     6  C    0.032487  -0.068067
     7  C   -0.957973   0.280676
     8  C    0.020678  -0.333900
     9  C   -0.075060  -0.222443
    10  O   -0.179209   0.008649
    11  O   -0.184201   0.046745
    12  C    1.005844  -1.276244
    13  H   -0.073402   0.204956
    14  H   -0.375463   0.513878
    15  H   -0.264899   0.396283
    16  H   -0.116686   0.262708
    17  H   -0.094714   0.225517
    18  H   -0.516978   0.716893
    19  H   -0.281810   0.455216
    20  H    0.142103   0.015024
    21  H    0.032993   0.126992
    22  H   -0.020044   0.205475
    23  H    0.190820   0.029650
    24  H    0.027075   0.171837
    25  H    0.137529   0.053508
    26  H    0.132825   0.030170
    27  H    0.237658  -0.001936
    28  H   -0.551228   0.710347
    29  H   -0.343987   0.488883
    30  H   -0.202609   0.348141
 Sum of Mulliken charges =  -1.00000   1.00000

 Dipole moment (field-independent basis, Debye):
    X=              1.0123    Y=              2.5407    Z=              3.5838  Tot=              4.5082
 Quadrupole moment (field-independent basis, Debye-Ang):
   XX=           -163.5247   YY=           -117.5752   ZZ=           -108.6560
   XY=              3.2090   XZ=              2.7307   YZ=             -4.9256

 Summary of Natural Population Analysis:

                                       Natural Population
                Natural  -----------------------------------------------
    Atom  No    Charge         Core      Valence    Rydberg      Total
 -----------------------------------------------------------------------
      C    1   -0.09520      0.99962     2.08667    0.00890     3.09520
      O    2   -0.30146      0.99988     3.29237    0.00921     4.30146
      C    3   -0.00071      0.99955     1.98840    0.01276     3.00071
      C    4   -0.12140      0.99958     2.10908    0.01274     3.12140
      C    5   -0.18830      0.99961     2.17849    0.01020     3.18830
      C    6   -0.20576      0.99960     2.19692    0.00924     3.20576
      C    7    0.05977      0.99949     1.92634    0.01440     2.94023
      C    8    0.05192      0.99950     1.93385    0.01474     2.94808
      C    9   -0.19588      0.99959     2.18540    0.01088     3.19588
      O   10   -0.37426      0.99989     3.36814    0.00623     4.37426
      O   11   -0.30892      0.99989     3.29877    0.01026     4.30892
      C   12   -0.10322      0.99960     2.09370    0.00992     3.10322
      H   13    0.08803      0.00000     0.41102    0.00095     0.41197
      H   14    0.07998      0.00000     0.41814    0.00188     0.42002
      H   15    0.07811      0.00000     0.42024    0.00164     0.42189
      H   16    0.08282      0.00000     0.41513    0.00205     0.41718
      H   17    0.08016      0.00000     0.41834    0.00150     0.41984
      H   18    0.10100      0.00000     0.39714    0.00186     0.39900
      H   19    0.10324      0.00000     0.39564    0.00111     0.39676
      H   20    0.10045      0.00000     0.39788    0.00167     0.39955
      H   21    0.10107      0.00000     0.39662    0.00231     0.39893
      H   22    0.10282      0.00000     0.39622    0.00097     0.39718
      H   23    0.09110      0.00000     0.40728    0.00161     0.40890
      H   24    0.07736      0.00000     0.42077    0.00188     0.42264
      H   25    0.10485      0.00000     0.39361    0.00155     0.39515
      H   26    0.10320      0.00000     0.39583    0.00097     0.39680
      H   27    0.23284      0.00000     0.26415    0.00301     0.26716
      H   28    0.08461      0.00000     0.41361    0.00178     0.41539
      H   29    0.08164      0.00000     0.41662    0.00175     0.41836
      H   30    0.09014      0.00000     0.40875    0.00112     0.40986
 =======================================================================
   * Total *    0.00000     11.99580    35.84511    0.15909    48.00000

 Normal termination of Gaussian 16 at Wed Dec  9 18:43:53 2020.
