 Gaussian 16, Revision A.03,

 -----------------------------------------------------------
 # opt freq B3LYP/6-31G(d) empiricaldispersion=gd3bj scf=xqc
 -----------------------------------------------------------

 ------------------------------
 CID_17844463_JID_3570_neutraal
 ------------------------------
 Symbolic Z-matrix:
 Charge =  0 Multiplicity = 1

 SCF Done:  E(RB3LYP) =  -607.747908885     A.U. after   15 cycles
 SCF Done:  E(RB3LYP) =  -607.756287583     A.U. after   14 cycles
 SCF Done:  E(RB3LYP) =  -607.757074745     A.U. after   12 cycles
 SCF Done:  E(RB3LYP) =  -607.757155048     A.U. after   10 cycles
 SCF Done:  E(RB3LYP) =  -607.757121652     A.U. after   11 cycles
 SCF Done:  E(RB3LYP) =  -607.757158621     A.U. after   10 cycles
 SCF Done:  E(RB3LYP) =  -607.757168749     A.U. after   10 cycles
 Optimization completed.
    -- Stationary point found.
 Normal termination of Gaussian 16 at Wed Dec  9 23:37:21 2020.

 --------------------------------------------------------------------
 #N Geom=AllCheck Guess=TCheck SCRF=Check GenChk RB3LYP/6-31G(d) Freq
 --------------------------------------------------------------------

 Structure from the checkpoint file:  "JID_3570.chk"
 ------------------------------
 CID_17844463_JID_3570_neutraal
 ------------------------------
 Charge =  0 Multiplicity = 1

 SCF Done:  E(RB3LYP) =  -607.757168749     A.U. after    1 cycles

  Exact polarizability: 199.062   4.972 117.195   0.027   0.002  44.130
 Approx polarizability: 306.603  14.520 217.139   0.031   0.032  69.131

                      1                      2                      3
                      A                      A                      A
 Frequencies --      5.1957                81.2420               121.8693
 Red. masses --      3.9400                 5.4679                 3.9032
 Frc consts  --      0.0001                 0.0213                 0.0342
 IR Inten    --      0.2529                 0.4233                 0.2128

                      4                      5                      6
                      A                      A                      A
 Frequencies --    157.1855               215.8774               257.3805
 Red. masses --      6.4151                 4.6596                 4.5546
 Frc consts  --      0.0934                 0.1279                 0.1778
 IR Inten    --      0.0295                 0.1427                 0.4144

                      7                      8                      9
                      A                      A                      A
 Frequencies --    326.1499               359.5348               414.7225
 Red. masses --      9.5219                 5.5806                 3.4683
 Frc consts  --      0.5968                 0.4250                 0.3515
 IR Inten    --      1.1400                 0.0436                 1.0741

                     10                     11                     12
                      A                      A                      A
 Frequencies --    457.7501               526.1408               528.2969
 Red. masses --      2.7534                 6.8766                 6.1422
 Frc consts  --      0.3399                 1.1216                 1.0100
 IR Inten    --     21.9209                 1.8500                15.2632

                     13                     14                     15
                      A                      A                      A
 Frequencies --    572.3301               593.2174               603.6309
 Red. masses --      3.1512                 6.0583                 1.1858
 Frc consts  --      0.6082                 1.2561                 0.2546
 IR Inten    --      0.0827                34.3404                83.7754

                     16                     17                     18
                      A                      A                      A
 Frequencies --    630.0507               716.2148               729.1618
 Red. masses --      6.7293                 5.3694                 3.3850
 Frc consts  --      1.5739                 1.6228                 1.0604
 IR Inten    --      3.7680                27.9471                 1.6806

                     19                     20                     21
                      A                      A                      A
 Frequencies --    757.2145               764.2173               767.3587
 Red. masses --      2.7726                 4.5768                 2.0659
 Frc consts  --      0.9366                 1.5749                 0.7167
 IR Inten    --      0.0822                11.0906                96.2984

                     22                     23                     24
                      A                      A                      A
 Frequencies --    866.5423               871.8349               931.7473
 Red. masses --      1.4503                 5.3678                 1.2874
 Frc consts  --      0.6416                 2.4039                 0.6585
 IR Inten    --      8.2746                 0.1884                 0.4184

                     25                     26                     27
                      A                      A                      A
 Frequencies --    952.7573               996.8897              1006.5512
 Red. masses --      4.7316                 1.4787                 1.2836
 Frc consts  --      2.5306                 0.8658                 0.7662
 IR Inten    --     16.3847                 2.0622                 0.3164

                     28                     29                     30
                      A                      A                      A
 Frequencies --   1052.1533              1062.3198              1091.4553
 Red. masses --      2.4496                 1.5492                 5.8986
 Frc consts  --      1.5977                 1.0301                 4.1401
 IR Inten    --      8.2606                 2.4269               236.2571

                     31                     32                     33
                      A                      A                      A
 Frequencies --   1134.2267              1169.6422              1189.0021
 Red. masses --      3.1294                 1.3440                 1.5458
 Frc consts  --      2.3720                 1.0833                 1.2875
 IR Inten    --    273.9904                71.4071                 0.5909

                     34                     35                     36
                      A                      A                      A
 Frequencies --   1214.9225              1254.0794              1266.5067
 Red. masses --      1.8610                 2.3590                 1.0578
 Frc consts  --      1.6184                 2.1859                 0.9997
 IR Inten    --    283.6655                21.3306                 1.4694

                     37                     38                     39
                      A                      A                      A
 Frequencies --   1296.1873              1320.3760              1367.5305
 Red. masses --      2.3612                 1.7706                 2.1860
 Frc consts  --      2.3373                 1.8187                 2.4087
 IR Inten    --     39.0250                 7.8747               288.8159

                     40                     41                     42
                      A                      A                      A
 Frequencies --   1393.0513              1431.3583              1448.6713
 Red. masses --      2.1400                 2.8356                 2.2769
 Frc consts  --      2.4468                 3.4229                 2.8154
 IR Inten    --     59.7153                61.4772                 3.5513

                     43                     44                     45
                      A                      A                      A
 Frequencies --   1510.4575              1553.6180              1566.1877
 Red. masses --      2.2811                 1.1187                 3.5748
 Frc consts  --      3.0663                 1.5909                 5.1664
 IR Inten    --     34.9224                12.8202               969.0704

                     46                     47                     48
                      A                      A                      A
 Frequencies --   1590.2358              1665.8274              1706.0782
 Red. masses --      5.4531                 5.7653                 5.7830
 Frc consts  --      8.1249                 9.4261                 9.9174
 IR Inten    --      6.5840               316.1226                53.8099

                     49                     50                     51
                      A                      A                      A
 Frequencies --   1809.1988              3011.9997              3032.8796
 Red. masses --      9.1174                 1.0564                 1.1089
 Frc consts  --     17.5831                 5.6467                 6.0096
 IR Inten    --    368.9087                47.3095                31.3069

                     52                     53                     54
                      A                      A                      A
 Frequencies --   3202.9396              3207.8850              3222.1732
 Red. masses --      1.0909                 1.0891                 1.0899
 Frc consts  --      6.5939                 6.6035                 6.6670
 IR Inten    --      8.4662                 9.5396                 1.1091

                     55                     56                     57
                      A                      A                      A
 Frequencies --   3243.1906              3246.3696              3702.3348
 Red. masses --      1.0943                 1.0970                 1.0641
 Frc consts  --      6.7819                 6.8116                 8.5939
 IR Inten    --      3.5509                 3.2686                78.6337

 - Thermochemistry -
 -------------------
 Temperature   298.150 Kelvin.  Pressure   1.00000 Atm.
 Atom     1 has atomic number  6 and mass  12.00000

 Molecular mass:   176.05858 amu.
 Principal axes and moments of inertia in atomic units:
                           1         2         3
     Eigenvalues --   809.773333680.119664478.71829
           X            1.00000  -0.00153   0.00004
           Y            0.00153   1.00000  -0.00004
           Z           -0.00004   0.00004   1.00000
 This molecule is an asymmetric top.
 Rotational symmetry number  1.
 Warning -- assumption of classical behavior for rotation
           may cause significant error
 Rotational temperatures (Kelvin)      0.10696     0.02354     0.01934
 Rotational constants (GHZ):           2.22870     0.49040     0.40296
 Zero-point vibrational energy     425714.6 (Joules/Mol)
                                  101.74823 (Kcal/Mol)
 Warning -- explicit consideration of  15 degrees of freedom as
           vibrations may cause significant error
 Vibrational temperatures:      7.48   116.89   175.34   226.15   310.60
          (Kelvin)            370.31   469.26   517.29   596.69   658.60
                              757.00   760.10   823.46   853.51   868.49
                              906.50  1030.47  1049.10  1089.46  1099.54
                             1104.06  1246.76  1254.38  1340.58  1370.81
                             1434.30  1448.20  1513.81  1528.44  1570.36
                             1631.90  1682.85  1710.71  1748.00  1804.34
                             1822.22  1864.92  1899.73  1967.57  2004.29
                             2059.41  2084.31  2173.21  2235.31  2253.39
                             2287.99  2396.75  2454.67  2603.03  4333.60
                             4363.64  4608.32  4615.43  4635.99  4666.23
                             4670.80  5326.83

 Zero-point correction=                           0.162146 (Hartree/Particle)
 Thermal correction to Energy=                    0.172383
 Thermal correction to Enthalpy=                  0.173327
 Thermal correction to Gibbs Free Energy=         0.123628
 Sum of electronic and zero-point Energies=           -607.595023
 Sum of electronic and thermal Energies=              -607.584786
 Sum of electronic and thermal Enthalpies=            -607.583841
 Sum of electronic and thermal Free Energies=         -607.633541

                     E (Thermal)             CV                S
                      KCal/Mol        Cal/Mol-Kelvin    Cal/Mol-Kelvin
 Total                  108.172             39.413            104.602
 Electronic               0.000              0.000              0.000
 Translational            0.889              2.981             41.404
 Rotational               0.889              2.981             30.968
 Vibrational            106.395             33.451             32.230
 Vibration     1          0.593              1.987              9.312
 Vibration     2          0.600              1.962              3.861
 Vibration     3          0.609              1.931              3.071
 Vibration     4          0.621              1.895              2.583
 Vibration     5          0.645              1.817              1.993
 Vibration     6          0.667              1.750              1.679
 Vibration     7          0.710              1.623              1.279
 Vibration     8          0.734              1.556              1.124
 Vibration     9          0.778              1.438              0.910
 Vibration    10          0.816              1.344              0.773
 Vibration    11          0.881              1.192              0.596
 Vibration    12          0.883              1.187              0.591
 Vibration    13          0.929              1.091              0.500
 Vibration    14          0.951              1.046              0.461
 Vibration    15          0.962              1.024              0.443

                           ! Non-Optimized Parameters !
 Normal termination of Gaussian 16 at Wed Dec  9 23:42:03 2020.

 ----------------------------------------------------------------------
 # B3LYP/6-311++G(d,p) empiricaldispersion=gd3bj scf=xqc pop=npa geom=c
 heck
 ----------------------------------------------------------------------

 --------------------------------------
 CID_17844463_JID_3570_Energie_neutraal
 --------------------------------------
 Structure from the checkpoint file:  "JID_3570.chk"
 Charge =  0 Multiplicity = 1

 SCF Done:  E(RB3LYP) =  -607.930572298     A.U. after   16 cycles
 Normal termination of Gaussian 16 at Wed Dec  9 23:43:44 2020.

 ----------------------------------------------------------------------
 # B3LYP/6-311++G(d,p) empiricaldispersion=gd3bj scf=xqc pop=npa geom=c
 heck
 ----------------------------------------------------------------------

 ------------------------------------
 CID_17844463_JID_3570_Energie_kation
 ------------------------------------
 Structure from the checkpoint file:  "JID_3570.chk"
 Charge =  1 Multiplicity = 2

 SCF Done:  E(UB3LYP) =  -607.659970613     A.U. after   21 cycles
 Normal termination of Gaussian 16 at Wed Dec  9 23:46:41 2020.
 Gaussian 16:  ES64L-G16RevA.03 25-Dec-2016

 ----------------------------------------------------------------------
 # B3LYP/6-311++G(d,p) empiricaldispersion=gd3bj scf=xqc pop=npa geom=c
 heck
 ----------------------------------------------------------------------

 -----------------------------------
 CID_17844463_JID_3570_Energie_anion
 -----------------------------------
 Structure from the checkpoint file:  "JID_3570.chk"
 Charge = -1 Multiplicity = 2

                         Standard orientation:
 ---------------------------------------------------------------------
 Center     Atomic      Atomic             Coordinates (Angstroms)
 Number     Number       Type             X           Y           Z
 ---------------------------------------------------------------------
      1          6           0        0.489571   -0.996785    0.006381
      2          6           0        1.441355    0.167061    0.001156
      3          6           0        0.974999    1.446992    0.000531
      4          7           0       -0.334736    1.819053    0.002402
      5          6           0       -1.231302    0.848184    0.001697
      6          7           0       -0.918745   -0.512845    0.001024
      7          6           0       -1.888830   -1.476096   -0.001765
      8          6           0       -3.218366   -1.171306   -0.003580
      9          6           0       -3.591031    0.199963   -0.002121
     10          6           0       -2.626523    1.167828    0.000470
     11          6           0        2.873850   -0.083544   -0.001636
     12          8           0        3.769304    0.743890   -0.005203
     13          8           0        3.147842   -1.429676    0.000496
     14          1           0        0.626050   -1.634675    0.890858
     15          1           0        0.629066   -1.644423   -0.870310
     16          1           0        1.699140    2.257648   -0.002075
     17          1           0       -1.520922   -2.496229   -0.002219
     18          1           0       -3.956213   -1.964105   -0.005920
     19          1           0       -4.641155    0.476058   -0.003200
     20          1           0       -2.861582    2.225260    0.001309
     21          1           0        4.120484   -1.490480   -0.001582
 ---------------------------------------------------------------------

 SCF Done:  E(UB3LYP) =  -607.951432828     A.U. after   23 cycles

 The electronic state is 2-A.
 Alpha  occ. eigenvalues --  -19.02516 -18.94836 -14.21369 -14.13149 -10.13842
 Alpha  occ. eigenvalues --  -10.08735 -10.07925 -10.07222 -10.04345 -10.04123
 Alpha  occ. eigenvalues --  -10.02625 -10.02521 -10.01135  -0.95659  -0.86184
 Alpha  occ. eigenvalues --   -0.85105  -0.75683  -0.68727  -0.64128  -0.61048
 Alpha  occ. eigenvalues --   -0.54386  -0.52168  -0.50055  -0.46947  -0.40227
 Alpha  occ. eigenvalues --   -0.38576  -0.37073  -0.34330  -0.34102  -0.33180
 Alpha  occ. eigenvalues --   -0.32387  -0.30926  -0.29764  -0.28781  -0.26936
 Alpha  occ. eigenvalues --   -0.25436  -0.25363  -0.23064  -0.21096  -0.20765
 Alpha  occ. eigenvalues --   -0.18193  -0.15965  -0.13493  -0.12464  -0.11035
 Alpha  occ. eigenvalues --   -0.04788   0.03880
 Alpha virt. eigenvalues --    0.08450   0.09132   0.10041   0.10121   0.11373
 Alpha virt. eigenvalues --    0.12415   0.13216   0.13306   0.14451   0.15728
 Alpha virt. eigenvalues --    0.16458   0.16977   0.17640   0.17749   0.19072

  Beta  occ. eigenvalues --  -19.02467 -18.94713 -14.20897 -14.13272 -10.13729
  Beta  occ. eigenvalues --  -10.08471 -10.07945 -10.06960 -10.04264 -10.04151
  Beta  occ. eigenvalues --  -10.02576 -10.02137 -10.01071  -0.95507  -0.85986
  Beta  occ. eigenvalues --   -0.84428  -0.75453  -0.68319  -0.63726  -0.60637
  Beta  occ. eigenvalues --   -0.54131  -0.51673  -0.49871  -0.46517  -0.39940
  Beta  occ. eigenvalues --   -0.38403  -0.36844  -0.34175  -0.33293  -0.32982
  Beta  occ. eigenvalues --   -0.32138  -0.30720  -0.29023  -0.28629  -0.26805
  Beta  occ. eigenvalues --   -0.25296  -0.24508  -0.22945  -0.20917  -0.19926
  Beta  occ. eigenvalues --   -0.17595  -0.13921  -0.13383  -0.11249  -0.11062
  Beta  occ. eigenvalues --   -0.04165
  Beta virt. eigenvalues --    0.08394   0.09108   0.09840   0.10094   0.10929
  Beta virt. eigenvalues --    0.11318   0.12379   0.13270   0.13484   0.14402
  Beta virt. eigenvalues --    0.16434   0.16677   0.17093   0.17636   0.17901

 Mulliken charges and spin densities:
               1          2
     1  C   -1.051928  -0.056260
     2  C    0.745540   0.043989
     3  C   -0.208575   0.140399
     4  N   -0.151295  -0.067819
     5  C   -0.622964   0.181437
     6  N    0.162231   0.133138
     7  C   -0.091003   0.229473
     8  C   -0.313858  -0.049256
     9  C   -0.647947   0.343880
    10  C    0.260592  -0.027891
    11  C    0.241207   0.090759
    12  O   -0.415230   0.044222
    13  O   -0.228801   0.009371
    14  H    0.188084   0.017628
    15  H    0.187512   0.017413
    16  H    0.186381  -0.010338
    17  H    0.103827  -0.018883
    18  H    0.125891   0.008802
    19  H    0.105725  -0.030396
    20  H    0.157457   0.000608
    21  H    0.267153  -0.000277
 Sum of Mulliken charges =  -1.00000   1.00000

 Dipole moment (field-independent basis, Debye):
    X=             -1.4898    Y=             -4.4238    Z=              0.0055  Tot=              4.6679
 Quadrupole moment (field-independent basis, Debye-Ang):
   XX=           -114.5194   YY=            -90.2296   ZZ=            -83.9984
   XY=             -6.2261   XZ=              0.0309   YZ=              0.0078

 Summary of Natural Population Analysis:

                                       Natural Population
                Natural  -----------------------------------------------
    Atom  No    Charge         Core      Valence    Rydberg      Total
 -----------------------------------------------------------------------
      C    1   -0.07816      0.99962     2.06988    0.00867     3.07816
      C    2   -0.14030      0.99945     2.13115    0.00971     3.14030
      C    3    0.08964      0.99951     1.89732    0.01353     2.91036
      N    4   -0.32632      0.99968     2.81378    0.01286     3.82632
      C    5    0.26234      0.99956     1.72377    0.01432     2.73766
      N    6   -0.14756      0.99961     2.63807    0.00987     3.64756
      C    7    0.08435      0.99958     1.90528    0.01079     2.91565
      C    8   -0.17730      0.99957     2.16780    0.00993     3.17730
      C    9    0.00008      0.99957     1.99066    0.00970     2.99992
      C   10   -0.13422      0.99954     2.12460    0.01008     3.13422
      C   11    0.39650      0.99963     1.57982    0.02405     2.60350
      O   12   -0.33372      0.99987     3.32709    0.00675     4.33372
      O   13   -0.36157      0.99988     3.35538    0.00630     4.36157
      H   14    0.08875      0.00000     0.40950    0.00175     0.41125
      H   15    0.08901      0.00000     0.40924    0.00175     0.41099
      H   16    0.09127      0.00000     0.40743    0.00130     0.40873
      H   17    0.08749      0.00000     0.41146    0.00105     0.41251
      H   18    0.09600      0.00000     0.40303    0.00097     0.40400
      H   19    0.08529      0.00000     0.41365    0.00106     0.41471
      H   20    0.10122      0.00000     0.39760    0.00118     0.39878
      H   21    0.22723      0.00000     0.26677    0.00601     0.27277
 =======================================================================
   * Total *   -0.00000     12.99507    32.84330    0.16163    46.00000

 Normal termination of Gaussian 16 at Wed Dec  9 23:49:55 2020.
