 Gaussian 16, Revision A.03,

 -----------------------------------------------------------
 # opt freq B3LYP/6-31G(d) empiricaldispersion=gd3bj scf=xqc
 -----------------------------------------------------------

 -------------------------------
 CID_127003002_JID_3283_neutraal
 -------------------------------
 Symbolic Z-matrix:
 Charge =  0 Multiplicity = 1

 SCF Done:  E(RB3LYP) =  -611.315146565     A.U. after   15 cycles
 SCF Done:  E(RB3LYP) =  -611.321148166     A.U. after   13 cycles
 SCF Done:  E(RB3LYP) =  -611.321898951     A.U. after   13 cycles
 SCF Done:  E(RB3LYP) =  -611.322003966     A.U. after   12 cycles
 SCF Done:  E(RB3LYP) =  -611.322182708     A.U. after   12 cycles
 SCF Done:  E(RB3LYP) =  -611.322235347     A.U. after   11 cycles
 SCF Done:  E(RB3LYP) =  -611.322254027     A.U. after   11 cycles
 SCF Done:  E(RB3LYP) =  -611.322269290     A.U. after   10 cycles
 SCF Done:  E(RB3LYP) =  -611.322276343     A.U. after   10 cycles
 SCF Done:  E(RB3LYP) =  -611.322277174     A.U. after    8 cycles
 SCF Done:  E(RB3LYP) =  -611.323027197     A.U. after    9 cycles
 SCF Done:  E(RB3LYP) =  -611.323038140     A.U. after   10 cycles
 SCF Done:  E(RB3LYP) =  -611.323045701     A.U. after   11 cycles
 SCF Done:  E(RB3LYP) =  -611.323047318     A.U. after    9 cycles
 SCF Done:  E(RB3LYP) =  -611.323047414     A.U. after    7 cycles
 Optimization completed.
    -- Stationary point found.
 Normal termination of Gaussian 16 at Wed Dec  9 22:59:57 2020.

 --------------------------------------------------------------------
 #N Geom=AllCheck Guess=TCheck SCRF=Check GenChk RB3LYP/6-31G(d) Freq
 --------------------------------------------------------------------

 Structure from the checkpoint file:  "JID_3283.chk"
 -------------------------------
 CID_127003002_JID_3283_neutraal
 -------------------------------
 Charge =  0 Multiplicity = 1

 SCF Done:  E(RB3LYP) =  -611.323047414     A.U. after    1 cycles

  Exact polarizability: 150.099   3.967 107.447 -13.684  10.262  87.835
 Approx polarizability: 201.481  -4.000 172.991 -31.329  32.823 140.673

                      1                      2                      3
                      A                      A                      A
 Frequencies --     29.5832                56.1437                82.6244
 Red. masses --      4.3183                 3.7564                 2.6359
 Frc consts  --      0.0022                 0.0070                 0.0106
 IR Inten    --      2.0517                 1.0054                 0.2881

                      4                      5                      6
                      A                      A                      A
 Frequencies --    103.6837               112.2143               145.6132
 Red. masses --      2.9176                 1.1173                 3.7427
 Frc consts  --      0.0185                 0.0083                 0.0468
 IR Inten    --      5.3151                 0.2660                 2.8602

                      7                      8                      9
                      A                      A                      A
 Frequencies --    192.4755               215.5093               257.8618
 Red. masses --      2.3078                 1.5174                 1.0643
 Frc consts  --      0.0504                 0.0415                 0.0417
 IR Inten    --      0.6992                 2.5706                 0.5786

                     10                     11                     12
                      A                      A                      A
 Frequencies --    277.8381               279.7930               302.8388
 Red. masses --      3.2522                 3.9266                 3.7485
 Frc consts  --      0.1479                 0.1811                 0.2025
 IR Inten    --      4.3939                 1.4414                 0.4049

                     13                     14                     15
                      A                      A                      A
 Frequencies --    344.5236               357.8231               425.5040
 Red. masses --      3.1792                 2.3549                 3.1934
 Frc consts  --      0.2223                 0.1776                 0.3406
 IR Inten    --     12.2937                 4.4659                 6.5173

                     16                     17                     18
                      A                      A                      A
 Frequencies --    456.8087               481.3603               511.0793
 Red. masses --      3.8758                 4.2164                 3.3855
 Frc consts  --      0.4765                 0.5756                 0.5210
 IR Inten    --      0.8474                16.3320                 1.5196

                     19                     20                     21
                      A                      A                      A
 Frequencies --    585.1849               615.5180               666.3668
 Red. masses --      4.3241                 6.0482                 4.9253
 Frc consts  --      0.8724                 1.3501                 1.2886
 IR Inten    --      0.3778                 3.9622                 2.6276

                     22                     23                     24
                      A                      A                      A
 Frequencies --    740.3507               764.3667               776.3681
 Red. masses --      4.1163                 4.5936                 1.5427
 Frc consts  --      1.3293                 1.5813                 0.5478
 IR Inten    --      5.5144                 7.5008                31.2230

                     25                     26                     27
                      A                      A                      A
 Frequencies --    804.0453               809.9236               883.4752
 Red. masses --      3.3807                 3.5024                 1.4967
 Frc consts  --      1.2877                 1.3536                 0.6883
 IR Inten    --     11.3284                 6.3652                19.6389

                     28                     29                     30
                      A                      A                      A
 Frequencies --    928.8704               956.5724               994.9460
 Red. masses --      1.2587                 2.9716                 2.1348
 Frc consts  --      0.6399                 1.6020                 1.2451
 IR Inten    --      0.4006                 5.7099                12.9367

                     31                     32                     33
                      A                      A                      A
 Frequencies --   1013.3564              1074.5818              1090.4620
 Red. masses --      2.7256                 1.7750                 5.6823
 Frc consts  --      1.6491                 1.2076                 3.9811
 IR Inten    --     22.8888                33.6230                66.5967

                     34                     35                     36
                      A                      A                      A
 Frequencies --   1114.6683              1149.9821              1161.5295
 Red. masses --      2.2496                 2.9195                 1.3106
 Frc consts  --      1.6468                 2.2748                 1.0418
 IR Inten    --      5.0203                 4.0384                 0.0554

                     37                     38                     39
                      A                      A                      A
 Frequencies --   1176.9637              1193.2982              1208.8795
 Red. masses --      1.5338                 1.2896                 1.4807
 Frc consts  --      1.2519                 1.0819                 1.2749
 IR Inten    --      2.8568                 1.8635                 0.0463

                     40                     41                     42
                      A                      A                      A
 Frequencies --   1216.5588              1226.6171              1248.2058
 Red. masses --      1.9141                 1.4699                 2.3402
 Frc consts  --      1.6691                 1.3030                 2.1482
 IR Inten    --      5.2412                 0.2969                 2.6058

                     43                     44                     45
                      A                      A                      A
 Frequencies --   1263.7225              1294.9943              1356.3099
 Red. masses --      2.5601                 1.4364                 1.6074
 Frc consts  --      2.4088                 1.4192                 1.7422
 IR Inten    --     16.3048                 2.5846                18.7452

                     46                     47                     48
                      A                      A                      A
 Frequencies --   1392.1799              1412.1772              1467.1545
 Red. masses --      2.5750                 1.5530                 1.1890
 Frc consts  --      2.9405                 1.8247                 1.5079
 IR Inten    --      7.9333                53.0137                 1.0599

                     49                     50                     51
                      A                      A                      A
 Frequencies --   1473.1752              1486.9545              1497.4851
 Red. masses --      1.2504                 1.1507                 1.0425
 Frc consts  --      1.5988                 1.4990                 1.3774
 IR Inten    --      3.7729                 2.8280                 6.4906

                     52                     53                     54
                      A                      A                      A
 Frequencies --   1499.6363              1505.8626              1511.9102
 Red. masses --      1.0915                 1.0561                 1.0510
 Frc consts  --      1.4462                 1.4110                 1.4154
 IR Inten    --      2.0817                 0.6419                 7.6007

                     55                     56                     57
                      A                      A                      A
 Frequencies --   1524.1513              1530.3843              1540.1338
 Red. masses --      1.4393                 1.0559                 1.0569
 Frc consts  --      1.9699                 1.4570                 1.4771
 IR Inten    --      1.1716                 5.9967                 5.4086

                     58                     59                     60
                      A                      A                      A
 Frequencies --   1547.3762              1594.5684              1685.0846
 Red. masses --      1.5945                 5.9159                 6.4625
 Frc consts  --      2.2494                 8.8625                10.8117
 IR Inten    --      8.0754                80.7986                61.9905

                     61                     62                     63
                      A                      A                      A
 Frequencies --   1769.0583              3004.3617              3010.8879
 Red. masses --      9.4805                 1.0575                 1.0542
 Frc consts  --     17.4810                 5.6241                 5.6308
 IR Inten    --    508.1833                12.5569                97.6940

                     64                     65                     66
                      A                      A                      A
 Frequencies --   3026.2992              3062.7083              3079.3895
 Red. masses --      1.0350                 1.0979                 1.0313
 Frc consts  --      5.5849                 6.0674                 5.7620
 IR Inten    --     51.6244                14.9054                31.9770

                     67                     68                     69
                      A                      A                      A
 Frequencies --   3093.6712              3103.5263              3136.6353
 Red. masses --      1.1015                 1.0861                 1.1034
 Frc consts  --      6.2113                 6.1634                 6.3960
 IR Inten    --     45.1315                29.6248                25.7246

                     70                     71                     72
                      A                      A                      A
 Frequencies --   3144.8110              3148.3940              3170.0067
 Red. masses --      1.1032                 1.1051                 1.1066
 Frc consts  --      6.4282                 6.4539                 6.5517
 IR Inten    --     24.3971                10.1777                 8.9098

                     73                     74                     75
                      A                      A                      A
 Frequencies --   3214.6060              3223.1753              3247.4803
 Red. masses --      1.0900                 1.0912                 1.0944
 Frc consts  --      6.6365                 6.6792                 6.8003
 IR Inten    --      7.8321                 1.9942                 3.1616

 - Thermochemistry -
 -------------------
 Temperature   298.150 Kelvin.  Pressure   1.00000 Atm.
 Atom     1 has atomic number  6 and mass  12.00000

 Molecular mass:   182.10553 amu.
 Principal axes and moments of inertia in atomic units:
                           1         2         3
     Eigenvalues --  1050.832524330.857504529.25404
           X            0.99989   0.01467  -0.00100
           Y           -0.01471   0.99602  -0.08791
           Z           -0.00029   0.08792   0.99613
 This molecule is an asymmetric top.
 Rotational symmetry number  1.
 Warning -- assumption of classical behavior for rotation
           may cause significant error
 Rotational temperatures (Kelvin)      0.08242     0.02000     0.01912
 Rotational constants (GHZ):           1.71744     0.41672     0.39846
 Zero-point vibrational energy     598447.7 (Joules/Mol)
                                  143.03243 (Kcal/Mol)
 Warning -- explicit consideration of  20 degrees of freedom as
           vibrations may cause significant error
 Vibrational temperatures:     42.56    80.78   118.88   149.18   161.45
          (Kelvin)            209.50   276.93   310.07   371.01   399.75
                              402.56   435.72   495.69   514.83   612.21
                              657.25   692.57   735.33   841.95   885.59
                              958.75  1065.20  1099.75  1117.02  1156.84
                             1165.30  1271.12  1336.44  1376.29  1431.51
                             1457.99  1546.08  1568.93  1603.76  1654.57
                             1671.18  1693.39  1716.89  1739.31  1750.36
                             1764.83  1795.89  1818.21  1863.21  1951.43
                             2003.04  2031.81  2110.91  2119.57  2139.40
                             2154.55  2157.64  2166.60  2175.30  2192.91
                             2201.88  2215.91  2226.33  2294.23  2424.46
                             2545.28  4322.61  4332.00  4354.17  4406.55
                             4430.55  4451.10  4465.28  4512.92  4524.68
                             4529.84  4560.93  4625.10  4637.43  4672.40

 Zero-point correction=                           0.227937 (Hartree/Particle)
 Thermal correction to Energy=                    0.241357
 Thermal correction to Enthalpy=                  0.242302
 Thermal correction to Gibbs Free Energy=         0.187221
 Sum of electronic and zero-point Energies=           -611.095111
 Sum of electronic and thermal Energies=              -611.081690
 Sum of electronic and thermal Enthalpies=            -611.080746
 Sum of electronic and thermal Free Energies=         -611.135826

                     E (Thermal)             CV                S
                      KCal/Mol        Cal/Mol-Kelvin    Cal/Mol-Kelvin
 Total                  151.454             49.252            115.927
 Electronic               0.000              0.000              0.000
 Translational            0.889              2.981             41.505
 Rotational               0.889              2.981             31.400
 Vibrational            149.677             43.290             43.022
 Vibration     1          0.593              1.984              5.857
 Vibration     2          0.596              1.975              4.588
 Vibration     3          0.600              1.961              3.828
 Vibration     4          0.605              1.946              3.384
 Vibration     5          0.607              1.939              3.230
 Vibration     6          0.617              1.907              2.729
 Vibration     7          0.634              1.850              2.204
 Vibration     8          0.645              1.817              1.997
 Vibration     9          0.667              1.749              1.676
 Vibration    10          0.679              1.714              1.547
 Vibration    11          0.680              1.711              1.535
 Vibration    12          0.694              1.668              1.401
 Vibration    13          0.723              1.586              1.191
 Vibration    14          0.733              1.559              1.132
 Vibration    15          0.787              1.415              0.873
 Vibration    16          0.815              1.346              0.775
 Vibration    17          0.838              1.291              0.706
 Vibration    18          0.866              1.225              0.631
 Vibration    19          0.942              1.063              0.476
 Vibration    20          0.975              0.999              0.424

 Optimization completed.
    -- Stationary point found.
 Normal termination of Gaussian 16 at Wed Dec  9 23:06:11 2020.

 ----------------------------------------------------------------------
 # B3LYP/6-311++G(d,p) empiricaldispersion=gd3bj scf=xqc pop=npa geom=c
 heck
 ----------------------------------------------------------------------

 ---------------------------------------
 CID_127003002_JID_3283_Energie_neutraal
 ---------------------------------------
 Structure from the checkpoint file:  "JID_3283.chk"
 Charge =  0 Multiplicity = 1

 SCF Done:  E(RB3LYP) =  -611.497535188     A.U. after   16 cycles
 Normal termination of Gaussian 16 at Wed Dec  9 23:08:39 2020.

 ----------------------------------------------------------------------
 # B3LYP/6-311++G(d,p) empiricaldispersion=gd3bj scf=xqc pop=npa geom=c
 heck
 ----------------------------------------------------------------------

 -------------------------------------
 CID_127003002_JID_3283_Energie_kation
 -------------------------------------
 Structure from the checkpoint file:  "JID_3283.chk"
 Charge =  1 Multiplicity = 2

 SCF Done:  E(UB3LYP) =  -611.207758852     A.U. after   26 cycles
 Normal termination of Gaussian 16 at Wed Dec  9 23:13:56 2020.
 Gaussian 16:  ES64L-G16RevA.03 25-Dec-2016

 ----------------------------------------------------------------------
 # B3LYP/6-311++G(d,p) empiricaldispersion=gd3bj scf=xqc pop=npa geom=c
 heck
 ----------------------------------------------------------------------

 ------------------------------------
 CID_127003002_JID_3283_Energie_anion
 ------------------------------------
 Structure from the checkpoint file:  "JID_3283.chk"
 Charge = -1 Multiplicity = 2

                         Standard orientation:
 ---------------------------------------------------------------------
 Center     Atomic      Atomic             Coordinates (Angstroms)
 Number     Number       Type             X           Y           Z
 ---------------------------------------------------------------------
      1          6           0       -3.826061   -0.916466   -0.067406
      2          7           0       -2.454315   -0.443443   -0.227295
      3          6           0       -1.521329   -1.174008   -0.905627
      4          6           0       -0.238675   -0.740369   -1.057813
      5          6           0        0.136503    0.512330   -0.484714
      6          6           0       -0.791939    1.244895    0.198994
      7          6           0       -2.161313    0.809811    0.369408
      8          8           0       -3.048765    1.416547    0.968295
      9          6           0        1.545799    1.019024   -0.675822
     10          7           0        2.534767   -0.003608   -0.336892
     11          6           0        3.896086    0.444535   -0.615215
     12          8           0        2.452931   -0.147514    1.100756
     13          6           0        2.266446   -1.518353    1.415564
     14          1           0       -3.931006   -1.883132   -0.562929
     15          1           0       -4.065075   -1.010454    0.994802
     16          1           0       -4.521122   -0.193753   -0.501848
     17          1           0       -1.869574   -2.116844   -1.313814
     18          1           0        0.488875   -1.342538   -1.586484
     19          1           0       -0.540937    2.194733    0.658383
     20          1           0        1.702728    1.263372   -1.735069
     21          1           0        1.702740    1.939202   -0.091677
     22          1           0        4.142152    1.390487   -0.107659
     23          1           0        4.594832   -0.327470   -0.283610
     24          1           0        4.006122    0.574151   -1.696877
     25          1           0        1.327072   -1.901086    1.000321
     26          1           0        3.099833   -2.134346    1.050921
     27          1           0        2.233769   -1.563624    2.508226
 ---------------------------------------------------------------------

 SCF Done:  E(UB3LYP) =  -611.488449415     A.U. after   33 cycles
 SCF Done:  E(UB3LYP) =  -611.488449419     a.u. after    2 cycles

 The electronic state is 2-A.
 Alpha  occ. eigenvalues --  -19.04413 -18.95257 -14.25267 -14.24191 -10.13825
 Alpha  occ. eigenvalues --  -10.10912 -10.09732 -10.09294 -10.08924 -10.08717
 Alpha  occ. eigenvalues --  -10.05948 -10.04684 -10.03636  -0.96531  -0.91093
 Alpha  occ. eigenvalues --   -0.83548  -0.77168  -0.70552  -0.63604  -0.61618
 Alpha  occ. eigenvalues --   -0.58981  -0.57505  -0.52042  -0.51069  -0.46395
 Alpha  occ. eigenvalues --   -0.40871  -0.40006  -0.38703  -0.37726  -0.36802
 Alpha  occ. eigenvalues --   -0.35585  -0.34550  -0.32602  -0.32111  -0.30514
 Alpha  occ. eigenvalues --   -0.30468  -0.29769  -0.29377  -0.28490  -0.27261
 Alpha  occ. eigenvalues --   -0.25690  -0.25174  -0.23882  -0.21817  -0.17023
 Alpha  occ. eigenvalues --   -0.16429  -0.13729  -0.13275  -0.09616   0.04701
 Alpha virt. eigenvalues --    0.06565   0.06836   0.08075   0.08816   0.09514
 Alpha virt. eigenvalues --    0.09959   0.10839   0.11585   0.11839   0.12174
 Alpha virt. eigenvalues --    0.12307   0.12742   0.13105   0.14593   0.14827

  Beta  occ. eigenvalues --  -19.04411 -18.95217 -14.25245 -14.24027 -10.13818
  Beta  occ. eigenvalues --  -10.10901 -10.09725 -10.09118 -10.08933 -10.08679
  Beta  occ. eigenvalues --  -10.05732 -10.04741 -10.03526  -0.96521  -0.90967
  Beta  occ. eigenvalues --   -0.83306  -0.77117  -0.70283  -0.63402  -0.61434
  Beta  occ. eigenvalues --   -0.58913  -0.57447  -0.51896  -0.50886  -0.46182
  Beta  occ. eigenvalues --   -0.40773  -0.39909  -0.38609  -0.37648  -0.36697
  Beta  occ. eigenvalues --   -0.35252  -0.34404  -0.32521  -0.32073  -0.30436
  Beta  occ. eigenvalues --   -0.30410  -0.29699  -0.29308  -0.28367  -0.27003
  Beta  occ. eigenvalues --   -0.25651  -0.25066  -0.23770  -0.21323  -0.16892
  Beta  occ. eigenvalues --   -0.15594  -0.13633  -0.13192  -0.09004
  Beta virt. eigenvalues --    0.07020   0.07479   0.08234   0.08883   0.09213
  Beta virt. eigenvalues --    0.09716   0.10409   0.11125   0.11865   0.12007
  Beta virt. eigenvalues --    0.12277   0.12519   0.12978   0.13234   0.14770

 Mulliken charges and spin densities:
               1          2
     1  C    0.020280  -0.281116
     2  N   -0.029894   0.101662
     3  C   -0.195560   0.084190
     4  C    0.168823  -0.507833
     5  C    0.316009   0.720344
     6  C   -0.850488   0.883438
     7  C   -0.134459  -0.095390
     8  O   -0.413541   0.017973
     9  C    0.725509  -1.913440
    10  N   -0.326106   0.204320
    11  C    0.829161  -1.146694
    12  O   -0.007907   0.022431
    13  C   -0.110799  -0.182890
    14  H   -0.235032   0.355214
    15  H    0.153502   0.022905
    16  H    0.052369   0.135017
    17  H   -0.410372   0.527557
    18  H   -0.201722   0.398275
    19  H    0.082947   0.072781
    20  H   -0.252362   0.418077
    21  H    0.277057  -0.120946
    22  H   -0.013448   0.148386
    23  H   -0.143368   0.276886
    24  H   -0.550061   0.694698
    25  H    0.179107  -0.011897
    26  H    0.003334   0.120323
    27  H    0.067021   0.055731
 Sum of Mulliken charges =  -1.00000   1.00000

 Dipole moment (field-independent basis, Debye):
    X=              0.5847    Y=             -1.8167    Z=              3.2941  Tot=              3.8070
 Quadrupole moment (field-independent basis, Debye-Ang):
   XX=           -145.1171   YY=           -105.5215   ZZ=           -111.0999
   XY=              3.1275   XZ=              8.3394   YZ=             -6.7814

 Summary of Natural Population Analysis:

                                       Natural Population
                Natural  -----------------------------------------------
    Atom  No    Charge         Core      Valence    Rydberg      Total
 -----------------------------------------------------------------------
      C    1   -0.17503      0.99965     2.16709    0.00830     3.17503
      N    2   -0.20443      0.99963     2.69572    0.00908     3.70443
      C    3    0.06668      0.99955     1.92217    0.01160     2.93332
      C    4   -0.16428      0.99951     2.15382    0.01095     3.16428
      C    5    0.03513      0.99950     1.95404    0.01134     2.96487
      C    6   -0.13113      0.99946     2.12205    0.00962     3.13113
      C    7    0.31340      0.99961     1.66388    0.02310     2.68660
      O    8   -0.34255      0.99988     3.33718    0.00549     4.34255
      C    9   -0.09933      0.99956     2.08632    0.01345     3.09933
      N   10   -0.11777      0.99971     2.60310    0.01496     3.61777
      C   11   -0.17988      0.99964     2.17088    0.00936     3.17988
      O   12   -0.23226      0.99990     3.22248    0.00988     4.23226
      C   13   -0.09531      0.99962     2.08609    0.00960     3.09531
      H   14    0.09404      0.00000     0.40497    0.00099     0.40596
      H   15    0.09992      0.00000     0.39919    0.00089     0.40008
      H   16    0.10331      0.00000     0.39561    0.00108     0.39669
      H   17    0.09358      0.00000     0.40518    0.00124     0.40642
      H   18    0.10861      0.00000     0.38956    0.00183     0.39139
      H   19    0.10035      0.00000     0.39838    0.00128     0.39965
      H   20    0.10690      0.00000     0.39103    0.00206     0.39310
      H   21    0.08951      0.00000     0.40894    0.00155     0.41049
      H   22    0.08336      0.00000     0.41497    0.00166     0.41664
      H   23    0.09592      0.00000     0.40266    0.00143     0.40408
      H   24    0.09983      0.00000     0.39803    0.00213     0.40017
      H   25    0.08905      0.00000     0.40975    0.00120     0.41095
      H   26    0.07775      0.00000     0.42096    0.00129     0.42225
      H   27    0.08463      0.00000     0.41461    0.00076     0.41537
 =======================================================================
   * Total *    0.00000     12.99523    35.83867    0.16610    49.00000

 Normal termination of Gaussian 16 at Wed Dec  9 23:26:24 2020.
