 Gaussian 16, Revision A.03,

 -----------------------------------------------------------
 # opt freq B3LYP/6-31G(d) empiricaldispersion=gd3bj scf=xqc
 -----------------------------------------------------------

 ------------------------------
 CID_28910172_JID_3096_neutraal
 ------------------------------
 Symbolic Z-matrix:
 Charge =  0 Multiplicity = 1

 SCF Done:  E(RB3LYP) =  -554.577731089     A.U. after   15 cycles
 SCF Done:  E(RB3LYP) =  -554.580257196     A.U. after   12 cycles
 SCF Done:  E(RB3LYP) =  -554.580487857     A.U. after   11 cycles
 SCF Done:  E(RB3LYP) =  -554.580582321     A.U. after   11 cycles
 SCF Done:  E(RB3LYP) =  -554.580740346     A.U. after   12 cycles
 SCF Done:  E(RB3LYP) =  -554.580887085     A.U. after   12 cycles
 SCF Done:  E(RB3LYP) =  -554.581190345     A.U. after   12 cycles
 SCF Done:  E(RB3LYP) =  -554.582119581     A.U. after   13 cycles
 SCF Done:  E(RB3LYP) =  -554.582242979     A.U. after   11 cycles
 SCF Done:  E(RB3LYP) =  -554.582254703     A.U. after    9 cycles
 SCF Done:  E(RB3LYP) =  -554.582389905     A.U. after   12 cycles
 SCF Done:  E(RB3LYP) =  -554.582394970     A.U. after    9 cycles
 SCF Done:  E(RB3LYP) =  -554.582399663     A.U. after   10 cycles
 SCF Done:  E(RB3LYP) =  -554.582401023     A.U. after    9 cycles
 SCF Done:  E(RB3LYP) =  -554.582401101     A.U. after    9 cycles
 SCF Done:  E(RB3LYP) =  -554.582401266     A.U. after    8 cycles
 Optimization completed.
    -- Stationary point found.
 Normal termination of Gaussian 16 at Wed Dec  9 22:28:57 2020.

 --------------------------------------------------------------------
 #N Geom=AllCheck Guess=TCheck SCRF=Check GenChk RB3LYP/6-31G(d) Freq
 --------------------------------------------------------------------

 Structure from the checkpoint file:  "JID_3096.chk"
 ------------------------------
 CID_28910172_JID_3096_neutraal
 ------------------------------
 Charge =  0 Multiplicity = 1

 SCF Done:  E(RB3LYP) =  -554.582401266     A.U. after    1 cycles

  Exact polarizability: 218.027  -5.043 114.412  -1.141  -0.806  53.678
 Approx polarizability: 345.750 -10.967 194.035  -1.777   1.310  81.758

                      1                      2                      3
                      A                      A                      A
 Frequencies --     40.0319                70.0363               101.7149
 Red. masses --      1.0378                 5.9851                 3.2480
 Frc consts  --      0.0010                 0.0173                 0.0198
 IR Inten    --      0.1805                 1.9255                 3.0672

                      4                      5                      6
                      A                      A                      A
 Frequencies --    127.4176               180.9859               223.3239
 Red. masses --      5.6009                 4.1406                 4.0302
 Frc consts  --      0.0536                 0.0799                 0.1184
 IR Inten    --      3.3360                 5.4622                 4.0801

                      7                      8                      9
                      A                      A                      A
 Frequencies --    267.5824               348.9065               385.2567
 Red. masses --      3.4693                 4.3702                 6.6999
 Frc consts  --      0.1464                 0.3135                 0.5859
 IR Inten    --      2.6299                 2.5999                 0.1717

                     10                     11                     12
                      A                      A                      A
 Frequencies --    389.2305               411.4621               451.6011
 Red. masses --      4.4163                 3.7570                 4.9061
 Frc consts  --      0.3942                 0.3748                 0.5895
 IR Inten    --      0.8738                 7.7943                 2.0217

                     13                     14                     15
                      A                      A                      A
 Frequencies --    476.1583               543.2122               570.1234
 Red. masses --      3.5324                 5.2241                 5.5216
 Frc consts  --      0.4719                 0.9082                 1.0574
 IR Inten    --      3.4816                 3.4782                 6.4848

                     16                     17                     18
                      A                      A                      A
 Frequencies --    584.5463               596.8500               664.5113
 Red. masses --      3.4767                 6.3751                 6.3641
 Frc consts  --      0.6999                 1.3380                 1.6557
 IR Inten    --      3.0091                 2.9062                 5.8127

                     19                     20                     21
                      A                      A                      A
 Frequencies --    743.8560               752.5321               793.2947
 Red. masses --      4.3238                 5.1186                 5.3072
 Frc consts  --      1.4096                 1.7079                 1.9678
 IR Inten    --      0.8481                 8.2426                 1.0863

                     22                     23                     24
                      A                      A                      A
 Frequencies --    840.6579               890.5870               905.5629
 Red. masses --      1.4227                 1.3956                 3.4383
 Frc consts  --      0.5924                 0.6522                 1.6613
 IR Inten    --     28.6091                 0.1337                 6.1686

                     25                     26                     27
                      A                      A                      A
 Frequencies --    941.9386               959.8459               966.7863
 Red. masses --      1.5253                 1.3083                 2.7463
 Frc consts  --      0.7974                 0.7102                 1.5124
 IR Inten    --     11.0935                 1.9192                 0.6547

                     28                     29                     30
                      A                      A                      A
 Frequencies --   1034.1156              1049.8616              1060.7955
 Red. masses --      1.5303                 1.8972                 5.7979
 Frc consts  --      0.9642                 1.2320                 3.8440
 IR Inten    --      7.2584                 9.4828                33.1698

                     31                     32                     33
                      A                      A                      A
 Frequencies --   1077.5633              1151.1816              1184.6723
 Red. masses --      1.4993                 1.9152                 1.8452
 Frc consts  --      1.0257                 1.4954                 1.5258
 IR Inten    --      6.8817                11.0932                10.9555

                     34                     35                     36
                      A                      A                      A
 Frequencies --   1198.4823              1261.3518              1275.9019
 Red. masses --      1.7483                 2.1863                 1.6812
 Frc consts  --      1.4795                 2.0494                 1.6125
 IR Inten    --     22.5571                68.3975                13.2385

                     37                     38                     39
                      A                      A                      A
 Frequencies --   1308.2426              1311.5275              1364.1586
 Red. masses --      1.8164                 1.7980                 2.2794
 Frc consts  --      1.8317                 1.8222                 2.4992
 IR Inten    --      5.4079                 3.0242                 6.4468

                     40                     41                     42
                      A                      A                      A
 Frequencies --   1367.3505              1424.9198              1445.7473
 Red. masses --      3.7566                 1.6456                 1.2480
 Frc consts  --      4.1382                 1.9686                 1.5369
 IR Inten    --      7.2558                 4.0989                 0.5605

                     43                     44                     45
                      A                      A                      A
 Frequencies --   1470.8396              1515.9151              1523.9083
 Red. masses --      3.1553                 1.0456                 1.2052
 Frc consts  --      4.0219                 1.4156                 1.6490
 IR Inten    --      7.9385                 5.8610                11.5769

                     46                     47                     48
                      A                      A                      A
 Frequencies --   1529.8524              1544.5187              1625.1680
 Red. masses --      1.1558                 2.3174                 5.7902
 Frc consts  --      1.5938                 3.2571                 9.0104
 IR Inten    --      5.2411                43.1443                52.0099

                     49                     50                     51
                      A                      A                      A
 Frequencies --   1675.2870              1686.8592              2331.3663
 Red. masses --      6.2102                 6.8896                12.6632
 Frc consts  --     10.2692                11.5505                40.5523
 IR Inten    --      4.2371                90.4543                77.2804

                     52                     53                     54
                      A                      A                      A
 Frequencies --   2995.8659              3044.9647              3099.1155
 Red. masses --      1.0727                 1.0386                 1.0993
 Frc consts  --      5.6724                 5.6735                 6.2206
 IR Inten    --     63.5871                37.4472                19.8551

                     55                     56                     57
                      A                      A                      A
 Frequencies --   3128.1147              3141.2551              3179.5351
 Red. masses --      1.1015                 1.0926                 1.0902
 Frc consts  --      6.3506                 6.3522                 6.4936
 IR Inten    --     14.2919                14.1023                12.3319

                     58                     59                     60
                      A                      A                      A
 Frequencies --   3186.8190              3207.3589              3221.4753
 Red. masses --      1.0891                 1.0923                 1.0933
 Frc consts  --      6.5169                 6.6204                 6.6848
 IR Inten    --     12.1960                 5.9788                 6.6905

 - Thermochemistry -
 -------------------
 Temperature   298.150 Kelvin.  Pressure   1.00000 Atm.
 Atom     1 has atomic number  6 and mass  12.00000

 Molecular mass:   171.06841 amu.
 Principal axes and moments of inertia in atomic units:
                           1         2         3
     Eigenvalues --   862.567633864.979794677.07331
           X            0.99976   0.02167  -0.00138
           Y           -0.02167   0.99975  -0.00577
           Z            0.00126   0.00580   0.99998
 This molecule is an asymmetric top.
 Rotational symmetry number  1.
 Warning -- assumption of classical behavior for rotation
           may cause significant error
 Rotational temperatures (Kelvin)      0.10041     0.02241     0.01852
 Rotational constants (GHZ):           2.09229     0.46695     0.38587
 Zero-point vibrational energy     453696.3 (Joules/Mol)
                                  108.43603 (Kcal/Mol)
 Warning -- explicit consideration of  17 degrees of freedom as
           vibrations may cause significant error
 Vibrational temperatures:     57.60   100.77   146.35   183.33   260.40
          (Kelvin)            321.31   384.99   502.00   554.30   560.02
                              592.00   649.75   685.09   781.56   820.28
                              841.03   858.73   956.08  1070.24  1082.73
                             1141.37  1209.52  1281.36  1302.90  1355.24
                             1381.00  1390.99  1487.86  1510.52  1526.25
                             1550.37  1656.29  1704.48  1724.35  1814.80
                             1835.74  1882.27  1887.00  1962.72  1967.31
                             2050.14  2080.11  2116.21  2181.06  2192.56
                             2201.12  2222.22  2338.25  2410.36  2427.01
                             3354.32  4310.38  4381.03  4458.94  4500.66
                             4519.57  4574.64  4585.12  4614.67  4634.98

 Zero-point correction=                           0.172804 (Hartree/Particle)
 Thermal correction to Energy=                    0.183777
 Thermal correction to Enthalpy=                  0.184721
 Thermal correction to Gibbs Free Energy=         0.135165
 Sum of electronic and zero-point Energies=           -554.409597
 Sum of electronic and thermal Energies=              -554.398624
 Sum of electronic and thermal Enthalpies=            -554.397680
 Sum of electronic and thermal Free Energies=         -554.447236

                     E (Thermal)             CV                S
                      KCal/Mol        Cal/Mol-Kelvin    Cal/Mol-Kelvin
 Total                  115.322             41.603            104.300
 Electronic               0.000              0.000              0.000
 Translational            0.889              2.981             41.318
 Rotational               0.889              2.981             31.123
 Vibrational            113.544             35.641             31.859
 Vibration     1          0.594              1.981              5.258
 Vibration     2          0.598              1.968              4.152
 Vibration     3          0.604              1.948              3.421
 Vibration     4          0.611              1.926              2.985
 Vibration     5          0.630              1.866              2.318
 Vibration     6          0.649              1.806              1.932
 Vibration     7          0.673              1.733              1.612
 Vibration     8          0.726              1.577              1.171
 Vibration     9          0.754              1.502              1.018
 Vibration    10          0.757              1.493              1.003
 Vibration    11          0.775              1.445              0.921
 Vibration    12          0.810              1.357              0.791
 Vibration    13          0.833              1.303              0.720
 Vibration    14          0.898              1.155              0.558
 Vibration    15          0.926              1.096              0.504
 Vibration    16          0.941              1.065              0.477
 Vibration    17          0.955              1.038              0.455

 Optimization completed.
    -- Stationary point found.
 Normal termination of Gaussian 16 at Wed Dec  9 22:33:38 2020.

 ----------------------------------------------------------------------
 # B3LYP/6-311++G(d,p) empiricaldispersion=gd3bj scf=xqc pop=npa geom=c
 heck
 ----------------------------------------------------------------------

 --------------------------------------
 CID_28910172_JID_3096_Energie_neutraal
 --------------------------------------
 Structure from the checkpoint file:  "JID_3096.chk"
 Charge =  0 Multiplicity = 1

 SCF Done:  E(RB3LYP) =  -554.726679471     A.U. after   15 cycles
 Normal termination of Gaussian 16 at Wed Dec  9 22:35:32 2020.

 ----------------------------------------------------------------------
 # B3LYP/6-311++G(d,p) empiricaldispersion=gd3bj scf=xqc pop=npa geom=c
 heck
 ----------------------------------------------------------------------

 ------------------------------------
 CID_28910172_JID_3096_Energie_kation
 ------------------------------------
 Structure from the checkpoint file:  "JID_3096.chk"
 Charge =  1 Multiplicity = 2

 SCF Done:  E(UB3LYP) =  -554.429414268     A.U. after   23 cycles
 Normal termination of Gaussian 16 at Wed Dec  9 22:39:37 2020.
 Gaussian 16:  ES64L-G16RevA.03 25-Dec-2016

 ----------------------------------------------------------------------
 # B3LYP/6-311++G(d,p) empiricaldispersion=gd3bj scf=xqc pop=npa geom=c
 heck
 ----------------------------------------------------------------------

 -----------------------------------
 CID_28910172_JID_3096_Energie_anion
 -----------------------------------
 Structure from the checkpoint file:  "JID_3096.chk"
 Charge = -1 Multiplicity = 2

                         Standard orientation:
 ---------------------------------------------------------------------
 Center     Atomic      Atomic             Coordinates (Angstroms)
 Number     Number       Type             X           Y           Z
 ---------------------------------------------------------------------
      1          6           0       -3.955976   -1.331461   -0.102099
      2          6           0       -2.680954   -0.528205   -0.019402
      3          6           0       -1.432218   -1.146456   -0.025260
      4          6           0       -0.241622   -0.404948    0.023077
      5          6           0       -0.317454    1.001214    0.082035
      6          6           0       -1.555888    1.636961    0.117414
      7          6           0       -2.719295    0.873751    0.061930
      8          8           0        0.810581    1.764261    0.193807
      9          6           0        1.998829    1.220015   -0.386087
     10          6           0        2.174077   -0.248769   -0.044720
     11          6           0        1.070024   -1.014743    0.098843
     12          6           0        3.492292   -0.772509    0.044167
     13          7           0        4.587822   -1.165469    0.100553
     14          1           0       -4.680908   -1.010280    0.654468
     15          1           0       -3.764314   -2.398327    0.047780
     16          1           0       -4.438064   -1.216552   -1.081272
     17          1           0       -1.367681   -2.231523   -0.065182
     18          1           0       -1.590328    2.719081    0.186242
     19          1           0       -3.682229    1.378192    0.079248
     20          1           0        1.962125    1.351429   -1.479710
     21          1           0        2.820808    1.822020    0.004581
     22          1           0        1.150295   -2.078934    0.300134
 ---------------------------------------------------------------------

 SCF Done:  E(UB3LYP) =  -554.752958332     A.U. after   22 cycles

 The electronic state is 2-A.
 Alpha  occ. eigenvalues --  -19.01488 -14.14383 -10.09992 -10.08562 -10.05930
 Alpha  occ. eigenvalues --  -10.04813 -10.04556 -10.03436 -10.03348 -10.03191
 Alpha  occ. eigenvalues --  -10.03126 -10.02885 -10.02017  -0.93357  -0.74807
 Alpha  occ. eigenvalues --   -0.72333  -0.67462  -0.64951  -0.61238  -0.57865
 Alpha  occ. eigenvalues --   -0.52464  -0.50957  -0.47000  -0.41975  -0.39403
 Alpha  occ. eigenvalues --   -0.38070  -0.34611  -0.32771  -0.32226  -0.30949
 Alpha  occ. eigenvalues --   -0.30515  -0.28730  -0.27800  -0.26375  -0.24962
 Alpha  occ. eigenvalues --   -0.23764  -0.22559  -0.22089  -0.21374  -0.19505
 Alpha  occ. eigenvalues --   -0.18459  -0.16547  -0.15746  -0.10820  -0.07654
 Alpha  occ. eigenvalues --    0.03398
 Alpha virt. eigenvalues --    0.07830   0.09527   0.10231   0.10798   0.11303
 Alpha virt. eigenvalues --    0.11967   0.12344   0.12954   0.13659   0.14198
 Alpha virt. eigenvalues --    0.15015   0.15772   0.16559   0.17257   0.17485

  Beta  occ. eigenvalues --  -19.01427 -14.14065 -10.09999 -10.08389 -10.05925
  Beta  occ. eigenvalues --  -10.04840 -10.04649 -10.03480 -10.03334 -10.02937
  Beta  occ. eigenvalues --  -10.02865 -10.02589 -10.01674  -0.93202  -0.74326
  Beta  occ. eigenvalues --   -0.72071  -0.66794  -0.64812  -0.60822  -0.57640
  Beta  occ. eigenvalues --   -0.52209  -0.50172  -0.46812  -0.41632  -0.39194
  Beta  occ. eigenvalues --   -0.37838  -0.34329  -0.32627  -0.32089  -0.30930
  Beta  occ. eigenvalues --   -0.30296  -0.28539  -0.27641  -0.26197  -0.24502
  Beta  occ. eigenvalues --   -0.23407  -0.22322  -0.21009  -0.20867  -0.18974
  Beta  occ. eigenvalues --   -0.18149  -0.16238  -0.14129  -0.09775  -0.06221
  Beta virt. eigenvalues --    0.07786   0.09272   0.09489   0.10227   0.10877
  Beta virt. eigenvalues --    0.11291   0.11947   0.12646   0.13179   0.13635
  Beta virt. eigenvalues --    0.14203   0.15767   0.15849   0.16671   0.17474

 Mulliken charges and spin densities:
               1          2
     1  C   -0.507735   0.009797
     2  C    0.662673  -0.054308
     3  C   -0.305926   0.165689
     4  C    1.148311   0.040930
     5  C   -1.501241   0.039299
     6  C   -0.568357  -0.061472
     7  C   -0.365015   0.255622
     8  O   -0.099712   0.008804
     9  C   -0.633968   0.031872
    10  C    1.399525   0.211627
    11  C    0.413584   0.273601
    12  C   -1.416118  -0.066453
    13  N   -0.341851   0.169633
    14  H    0.118111   0.002253
    15  H    0.134191   0.000920
    16  H    0.128346   0.001696
    17  H    0.050231  -0.008821
    18  H    0.121282   0.003141
    19  H    0.107721  -0.019696
    20  H    0.126695   0.005963
    21  H    0.192080   0.001944
    22  H    0.137175  -0.012041
 Sum of Mulliken charges =  -1.00000   1.00000

 Dipole moment (field-independent basis, Debye):
    X=             -7.0871    Y=              1.4961    Z=             -0.7523  Tot=              7.2823
 Quadrupole moment (field-independent basis, Debye-Ang):
   XX=           -138.6756   YY=            -87.0476   ZZ=            -84.7759
   XY=             13.8176   XZ=             -1.8713   YZ=             -0.9676

 Summary of Natural Population Analysis:

                                       Natural Population
                Natural  -----------------------------------------------
    Atom  No    Charge         Core      Valence    Rydberg      Total
 -----------------------------------------------------------------------
      C    1   -0.28551      0.99964     2.28133    0.00454     3.28551
      C    2   -0.06056      0.99952     2.05313    0.00791     3.06056
      C    3   -0.04920      0.99950     2.04167    0.00804     3.04920
      C    4   -0.06442      0.99948     2.05693    0.00802     3.06442
      C    5    0.19874      0.99934     1.78891    0.01301     2.80126
      C    6   -0.13994      0.99953     2.13131    0.00910     3.13994
      C    7   -0.04375      0.99953     2.03551    0.00871     3.04375
      O    8   -0.27648      0.99986     3.26646    0.01017     4.27648
      C    9    0.00064      0.99955     1.99018    0.00963     2.99936
      C   10   -0.05563      0.99940     2.04482    0.01141     3.05563
      C   11   -0.00281      0.99948     1.99518    0.00815     3.00281
      C   12    0.13912      0.99964     1.84293    0.01832     2.86088
      N   13   -0.17299      0.99979     2.66135    0.01185     3.67299
      H   14    0.09473      0.00000     0.40422    0.00105     0.40527
      H   15    0.09606      0.00000     0.40306    0.00089     0.40394
      H   16    0.09434      0.00000     0.40454    0.00112     0.40566
      H   17    0.08766      0.00000     0.41082    0.00153     0.41234
      H   18    0.09644      0.00000     0.40188    0.00168     0.40356
      H   19    0.08503      0.00000     0.41359    0.00138     0.41497
      H   20    0.07624      0.00000     0.42210    0.00166     0.42376
      H   21    0.09004      0.00000     0.40869    0.00127     0.40996
      H   22    0.09229      0.00000     0.40647    0.00124     0.40771
 =======================================================================
   * Total *    0.00000     12.99426    31.86506    0.14068    45.00000

 Normal termination of Gaussian 16 at Wed Dec  9 22:43:27 2020.
