 Gaussian 16, Revision A.03,

 -----------------------------------------------------------
 # opt freq B3LYP/6-31G(d) empiricaldispersion=gd3bj scf=xqc
 -----------------------------------------------------------

 ------------------------------
 CID_60320538_JID_7968_neutraal
 ------------------------------
 Symbolic Z-matrix:
 Charge =  0 Multiplicity = 1

 SCF Done:  E(RB3LYP) =  -1198.07659112     A.U. after   15 cycles
 SCF Done:  E(RB3LYP) =  -1198.08473411     A.U. after   14 cycles
 SCF Done:  E(RB3LYP) =  -1198.08623331     A.U. after   14 cycles
 SCF Done:  E(RB3LYP) =  -1198.08934754     A.U. after   13 cycles
 SCF Done:  E(RB3LYP) =  -1198.09077560     A.U. after   12 cycles
 SCF Done:  E(RB3LYP) =  -1198.09153672     A.U. after   12 cycles
 SCF Done:  E(RB3LYP) =  -1198.09181182     A.U. after   12 cycles
 SCF Done:  E(RB3LYP) =  -1198.09209121     A.U. after   12 cycles
 SCF Done:  E(RB3LYP) =  -1198.09276806     A.U. after   14 cycles
 SCF Done:  E(RB3LYP) =  -1197.57270845     A.U. after   18 cycles
 SCF Done:  E(RB3LYP) =  -1198.09469354     A.U. after    7 cycles
 SCF Done:  E(RB3LYP) =  -1198.09469370     A.U. after    8 cycles
 SCF Done:  E(RB3LYP) =  -1198.09469386     A.U. after    8 cycles
 SCF Done:  E(RB3LYP) =  -1198.09469404     A.U. after    8 cycles
 SCF Done:  E(RB3LYP) =  -1198.09469414     A.U. after    7 cycles
 SCF Done:  E(RB3LYP) =  -1198.09469417     A.U. after    6 cycles
 Optimization completed.
    -- Stationary point found.
 Normal termination of Gaussian 16 at Fri Dec 11 13:48:31 2020.

 --------------------------------------------------------------------
 #N Geom=AllCheck Guess=TCheck SCRF=Check GenChk RB3LYP/6-31G(d) Freq
 --------------------------------------------------------------------

 Structure from the checkpoint file:  "JID_7968.chk"
 ------------------------------
 CID_60320538_JID_7968_neutraal
 ------------------------------
 Charge =  0 Multiplicity = 1

 SCF Done:  E(RB3LYP) =  -1198.09469417     A.U. after    1 cycles

  Exact polarizability: 197.728   0.905 160.444   3.825   3.000  88.014
 Approx polarizability: 268.944   7.338 274.714   5.560  11.808 138.397

                      1                      2                      3
                      A                      A                      A
 Frequencies --     19.9483                43.8720                52.4687
 Red. masses --      5.4445                 4.2547                 5.9966
 Frc consts  --      0.0013                 0.0048                 0.0097
 IR Inten    --      1.5880                 0.5747                 1.5604

                      4                      5                      6
                      A                      A                      A
 Frequencies --     67.9012                90.0332               128.5328
 Red. masses --      2.9590                 5.2704                 6.2006
 Frc consts  --      0.0080                 0.0252                 0.0604
 IR Inten    --      0.6897                 0.1664                 0.8605

                      7                      8                      9
                      A                      A                      A
 Frequencies --    161.4977               204.7203               212.7393
 Red. masses --      4.8685                 1.5705                 3.0640
 Frc consts  --      0.0748                 0.0388                 0.0817
 IR Inten    --      1.6638                 2.0604                 1.3975

                     10                     11                     12
                      A                      A                      A
 Frequencies --    218.6122               242.7580               243.7201
 Red. masses --      1.3014                 2.5765                 1.8071
 Frc consts  --      0.0366                 0.0895                 0.0632
 IR Inten    --      0.4459                 2.9191                 2.5018

                     13                     14                     15
                      A                      A                      A
 Frequencies --    258.7989               287.4261               308.9200
 Red. masses --      1.3534                 5.2324                 4.3976
 Frc consts  --      0.0534                 0.2547                 0.2473
 IR Inten    --      1.3719                 2.0640                14.7216

                     16                     17                     18
                      A                      A                      A
 Frequencies --    320.4813               366.1041               371.4837
 Red. masses --      5.4439                 3.0221                 3.7272
 Frc consts  --      0.3294                 0.2387                 0.3030
 IR Inten    --      0.9273                 1.4307                 3.6082

                     19                     20                     21
                      A                      A                      A
 Frequencies --    386.5131               406.7969               469.3170
 Red. masses --      6.3416                 7.8372                 3.9215
 Frc consts  --      0.5582                 0.7641                 0.5089
 IR Inten    --      4.1992                 1.6476                 2.7896

                     22                     23                     24
                      A                      A                      A
 Frequencies --    470.6045               512.4345               533.8931
 Red. masses --      4.8371                 5.5558                 5.9261
 Frc consts  --      0.6312                 0.8596                 0.9952
 IR Inten    --      5.8126                26.1086                39.4561

                     25                     26                     27
                      A                      A                      A
 Frequencies --    555.2706               579.5174               581.8347
 Red. masses --      5.8776                 3.5621                 6.5644
 Frc consts  --      1.0677                 0.7048                 1.3093
 IR Inten    --      1.5013                 5.7140                72.8791

                     28                     29                     30
                      A                      A                      A
 Frequencies --    620.8499               644.8454               669.9966
 Red. masses --      1.3998                 3.3721                 6.1444
 Frc consts  --      0.3179                 0.8262                 1.6251
 IR Inten    --     55.4015                49.1345               101.0888

                     31                     32                     33
                      A                      A                      A
 Frequencies --    719.7423               731.3384               764.9431
 Red. masses --      2.9119                 2.0223                 3.7579
 Frc consts  --      0.8887                 0.6373                 1.2956
 IR Inten    --     62.7959                15.5176               126.3433

                     34                     35                     36
                      A                      A                      A
 Frequencies --    797.4873               802.2163               820.7317
 Red. masses --      3.1621                 1.8234                 4.1656
 Frc consts  --      1.1849                 0.6914                 1.6532
 IR Inten    --      8.2673                58.4391                11.7450

                     37                     38                     39
                      A                      A                      A
 Frequencies --    890.1113               900.7666               946.8794
 Red. masses --      2.0865                 1.5692                 3.2496
 Frc consts  --      0.9740                 0.7501                 1.7166
 IR Inten    --    111.0674                28.3331               198.4533

                     40                     41                     42
                      A                      A                      A
 Frequencies --    987.4964               998.3333              1065.7965
 Red. masses --      1.3005                 2.5373                 2.1055
 Frc consts  --      0.7472                 1.4900                 1.4091
 IR Inten    --      0.4642                91.2458                38.3549

                     43                     44                     45
                      A                      A                      A
 Frequencies --   1073.4862              1076.4947              1108.0172
 Red. masses --      1.5755                 1.5276                 3.9351
 Frc consts  --      1.0697                 1.0430                 2.8464
 IR Inten    --     10.4567                 3.2132                11.9094

                     46                     47                     48
                      A                      A                      A
 Frequencies --   1129.7018              1134.4847              1158.4266
 Red. masses --      5.6609                 1.3932                 2.1613
 Frc consts  --      4.2566                 1.0564                 1.7088
 IR Inten    --    186.6779                22.7587               110.7985

                     49                     50                     51
                      A                      A                      A
 Frequencies --   1189.0658              1217.3504              1222.2926
 Red. masses --      1.3998                 1.2600                 3.6177
 Frc consts  --      1.1661                 1.1002                 3.1844
 IR Inten    --      4.7355                14.5601                31.3264

                     52                     53                     54
                      A                      A                      A
 Frequencies --   1226.3656              1278.6009              1283.2520
 Red. masses --      1.7688                 2.1953                 1.8880
 Frc consts  --      1.5673                 2.1146                 1.8318
 IR Inten    --    290.1551                15.6434                10.5698

                     55                     56                     57
                      A                      A                      A
 Frequencies --   1314.2985              1324.0923              1343.6809
 Red. masses --      2.8212                 3.9688                11.0120
 Frc consts  --      2.8713                 4.0996                11.7141
 IR Inten    --     52.9597                54.8260               104.9762

                     58                     59                     60
                      A                      A                      A
 Frequencies --   1392.0693              1443.3704              1449.5067
 Red. masses --      2.5365                 1.9378                 1.3828
 Frc consts  --      2.8961                 2.3786                 1.7118
 IR Inten    --     86.6312               102.6606                33.5391

                     61                     62                     63
                      A                      A                      A
 Frequencies --   1459.2719              1485.6505              1510.5481
 Red. masses --      1.1736                 1.1676                 2.0169
 Frc consts  --      1.4724                 1.5184                 2.7115
 IR Inten    --      2.9017                 2.0858               126.3263

                     64                     65                     66
                      A                      A                      A
 Frequencies --   1513.8148              1514.3792              1518.8165
 Red. masses --      1.2153                 1.0645                 1.2838
 Frc consts  --      1.6409                 1.4383                 1.7448
 IR Inten    --      0.5656                27.3843                28.5820

                     67                     68                     69
                      A                      A                      A
 Frequencies --   1525.4930              1529.5583              1534.5178
 Red. masses --      1.0531                 1.0720                 1.4348
 Frc consts  --      1.4439                 1.4777                 1.9906
 IR Inten    --      2.9764                 6.3656               117.2690

                     70                     71                     72
                      A                      A                      A
 Frequencies --   1544.0996              1638.2001              1658.1441
 Red. masses --      1.0520                 4.9099                 5.2917
 Frc consts  --      1.4778                 7.7635                 8.5721
 IR Inten    --     13.2930                98.2145                53.1928

                     73                     74                     75
                      A                      A                      A
 Frequencies --   1761.3758              3028.4107              3041.1838
 Red. masses --      6.9438                 1.0484                 1.0430
 Frc consts  --     12.6927                 5.6652                 5.6835
 IR Inten    --    317.5695                53.3356                53.2726

                     76                     77                     78
                      A                      A                      A
 Frequencies --   3071.0058              3117.2839              3120.7089
 Red. masses --      1.0356                 1.0912                 1.0955
 Frc consts  --      5.7543                 6.2477                 6.2858
 IR Inten    --     21.4509                15.9340                21.0284

                     79                     80                     81
                      A                      A                      A
 Frequencies --   3137.1312              3141.9365              3167.7001
 Red. masses --      1.1008                 1.1034                 1.1017
 Frc consts  --      6.3830                 6.4178                 6.5132
 IR Inten    --     10.9031                17.5703                 9.6872

                     82                     83                     84
                      A                      A                      A
 Frequencies --   3185.7819              3192.9563              3209.3676
 Red. masses --      1.1000                 1.0873                 1.0944
 Frc consts  --      6.5777                 6.5309                 6.6414
 IR Inten    --      3.0004                 7.3224                22.4215

                     85                     86                     87
                      A                      A                      A
 Frequencies --   3252.5938              3391.7240              3682.3661
 Red. masses --      1.0928                 1.0776                 1.0639
 Frc consts  --      6.8115                 7.3039                 8.4996
 IR Inten    --      1.2058               304.0124                88.0217

 - Thermochemistry -
 -------------------
 Temperature   298.150 Kelvin.  Pressure   1.00000 Atm.
 Atom     1 has atomic number  6 and mass  12.00000

 Molecular mass:   258.06743 amu.
 Principal axes and moments of inertia in atomic units:
                           1         2         3
     Eigenvalues --  2286.799816332.216167675.47310
           X            0.99993  -0.00371   0.01151
           Y            0.00366   0.99999   0.00406
           Z           -0.01152  -0.00402   0.99993
 This molecule is an asymmetric top.
 Rotational symmetry number  1.
 Warning -- assumption of classical behavior for rotation
           may cause significant error
 Rotational temperatures (Kelvin)      0.03788     0.01368     0.01128
 Rotational constants (GHZ):           0.78920     0.28501     0.23513
 Zero-point vibrational energy     644525.9 (Joules/Mol)
                                  154.04538 (Kcal/Mol)
 Warning -- explicit consideration of  27 degrees of freedom as
           vibrations may cause significant error
 Vibrational temperatures:     28.70    63.12    75.49    97.69   129.54
          (Kelvin)            184.93   232.36   294.55   306.08   314.53
                              349.27   350.66   372.35   413.54   444.47
                              461.10   526.74   534.48   556.11   585.29
                              675.24   677.09   737.28   768.15   798.91
                              833.80   837.13   893.26   927.79   963.98
                             1035.55  1052.23  1100.58  1147.41  1154.21
                             1180.85  1280.67  1296.00  1362.35  1420.79
                             1436.38  1533.44  1544.51  1548.84  1594.19
                             1625.39  1632.27  1666.72  1710.80  1751.50
                             1758.61  1764.47  1839.62  1846.31  1890.98
                             1905.07  1933.26  2002.88  2076.69  2085.52
                             2099.57  2137.52  2173.34  2178.04  2178.85
                             2185.24  2194.84  2200.69  2207.83  2221.61
                             2357.00  2385.70  2534.23  4357.21  4375.59
                             4418.49  4485.08  4490.00  4513.63  4520.55
                             4557.61  4583.63  4593.95  4617.56  4679.76
                             4879.93  5298.10

 Zero-point correction=                           0.245487 (Hartree/Particle)
 Thermal correction to Energy=                    0.262361
 Thermal correction to Enthalpy=                  0.263305
 Thermal correction to Gibbs Free Energy=         0.200004
 Sum of electronic and zero-point Energies=          -1197.849207
 Sum of electronic and thermal Energies=             -1197.832333
 Sum of electronic and thermal Enthalpies=           -1197.831389
 Sum of electronic and thermal Free Energies=        -1197.894690

                     E (Thermal)             CV                S
                      KCal/Mol        Cal/Mol-Kelvin    Cal/Mol-Kelvin
 Total                  164.634             63.515            133.229
 Electronic               0.000              0.000              0.000
 Translational            0.889              2.981             42.544
 Rotational               0.889              2.981             33.074
 Vibrational            162.857             57.553             57.611
 Vibration     1          0.593              1.986              6.639
 Vibration     2          0.595              1.980              5.076
 Vibration     3          0.596              1.977              4.722
 Vibration     4          0.598              1.970              4.213
 Vibration     5          0.602              1.956              3.659
 Vibration     6          0.611              1.925              2.968
 Vibration     7          0.622              1.890              2.532
 Vibration     8          0.640              1.833              2.090
 Vibration     9          0.644              1.821              2.020
 Vibration    10          0.646              1.813              1.971
 Vibration    11          0.659              1.775              1.783
 Vibration    12          0.659              1.773              1.776
 Vibration    13          0.668              1.748              1.670
 Vibration    14          0.685              1.697              1.489
 Vibration    15          0.698              1.657              1.368
 Vibration    16          0.706              1.634              1.308
 Vibration    17          0.739              1.542              1.096
 Vibration    18          0.743              1.531              1.074
 Vibration    19          0.755              1.499              1.014
 Vibration    20          0.772              1.455              0.938
 Vibration    21          0.826              1.318              0.739
 Vibration    22          0.828              1.315              0.736
 Vibration    23          0.868              1.222              0.628
 Vibration    24          0.889              1.175              0.579
 Vibration    25          0.911              1.128              0.533
 Vibration    26          0.936              1.076              0.486
 Vibration    27          0.939              1.071              0.482

 Optimization completed.
    -- Stationary point found.
 Normal termination of Gaussian 16 at Fri Dec 11 14:00:19 2020.

 ----------------------------------------------------------------------
 # B3LYP/6-311++G(d,p) empiricaldispersion=gd3bj scf=xqc pop=npa geom=c
 heck
 ----------------------------------------------------------------------

 --------------------------------------
 CID_60320538_JID_7968_Energie_neutraal
 --------------------------------------
 Structure from the checkpoint file:  "JID_7968.chk"
 Charge =  0 Multiplicity = 1

 SCF Done:  E(RB3LYP) =  -1198.35644876     A.U. after   16 cycles
 Normal termination of Gaussian 16 at Fri Dec 11 14:06:23 2020.

 ----------------------------------------------------------------------
 # B3LYP/6-311++G(d,p) empiricaldispersion=gd3bj scf=xqc pop=npa geom=c
 heck
 ----------------------------------------------------------------------

 ------------------------------------
 CID_60320538_JID_7968_Energie_kation
 ------------------------------------
 Structure from the checkpoint file:  "JID_7968.chk"
 Charge =  1 Multiplicity = 2

 SCF Done:  E(UB3LYP) =  -1198.05188123     A.U. after   25 cycles
 Normal termination of Gaussian 16 at Fri Dec 11 14:19:26 2020.
 Gaussian 16:  ES64L-G16RevA.03 25-Dec-2016

 ----------------------------------------------------------------------
 # B3LYP/6-311++G(d,p) empiricaldispersion=gd3bj scf=xqc pop=npa geom=c
 heck
 ----------------------------------------------------------------------

 -----------------------------------
 CID_60320538_JID_7968_Energie_anion
 -----------------------------------
 Structure from the checkpoint file:  "JID_7968.chk"
 Charge = -1 Multiplicity = 2

                         Standard orientation:
 ---------------------------------------------------------------------
 Center     Atomic      Atomic             Coordinates (Angstroms)
 Number     Number       Type             X           Y           Z
 ---------------------------------------------------------------------
      1          6           0        4.398112    0.600865   -0.080862
      2          6           0        2.916475    0.902570   -0.049240
      3          6           0        1.892723   -0.087230   -0.102209
      4          6           0        0.526308    0.327433   -0.110144
      5          6           0        0.202224    1.688204   -0.039394
      6          6           0        1.210189    2.632824    0.038082
      7          6           0        2.549056    2.245226    0.022973
      8          7           0       -0.504713   -0.616420   -0.224881
      9         16           0       -1.991629   -0.493886    0.545926
     10          8           0       -2.517126   -1.859157    0.510421
     11          8           0       -1.898534    0.245015    1.800990
     12          7           0       -2.809621    0.527625   -0.532756
     13          6           0       -3.031149   -0.077721   -1.851321
     14          6           0       -4.023047    1.119839    0.049821
     15          6           0        2.181513   -1.537166   -0.139416
     16          8           0        1.364448   -2.425119   -0.371977
     17          8           0        3.459837   -1.883038    0.128261
     18          1           0        4.724413    0.074435    0.820265
     19          1           0        4.671755   -0.032271   -0.928851
     20          1           0        4.957883    1.537252   -0.154230
     21          1           0       -0.837909    1.983853   -0.065284
     22          1           0        0.952445    3.686700    0.092225
     23          1           0        3.327994    3.000208    0.061615
     24          1           0       -0.188887   -1.589032   -0.289434
     25          1           0       -3.766477   -0.892800   -1.818396
     26          1           0       -3.390415    0.708896   -2.520719
     27          1           0       -2.084114   -0.459538   -2.235861
     28          1           0       -4.831278    0.384844    0.174819
     29          1           0       -3.780282    1.561324    1.015919
     30          1           0       -4.362816    1.906743   -0.629351
     31          1           0        3.470650   -2.857553    0.074633
 ---------------------------------------------------------------------

 SCF Done:  E(UB3LYP) =  -1198.36803679     A.U. after   32 cycles

 The electronic state is 2-A.
 Alpha  occ. eigenvalues --  -88.96294 -19.01601 -19.00639 -19.00566 -18.94512
 Alpha  occ. eigenvalues --  -14.24687 -14.21030 -10.12684 -10.11290 -10.10820
 Alpha  occ. eigenvalues --  -10.07153 -10.03573 -10.03322 -10.02903 -10.02115
 Alpha  occ. eigenvalues --  -10.01987 -10.01521  -8.02242  -5.98498  -5.98489
 Alpha  occ. eigenvalues --   -5.98429  -1.01700  -0.95851  -0.90115  -0.86051
 Alpha  occ. eigenvalues --   -0.84058  -0.80420  -0.70705  -0.63476  -0.63054
 Alpha  occ. eigenvalues --   -0.61925  -0.59179  -0.55386  -0.51577  -0.49421
 Alpha  occ. eigenvalues --   -0.45634  -0.45094  -0.41949  -0.39815  -0.38699
 Alpha  occ. eigenvalues --   -0.37403  -0.37102  -0.36157  -0.34784  -0.33727
 Alpha  occ. eigenvalues --   -0.32253  -0.31761  -0.31457  -0.30905  -0.29805
 Alpha  occ. eigenvalues --   -0.29175  -0.27924  -0.27424  -0.26734  -0.25401
 Alpha  occ. eigenvalues --   -0.24321  -0.23865  -0.23578  -0.21504  -0.21256
 Alpha  occ. eigenvalues --   -0.20236  -0.19738  -0.18270  -0.17892  -0.15602
 Alpha  occ. eigenvalues --   -0.13174  -0.11271  -0.08836   0.04702
 Alpha virt. eigenvalues --    0.06427   0.08771   0.08909   0.09547   0.09973
 Alpha virt. eigenvalues --    0.10727   0.11852   0.12365   0.12592   0.12847
 Alpha virt. eigenvalues --    0.13061   0.13318   0.14191   0.14811   0.15526

  Beta  occ. eigenvalues --  -88.96285 -19.01484 -19.00631 -19.00556 -18.94156
  Beta  occ. eigenvalues --  -14.24685 -14.21011 -10.12307 -10.11283 -10.10818
  Beta  occ. eigenvalues --  -10.06902 -10.03348 -10.03310 -10.02803 -10.02219
  Beta  occ. eigenvalues --  -10.02062 -10.01129  -8.02232  -5.98492  -5.98480
  Beta  occ. eigenvalues --   -5.98407  -1.01662  -0.95434  -0.90093  -0.85515
  Beta  occ. eigenvalues --   -0.84043  -0.80237  -0.70332  -0.63350  -0.62781
  Beta  occ. eigenvalues --   -0.61624  -0.58954  -0.55209  -0.51215  -0.49041
  Beta  occ. eigenvalues --   -0.45430  -0.44936  -0.41817  -0.39742  -0.38617
  Beta  occ. eigenvalues --   -0.37274  -0.36909  -0.36038  -0.34493  -0.33667
  Beta  occ. eigenvalues --   -0.32225  -0.31686  -0.30940  -0.30320  -0.29300
  Beta  occ. eigenvalues --   -0.29124  -0.27352  -0.27182  -0.26481  -0.25051
  Beta  occ. eigenvalues --   -0.24224  -0.23720  -0.23252  -0.21330  -0.21144
  Beta  occ. eigenvalues --   -0.20079  -0.19634  -0.17571  -0.16485  -0.15501
  Beta  occ. eigenvalues --   -0.12833  -0.09641  -0.08048
  Beta virt. eigenvalues --    0.06416   0.08691   0.08879   0.09482   0.09947
  Beta virt. eigenvalues --    0.10668   0.11095   0.11806   0.12390   0.12717
  Beta virt. eigenvalues --    0.12769   0.13024   0.13394   0.14282   0.14790

 Mulliken charges and spin densities:
               1          2
     1  C   -0.517161  -0.014502
     2  C    0.748503   0.191902
     3  C   -0.108035   0.122963
     4  C    0.141507   0.093225
     5  C   -0.177100  -0.109677
     6  C   -0.655990   0.392088
     7  C   -0.870511  -0.092981
     8  N   -0.482539   0.009490
     9  S    0.459133   0.017935
    10  O   -0.145078   0.001343
    11  O   -0.235920   0.001190
    12  N   -0.211202   0.029572
    13  C   -0.351768  -0.062306
    14  C   -0.222339  -0.112807
    15  C    0.122843   0.196196
    16  O   -0.459222   0.120453
    17  O   -0.234078   0.017809
    18  H    0.153329   0.012340
    19  H    0.150411   0.009785
    20  H    0.112681   0.000461
    21  H    0.201274  -0.005785
    22  H    0.106239  -0.015405
    23  H    0.041076   0.006002
    24  H    0.426482   0.000290
    25  H    0.139072   0.019737
    26  H    0.102175   0.037650
    27  H    0.186712   0.003353
    28  H    0.098785   0.039355
    29  H    0.148637   0.026293
    30  H    0.063098   0.065289
    31  H    0.268985  -0.001255
 Sum of Mulliken charges =  -1.00000   1.00000

 Dipole moment (field-independent basis, Debye):
    X=             -3.3853    Y=              1.6195    Z=             -2.4477  Tot=              4.4804
 Quadrupole moment (field-independent basis, Debye-Ang):
   XX=           -135.3534   YY=           -132.5193   ZZ=           -121.6615
   XY=             -9.2504   XZ=              7.1217   YZ=             -0.5514

 Summary of Natural Population Analysis:

                                       Natural Population
                Natural  -----------------------------------------------
    Atom  No    Charge         Core      Valence    Rydberg      Total
 -----------------------------------------------------------------------
      C    1   -0.29441      0.99965     2.28915    0.00561     3.29441
      C    2    0.06212      0.99939     1.93024    0.00824     2.93788
      C    3   -0.08538      0.99942     2.07668    0.00928     3.08538
      C    4    0.14377      0.99948     1.84511    0.01164     2.85623
      C    5   -0.16370      0.99956     2.14977    0.01438     3.16370
      C    6    0.02416      0.99958     1.97006    0.00620     2.97584
      C    7   -0.16798      0.99957     2.15175    0.01666     3.16798
      N    8   -0.43198      0.99965     2.92088    0.01146     3.93198
      S    9    1.17107      4.99929     1.72431    0.10533     6.82893
      O   10   -0.46422      0.99990     3.45947    0.00484     4.46422
      O   11   -0.45564      0.99990     3.44970    0.00603     4.45564
      N   12   -0.36559      0.99976     2.85181    0.01402     3.86559
      C   13   -0.18391      0.99965     2.17642    0.00784     3.18391
      C   14   -0.18379      0.99965     2.17664    0.00751     3.18379
      C   15    0.44850      0.99966     1.52905    0.02279     2.55150
      O   16   -0.32354      0.99986     3.31583    0.00784     4.32354
      O   17   -0.34759      0.99988     3.34046    0.00725     4.34759
      H   18    0.10663      0.00000     0.39230    0.00107     0.39337
      H   19    0.10445      0.00000     0.39452    0.00103     0.39555
      H   20    0.08846      0.00000     0.41047    0.00107     0.41154
      H   21    0.10110      0.00000     0.39650    0.00239     0.39890
      H   22    0.07969      0.00000     0.41849    0.00182     0.42031
      H   23    0.08791      0.00000     0.41068    0.00141     0.41209
      H   24    0.22989      0.00000     0.26814    0.00197     0.27011
      H   25    0.08986      0.00000     0.40845    0.00169     0.41014
      H   26    0.09334      0.00000     0.40541    0.00124     0.40666
      H   27    0.11314      0.00000     0.38572    0.00114     0.38686
      H   28    0.08605      0.00000     0.41194    0.00201     0.41395
      H   29    0.11229      0.00000     0.38637    0.00134     0.38771
      H   30    0.09417      0.00000     0.40463    0.00120     0.40583
      H   31    0.23149      0.00000     0.26553    0.00299     0.26851
 =======================================================================
   * Total *    0.00036     20.99385    46.71649    0.28930    67.99964

 Normal termination of Gaussian 16 at Fri Dec 11 14:36:04 2020.
