 Gaussian 16, Revision A.03,

 -----------------------------------------------------------
 # opt freq B3LYP/6-31G(d) empiricaldispersion=gd3bj scf=xqc
 -----------------------------------------------------------

 -------------------------------
 CID_115239898_JID_7701_neutraal
 -------------------------------
 Symbolic Z-matrix:
 Charge =  0 Multiplicity = 1

 SCF Done:  E(RB3LYP) =  -1075.55461371     A.U. after   14 cycles
 SCF Done:  E(RB3LYP) =  -1075.55906983     A.U. after   12 cycles
 SCF Done:  E(RB3LYP) =  -1075.55918300     A.U. after   12 cycles
 SCF Done:  E(RB3LYP) =  -1075.56006802     A.U. after   12 cycles
 SCF Done:  E(RB3LYP) =  -1075.56038051     A.U. after   11 cycles
 SCF Done:  E(RB3LYP) =  -1075.56050934     A.U. after   11 cycles
 SCF Done:  E(RB3LYP) =  -1075.56057257     A.U. after   11 cycles
 SCF Done:  E(RB3LYP) =  -1075.56059218     A.U. after   10 cycles
 SCF Done:  E(RB3LYP) =  -1075.56060809     A.U. after   11 cycles
 SCF Done:  E(RB3LYP) =  -1075.56061711     A.U. after   11 cycles
 SCF Done:  E(RB3LYP) =  -1075.56072066     A.U. after   10 cycles
 SCF Done:  E(RB3LYP) =  -1075.56072067     A.U. after    7 cycles
 SCF Done:  E(RB3LYP) =  -1075.56072071     A.U. after    7 cycles
 SCF Done:  E(RB3LYP) =  -1075.56072071     A.U. after    7 cycles
 Optimization completed.
    -- Stationary point found.
 Normal termination of Gaussian 16 at Fri Dec 11 13:57:01 2020.

 --------------------------------------------------------------------
 #N Geom=AllCheck Guess=TCheck SCRF=Check GenChk RB3LYP/6-31G(d) Freq
 --------------------------------------------------------------------

 Structure from the checkpoint file:  "JID_7701.chk"
 -------------------------------
 CID_115239898_JID_7701_neutraal
 -------------------------------
 Charge =  0 Multiplicity = 1

 SCF Done:  E(RB3LYP) =  -1075.56072071     A.U. after    1 cycles

  Exact polarizability: 161.283  15.880 174.861   4.545  -4.006 159.524
 Approx polarizability: 209.191  25.267 263.033  11.776 -10.733 270.803

                      1                      2                      3
                      A                      A                      A
 Frequencies --      8.2506                34.1934                50.4560
 Red. masses --      4.4635                 4.0836                 2.6464
 Frc consts  --      0.0002                 0.0028                 0.0040
 IR Inten    --      0.0192                 0.2953                 0.0901

                      4                      5                      6
                      A                      A                      A
 Frequencies --     84.3122                97.8485                98.9188
 Red. masses --      3.3430                 2.0563                 1.9536
 Frc consts  --      0.0140                 0.0116                 0.0113
 IR Inten    --      0.9353                 0.3879                 0.4097

                      7                      8                      9
                      A                      A                      A
 Frequencies --    110.2972               171.0010               191.4278
 Red. masses --      3.5313                 3.7092                 2.9971
 Frc consts  --      0.0253                 0.0639                 0.0647
 IR Inten    --      1.0694                 0.8024                 0.6782

                     10                     11                     12
                      A                      A                      A
 Frequencies --    218.5825               226.9064               236.1016
 Red. masses --      2.4423                 3.1080                 1.1772
 Frc consts  --      0.0687                 0.0943                 0.0387
 IR Inten    --      2.7145                 2.7166                 0.1966

                     13                     14                     15
                      A                      A                      A
 Frequencies --    265.1788               283.1591               293.6603
 Red. masses --      2.3863                 1.7223                 1.8034
 Frc consts  --      0.0989                 0.0814                 0.0916
 IR Inten    --      5.9830                17.8622                42.3126

                     16                     17                     18
                      A                      A                      A
 Frequencies --    333.2631               343.1324               365.2494
 Red. masses --      2.1852                 2.3531                 3.0783
 Frc consts  --      0.1430                 0.1632                 0.2420
 IR Inten    --      7.9130                 2.6086                31.6157

                     19                     20                     21
                      A                      A                      A
 Frequencies --    390.7718               411.4109               434.2303
 Red. masses --      2.3596                 2.8837                 2.2557
 Frc consts  --      0.2123                 0.2876                 0.2506
 IR Inten    --      2.8829                 4.3116                 4.9840

                     22                     23                     24
                      A                      A                      A
 Frequencies --    460.7639               468.9590               482.0905
 Red. masses --      3.0416                 2.6751                 2.3582
 Frc consts  --      0.3805                 0.3466                 0.3229
 IR Inten    --      1.3831                 2.4488                 2.2608

                     25                     26                     27
                      A                      A                      A
 Frequencies --    491.7780               524.0014               556.5627
 Red. masses --      3.9472                 3.7308                 4.6707
 Frc consts  --      0.5624                 0.6036                 0.8524
 IR Inten    --      3.4634                 5.4066                 0.0483

                     28                     29                     30
                      A                      A                      A
 Frequencies --    614.8332               652.7070               670.5520
 Red. masses --      2.9461                 2.5114                 5.4038
 Frc consts  --      0.6562                 0.6304                 1.4316
 IR Inten    --      7.5496                 0.6896                 2.3146

                     31                     32                     33
                      A                      A                      A
 Frequencies --    709.7181               720.3309               802.3260
 Red. masses --      4.8103                 1.3197                 1.4893
 Frc consts  --      1.4276                 0.4035                 0.5649
 IR Inten    --      4.2397                34.0587                 0.1695

                     34                     35                     36
                      A                      A                      A
 Frequencies --    815.6429               835.8260               851.1072
 Red. masses --      2.5377                 5.2271                 2.8627
 Frc consts  --      0.9947                 2.1515                 1.2218
 IR Inten    --      1.6613                 3.0091                 7.6329

                     37                     38                     39
                      A                      A                      A
 Frequencies --    872.3743               885.3390               897.9295
 Red. masses --      3.3126                 1.2672                 2.1470
 Frc consts  --      1.4854                 0.5852                 1.0199
 IR Inten    --     12.6864                 1.2823                 0.5229

                     40                     41                     42
                      A                      A                      A
 Frequencies --    936.0719               955.0757               964.8518
 Red. masses --      2.6694                 1.6808                 1.9710
 Frc consts  --      1.3781                 0.9033                 1.0811
 IR Inten    --      3.7576                 1.3749                 5.3119

                     43                     44                     45
                      A                      A                      A
 Frequencies --    979.4668               997.7099              1001.5077
 Red. masses --      1.7994                 2.5675                 1.6290
 Frc consts  --      1.0171                 1.5058                 0.9627
 IR Inten    --     12.6417                 8.3415                 3.9437

                     46                     47                     48
                      A                      A                      A
 Frequencies --   1045.7618              1059.0812              1070.1798
 Red. masses --      1.9526                 1.7982                 1.6588
 Frc consts  --      1.2581                 1.1883                 1.1193
 IR Inten    --      2.2036                30.7625                12.2113

                     49                     50                     51
                      A                      A                      A
 Frequencies --   1072.7245              1094.3480              1098.8856
 Red. masses --      1.7999                 2.5253                 1.3532
 Frc consts  --      1.2203                 1.7818                 0.9627
 IR Inten    --     41.7382               115.7524                 1.1481

                     52                     53                     54
                      A                      A                      A
 Frequencies --   1102.0848              1120.5032              1127.9806
 Red. masses --      2.0194                 1.2932                 1.9761
 Frc consts  --      1.4451                 0.9566                 1.4814
 IR Inten    --      4.5338                 0.9366                 6.4063

                     55                     56                     57
                      A                      A                      A
 Frequencies --   1150.2220              1167.3133              1192.6283
 Red. masses --      1.8622                 1.3922                 1.9672
 Frc consts  --      1.4516                 1.1177                 1.6486
 IR Inten    --     18.3737                 5.8030                 5.1425

                     58                     59                     60
                      A                      A                      A
 Frequencies --   1206.6887              1220.2130              1225.7886
 Red. masses --      2.4757                 1.3677                 1.3733
 Frc consts  --      2.1239                 1.1998                 1.2157
 IR Inten    --      4.2601                 3.0888                 0.3937

                     61                     62                     63
                      A                      A                      A
 Frequencies --   1245.5252              1263.6869              1297.0477
 Red. masses --      1.5336                 1.8951                 1.2381
 Frc consts  --      1.4017                 1.7830                 1.2272
 IR Inten    --     11.3625                 3.2001                 3.5418

                     64                     65                     66
                      A                      A                      A
 Frequencies --   1309.1373              1316.3785              1344.0940
 Red. masses --      1.4199                 1.4820                 1.5736
 Frc consts  --      1.4338                 1.5131                 1.6750
 IR Inten    --      5.8628                26.2519                 2.6648

                     67                     68                     69
                      A                      A                      A
 Frequencies --   1350.1993              1356.8039              1386.0498
 Red. masses --      1.3376                 1.4080                 1.3633
 Frc consts  --      1.4367                 1.5272                 1.5431
 IR Inten    --      0.9660                 3.6774                 6.4928

                     70                     71                     72
                      A                      A                      A
 Frequencies --   1393.3646              1398.4042              1403.7228
 Red. masses --      1.4290                 1.4061                 1.4436
 Frc consts  --      1.6345                 1.6200                 1.6760
 IR Inten    --      5.3899                18.6141                 2.6788

                     73                     74                     75
                      A                      A                      A
 Frequencies --   1410.8119              1415.5135              1419.0267
 Red. masses --      1.4260                 2.6001                 1.4956
 Frc consts  --      1.6723                 3.0695                 1.7744
 IR Inten    --      1.9514                 1.8916                35.5298

                     76                     77                     78
                      A                      A                      A
 Frequencies --   1435.2451              1446.5554              1448.3095
 Red. masses --      1.3118                 1.3196                 1.2817
 Frc consts  --      1.5921                 1.6268                 1.5840
 IR Inten    --      2.1323                 6.1827                53.0524

                     79                     80                     81
                      A                      A                      A
 Frequencies --   1482.3127              1505.5017              1508.9146
 Red. masses --      1.1606                 2.5849                 1.0841
 Frc consts  --      1.5025                 3.4518                 1.4542
 IR Inten    --      0.7413                 5.7612                 0.7396

                     82                     83                     84
                      A                      A                      A
 Frequencies --   1511.0733              1515.2891              1516.6448
 Red. masses --      1.0772                 1.0575                 1.0707
 Frc consts  --      1.4492                 1.4306                 1.4510
 IR Inten    --      9.9234                15.8404                 1.9436

                     85                     86                     87
                      A                      A                      A
 Frequencies --   1519.6526              1525.4076              1527.8838
 Red. masses --      1.0971                 1.2460                 1.1519
 Frc consts  --      1.4928                 1.7082                 1.5844
 IR Inten    --      1.7733                 4.7071                 6.0517

                     88                     89                     90
                      A                      A                      A
 Frequencies --   1530.6241              1534.8768              1545.2164
 Red. masses --      1.1341                 1.0990                 1.0547
 Frc consts  --      1.5655                 1.5255                 1.4838
 IR Inten    --      6.4136                 0.8086                 8.3868

                     91                     92                     93
                      A                      A                      A
 Frequencies --   1630.1176              2950.4539              2961.6814
 Red. masses --      5.7490                 1.0617                 1.0706
 Frc consts  --      9.0008                 5.4453                 5.5329
 IR Inten    --      2.7731                54.2362                75.0866

                     94                     95                     96
                      A                      A                      A
 Frequencies --   3012.4311              3018.2717              3024.0584
 Red. masses --      1.0699                 1.0711                 1.0674
 Frc consts  --      5.7206                 5.7493                 5.7509
 IR Inten    --     10.3010                10.0598                22.4942

                     97                     98                     99
                      A                      A                      A
 Frequencies --   3029.3260              3036.4931              3042.6920
 Red. masses --      1.0704                 1.0869                 1.0795
 Frc consts  --      5.7876                 5.9044                 5.8882
 IR Inten    --     10.3412                31.6584                42.2339

                    100                    101                    102
                      A                      A                      A
 Frequencies --   3043.8768              3050.0365              3052.8685
 Red. masses --      1.0404                 1.0800                 1.0699
 Frc consts  --      5.6794                 5.9196                 5.8751
 IR Inten    --     37.5436                65.1442                23.5163

                    103                    104                    105
                      A                      A                      A
 Frequencies --   3070.0760              3074.9255              3087.2285
 Red. masses --      1.0983                 1.0709                 1.0943
 Frc consts  --      6.0991                 5.9659                 6.1448
 IR Inten    --     44.0264                53.7063                42.1628

                    106                    107                    108
                      A                      A                      A
 Frequencies --   3091.4258              3092.9455              3112.5610
 Red. masses --      1.0963                 1.1002                 1.0959
 Frc consts  --      6.1733                 6.2008                 6.2555
 IR Inten    --     58.1948                27.3484                20.9873

                    109                    110                    111
                      A                      A                      A
 Frequencies --   3121.1467              3124.7523              3136.8482
 Red. masses --      1.1036                 1.0903                 1.0978
 Frc consts  --      6.3341                 6.2725                 6.3644
 IR Inten    --     28.0082                35.6270                16.6849

                    112                    113                    114
                      A                      A                      A
 Frequencies --   3207.9264              3266.3143              3721.0959
 Red. masses --      1.0909                 1.0966                 1.0657
 Frc consts  --      6.6141                 6.8928                 8.6941
 IR Inten    --     10.9781                 1.9256                 5.1847

 - Thermochemistry -
 -------------------
 Temperature   298.150 Kelvin.  Pressure   1.00000 Atm.
 Atom     1 has atomic number  6 and mass  12.00000

 Molecular mass:   253.15004 amu.
 Principal axes and moments of inertia in atomic units:
                           1         2         3
     Eigenvalues --  3182.108046473.453777672.81002
           X            0.99981   0.01412  -0.01371
           Y           -0.01421   0.99988  -0.00688
           Z            0.01361   0.00708   0.99988
 This molecule is an asymmetric top.
 Rotational symmetry number  1.
 Warning -- assumption of classical behavior for rotation
           may cause significant error
 Rotational temperatures (Kelvin)      0.02722     0.01338     0.01129
 Rotational constants (GHZ):           0.56715     0.27879     0.23521
 Zero-point vibrational energy     930533.8 (Joules/Mol)
                                  222.40292 (Kcal/Mol)
 Warning -- explicit consideration of  28 degrees of freedom as
           vibrations may cause significant error
 Vibrational temperatures:     11.87    49.20    72.59   121.31   140.78
          (Kelvin)            142.32   158.69   246.03   275.42   314.49
                              326.47   339.70   381.53   407.40   422.51
                              479.49   493.69   525.51   562.23   591.93
                              624.76   662.94   674.73   693.62   707.56
                              753.92   800.77   884.61   939.10   964.77
                             1021.13  1036.40  1154.37  1173.53  1202.57
                             1224.55  1255.15  1273.81  1291.92  1346.80
                             1374.14  1388.21  1409.23  1435.48  1440.95
                             1504.62  1523.78  1539.75  1543.41  1574.52
                             1581.05  1585.65  1612.15  1622.91  1654.91
                             1679.50  1715.93  1736.16  1755.61  1763.64
                             1792.03  1818.16  1866.16  1883.56  1893.98
                             1933.85  1942.64  1952.14  1994.22  2004.74
                             2011.99  2019.64  2029.84  2036.61  2041.66
                             2065.00  2081.27  2083.79  2132.72  2166.08
                             2170.99  2174.10  2180.16  2182.11  2186.44
                             2194.72  2198.28  2202.23  2208.35  2223.22
                             2345.38  4245.05  4261.20  4334.22  4342.62
                             4350.95  4358.52  4368.84  4377.76  4379.46
                             4388.32  4392.40  4417.15  4424.13  4441.83
                             4447.87  4450.06  4478.28  4490.63  4495.82
                             4513.22  4615.49  4699.50  5353.83

 Zero-point correction=                           0.354422 (Hartree/Particle)
 Thermal correction to Energy=                    0.372146
 Thermal correction to Enthalpy=                  0.373091
 Thermal correction to Gibbs Free Energy=         0.307111
 Sum of electronic and zero-point Energies=          -1075.206299
 Sum of electronic and thermal Energies=             -1075.188574
 Sum of electronic and thermal Enthalpies=           -1075.187630
 Sum of electronic and thermal Free Energies=        -1075.253609

                     E (Thermal)             CV                S
                      KCal/Mol        Cal/Mol-Kelvin    Cal/Mol-Kelvin
 Total                  233.525             68.369            138.865
 Electronic               0.000              0.000              0.000
 Translational            0.889              2.981             42.487
 Rotational               0.889              2.981             33.424
 Vibrational            231.748             62.408             62.954
 Vibration     1          0.593              1.987              8.393
 Vibration     2          0.594              1.983              5.570
 Vibration     3          0.595              1.977              4.799
 Vibration     4          0.601              1.960              3.788
 Vibration     5          0.603              1.951              3.497
 Vibration     6          0.604              1.950              3.476
 Vibration     7          0.606              1.941              3.264
 Vibration     8          0.626              1.878              2.424
 Vibration     9          0.634              1.852              2.214
 Vibration    10          0.646              1.813              1.971
 Vibration    11          0.651              1.800              1.903
 Vibration    12          0.655              1.786              1.832
 Vibration    13          0.671              1.737              1.627
 Vibration    14          0.682              1.705              1.515
 Vibration    15          0.688              1.686              1.453
 Vibration    16          0.715              1.609              1.244
 Vibration    17          0.722              1.589              1.198
 Vibration    18          0.738              1.544              1.100
 Vibration    19          0.758              1.490              0.997
 Vibration    20          0.775              1.445              0.922
 Vibration    21          0.795              1.396              0.845
 Vibration    22          0.819              1.337              0.764
 Vibration    23          0.826              1.319              0.740
 Vibration    24          0.838              1.290              0.704
 Vibration    25          0.848              1.268              0.679
 Vibration    26          0.879              1.197              0.601
 Vibration    27          0.912              1.125              0.531
 Vibration    28          0.974              1.000              0.425

                           ! Non-Optimized Parameters !
 Normal termination of Gaussian 16 at Fri Dec 11 14:15:49 2020.

 ----------------------------------------------------------------------
 # B3LYP/6-311++G(d,p) empiricaldispersion=gd3bj scf=xqc pop=npa geom=c
 heck
 ----------------------------------------------------------------------

 ---------------------------------------
 CID_115239898_JID_7701_Energie_neutraal
 ---------------------------------------
 Structure from the checkpoint file:  "JID_7701.chk"
 Charge =  0 Multiplicity = 1

 SCF Done:  E(RB3LYP) =  -1075.78041647     A.U. after   15 cycles
 Normal termination of Gaussian 16 at Fri Dec 11 14:25:27 2020.

 ----------------------------------------------------------------------
 # B3LYP/6-311++G(d,p) empiricaldispersion=gd3bj scf=xqc pop=npa geom=c
 heck
 ----------------------------------------------------------------------

 -------------------------------------
 CID_115239898_JID_7701_Energie_kation
 -------------------------------------
 Structure from the checkpoint file:  "JID_7701.chk"
 Charge =  1 Multiplicity = 2

 SCF Done:  E(UB3LYP) =  -1075.49660313     A.U. after   33 cycles
 SCF Done:  E(UB3LYP) =  -1075.49660342     a.u. after    3 cycles
 Normal termination of Gaussian 16 at Fri Dec 11 15:35:17 2020.
 Gaussian 16:  ES64L-G16RevA.03 25-Dec-2016

 ----------------------------------------------------------------------
 # B3LYP/6-311++G(d,p) empiricaldispersion=gd3bj scf=xqc pop=npa geom=c
 heck
 ----------------------------------------------------------------------

 ------------------------------------
 CID_115239898_JID_7701_Energie_anion
 ------------------------------------
 Structure from the checkpoint file:  "JID_7701.chk"
 Charge = -1 Multiplicity = 2

                         Standard orientation:
 ---------------------------------------------------------------------
 Center     Atomic      Atomic             Coordinates (Angstroms)
 Number     Number       Type             X           Y           Z
 ---------------------------------------------------------------------
      1          6           0       -2.278176   -1.184225    2.337111
      2          6           0       -2.455541   -0.980158    0.855969
      3          6           0       -2.127922    0.156071    0.155804
      4         16           0       -2.532991    0.005634   -1.540919
      5          6           0       -3.144323   -1.600163   -1.294126
      6          6           0       -3.036908   -1.985329    0.009656
      7          6           0       -1.556439    1.455063    0.643206
      8          7           0       -0.623944    2.043360   -0.314623
      9          6           0       -0.348855    3.440299   -0.019817
     10          6           0        0.588451    1.255920   -0.564494
     11          6           0        1.529718    1.015255    0.649028
     12          6           0        3.008774    1.232171    0.276471
     13          6           0        3.538911    0.130648   -0.653102
     14          6           0        3.368323   -1.255114   -0.023811
     15          6           0        1.906781   -1.501625    0.358289
     16          6           0        1.354847   -0.389816    1.263145
     17          8           0        3.883605   -2.290110   -0.859504
     18          1           0       -3.247409   -1.202288    2.851645
     19          1           0       -1.784319   -2.140917    2.544806
     20          1           0       -1.679646   -0.393246    2.796062
     21          1           0       -3.529217   -2.170356   -2.128877
     22          1           0       -3.352627   -2.956727    0.377130
     23          1           0       -2.367331    2.183297    0.781063
     24          1           0       -1.111782    1.306998    1.643842
     25          1           0        0.154602    3.610682    0.950273
     26          1           0        0.288805    3.856820   -0.806548
     27          1           0       -1.289255    4.002150   -0.008697
     28          1           0        0.272323    0.300914   -0.992660
     29          1           0        1.133129    1.782731   -1.357348
     30          1           0        1.274271    1.753541    1.420818
     31          1           0        3.613354    1.240507    1.194610
     32          1           0        3.137179    2.216984   -0.190357
     33          1           0        4.596062    0.293500   -0.891265
     34          1           0        2.991536    0.152229   -1.608454
     35          1           0        3.984516   -1.305170    0.883644
     36          1           0        1.309630   -1.560329   -0.564392
     37          1           0        1.817414   -2.477841    0.848061
     38          1           0        1.881502   -0.422516    2.227560
     39          1           0        0.299837   -0.586653    1.471743
     40          1           0        3.348196   -2.291083   -1.669526
 ---------------------------------------------------------------------

 SCF Done:  E(UB3LYP) =  -1075.76784158     A.U. after   33 cycles
 SCF Done:  E(UB3LYP) =  -1075.76784158     a.u. after    1 cycles

 The electronic state is 2-A.
 Alpha  occ. eigenvalues --  -88.77806 -19.03663 -14.21393 -10.12879 -10.11065
 Alpha  occ. eigenvalues --  -10.10586 -10.10515 -10.09383 -10.09082 -10.09005
 Alpha  occ. eigenvalues --  -10.08254 -10.07636 -10.07584 -10.07567 -10.07426
 Alpha  occ. eigenvalues --  -10.07352 -10.07052  -7.86408  -5.82695  -5.82325
 Alpha  occ. eigenvalues --   -5.82009  -0.93801  -0.83581  -0.78637  -0.74061
 Alpha  occ. eigenvalues --   -0.67659  -0.66558  -0.65496  -0.65324  -0.60152
 Alpha  occ. eigenvalues --   -0.60003  -0.57410  -0.52612  -0.52461  -0.50730
 Alpha  occ. eigenvalues --   -0.47130  -0.45727  -0.42610  -0.41213  -0.40094
 Alpha  occ. eigenvalues --   -0.39497  -0.38910  -0.36649  -0.35591  -0.35322
 Alpha  occ. eigenvalues --   -0.34271  -0.33277  -0.33133  -0.32082  -0.31707
 Alpha  occ. eigenvalues --   -0.30355  -0.29099  -0.29031  -0.28613  -0.28357
 Alpha  occ. eigenvalues --   -0.27726  -0.27317  -0.26486  -0.26412  -0.25530
 Alpha  occ. eigenvalues --   -0.25134  -0.24515  -0.23092  -0.22350  -0.21739
 Alpha  occ. eigenvalues --   -0.18177  -0.15444  -0.13815  -0.12239   0.04116
 Alpha virt. eigenvalues --    0.05992   0.06317   0.06701   0.07249   0.07326
 Alpha virt. eigenvalues --    0.07918   0.08501   0.08997   0.09258   0.10075
 Alpha virt. eigenvalues --    0.10349   0.10550   0.11160   0.11571   0.12009

  Beta  occ. eigenvalues --  -88.77805 -19.03658 -14.21388 -10.12874 -10.11043
  Beta  occ. eigenvalues --  -10.10579 -10.10508 -10.09376 -10.09046 -10.09005
  Beta  occ. eigenvalues --  -10.08243 -10.07626 -10.07558 -10.07546 -10.07406
  Beta  occ. eigenvalues --  -10.07344 -10.07037  -7.86406  -5.82694  -5.82324
  Beta  occ. eigenvalues --   -5.82007  -0.93790  -0.83564  -0.78623  -0.74037
  Beta  occ. eigenvalues --   -0.67635  -0.66534  -0.65470  -0.65298  -0.60113
  Beta  occ. eigenvalues --   -0.59963  -0.57362  -0.52580  -0.52420  -0.50687
  Beta  occ. eigenvalues --   -0.47103  -0.45690  -0.42575  -0.41180  -0.40060
  Beta  occ. eigenvalues --   -0.39466  -0.38875  -0.36625  -0.35556  -0.35296
  Beta  occ. eigenvalues --   -0.34240  -0.33252  -0.33098  -0.32055  -0.31684
  Beta  occ. eigenvalues --   -0.30321  -0.29067  -0.29003  -0.28591  -0.28328
  Beta  occ. eigenvalues --   -0.27701  -0.27294  -0.26457  -0.26385  -0.25505
  Beta  occ. eigenvalues --   -0.25109  -0.24500  -0.23066  -0.22329  -0.21715
  Beta  occ. eigenvalues --   -0.18163  -0.15427  -0.13782  -0.12207
  Beta virt. eigenvalues --    0.06031   0.06608   0.06768   0.07023   0.07492
  Beta virt. eigenvalues --    0.07675   0.08452   0.08980   0.09394   0.09637
  Beta virt. eigenvalues --    0.10412   0.10665   0.10806   0.11384   0.11765

 Mulliken charges and spin densities:
               1          2
     1  C    1.343756  -2.098470
     2  C   -1.079295   1.279846
     3  C    0.004354   0.387800
     4  S    0.300035  -0.387165
     5  C   -0.203646  -0.193175
     6  C   -0.450680   0.468491
     7  C    0.400501  -1.003213
     8  N    0.044700   0.140081
     9  C    0.833110  -1.096142
    10  C    0.068755  -0.892125
    11  C   -0.769506   1.192666
    12  C    0.029604  -0.642042
    13  C    0.267397  -0.373511
    14  C   -0.425022  -0.404474
    15  C   -0.723856   0.522614
    16  C    0.087698  -0.282387
    17  O   -0.203721   0.023449
    18  H   -0.320455   0.506767
    19  H   -0.076907   0.240553
    20  H   -0.639621   0.773795
    21  H    0.020894   0.200206
    22  H   -0.371259   0.544826
    23  H   -0.295746   0.487685
    24  H    0.328151  -0.207984
    25  H   -0.229780   0.358320
    26  H   -0.213062   0.343240
    27  H   -0.192808   0.344686
    28  H   -0.027943   0.094378
    29  H    0.251031  -0.035661
    30  H   -0.134281   0.369039
    31  H   -0.130280   0.274693
    32  H   -0.285843   0.460083
    33  H   -0.029862   0.212038
    34  H   -0.015819   0.152954
    35  H    0.191567  -0.005021
    36  H    0.111889   0.022639
    37  H   -0.068309   0.246176
    38  H   -0.366782   0.553845
    39  H    1.765791  -1.616485
    40  H    0.205247   0.036983
 Sum of Mulliken charges =  -1.00000   1.00000

 Dipole moment (field-independent basis, Debye):
    X=             -0.0135    Y=             -2.3159    Z=             -4.6575  Tot=              5.2015
 Quadrupole moment (field-independent basis, Debye-Ang):
   XX=           -187.0475   YY=           -176.1944   ZZ=           -155.9992
   XY=             -0.5130   XZ=              7.3923   YZ=              2.5037

 Summary of Natural Population Analysis:

                                       Natural Population
                Natural  -----------------------------------------------
    Atom  No    Charge         Core      Valence    Rydberg      Total
 -----------------------------------------------------------------------
      C    1   -0.29229      0.99963     2.28673    0.00594     3.29229
      C    2   -0.04639      0.99941     2.03538    0.01159     3.04639
      C    3   -0.09942      0.99942     2.08588    0.01412     3.09942
      S    4    0.20816      4.99941     2.77246    0.01998     7.79184
      C    5   -0.19511      0.99953     2.18515    0.01043     3.19511
      C    6   -0.12175      0.99948     2.11140    0.01087     3.12175
      C    7   -0.10016      0.99954     2.08731    0.01331     3.10016
      N    8   -0.27768      0.99973     2.76472    0.01323     3.77768
      C    9   -0.17535      0.99964     2.16732    0.00840     3.17535
      C   10   -0.08496      0.99958     2.07316    0.01222     3.08496
      C   11   -0.12639      0.99958     2.11589    0.01092     3.12639
      C   12   -0.18708      0.99961     2.17750    0.00996     3.18708
      C   13   -0.20318      0.99961     2.19379    0.00979     3.20318
      C   14    0.06514      0.99953     1.92301    0.01232     2.93486
      C   15   -0.20256      0.99961     2.19314    0.00981     3.20256
      C   16   -0.19049      0.99960     2.18170    0.00919     3.19049
      O   17   -0.37018      0.99990     3.36366    0.00662     4.37018
      H   18    0.10701      0.00000     0.39178    0.00121     0.39299
      H   19    0.10543      0.00000     0.39316    0.00140     0.39457
      H   20    0.10615      0.00000     0.39237    0.00148     0.39385
      H   21    0.10693      0.00000     0.39229    0.00078     0.39307
      H   22    0.10554      0.00000     0.39351    0.00096     0.39446
      H   23    0.10573      0.00000     0.39267    0.00160     0.39427
      H   24    0.09376      0.00000     0.40429    0.00195     0.40624
      H   25    0.08328      0.00000     0.41501    0.00171     0.41672
      H   26    0.09605      0.00000     0.40279    0.00116     0.40395
      H   27    0.09599      0.00000     0.40279    0.00122     0.40401
      H   28    0.09815      0.00000     0.39982    0.00203     0.40185
      H   29    0.09508      0.00000     0.40370    0.00122     0.40492
      H   30    0.10394      0.00000     0.39345    0.00260     0.39606
      H   31    0.09719      0.00000     0.40149    0.00132     0.40281
      H   32    0.10127      0.00000     0.39753    0.00120     0.39873
      H   33    0.10261      0.00000     0.39641    0.00098     0.39739
      H   34    0.09143      0.00000     0.40730    0.00127     0.40857
      H   35    0.08412      0.00000     0.41448    0.00140     0.41588
      H   36    0.09208      0.00000     0.40635    0.00157     0.40792
      H   37    0.10426      0.00000     0.39473    0.00101     0.39574
      H   38    0.09683      0.00000     0.40176    0.00141     0.40317
      H   39    0.10386      0.00000     0.39342    0.00272     0.39614
      H   40    0.22301      0.00000     0.27431    0.00269     0.27699
 =======================================================================
   * Total *    0.00000     20.99281    47.78360    0.22359    69.00000

 Normal termination of Gaussian 16 at Fri Dec 11 16:03:44 2020.
