 Gaussian 16, Revision A.03,

 -----------------------------------------------------------
 # opt freq B3LYP/6-31G(d) empiricaldispersion=gd3bj scf=xqc
 -----------------------------------------------------------

 -------------------------------
 CID_121651370_JID_6286_neutraal
 -------------------------------
 Symbolic Z-matrix:
 Charge =  0 Multiplicity = 1

 SCF Done:  E(RB3LYP) =  -751.649850580     A.U. after   14 cycles
 SCF Done:  E(RB3LYP) =  -751.648807237     A.U. after   12 cycles
 SCF Done:  E(RB3LYP) =  -751.652398719     A.U. after   12 cycles
 SCF Done:  E(RB3LYP) =  -751.653466634     A.U. after   12 cycles
 SCF Done:  E(RB3LYP) =  -751.654217114     A.U. after   12 cycles
 SCF Done:  E(RB3LYP) =  -751.654810620     A.U. after   12 cycles
 SCF Done:  E(RB3LYP) =  -751.655714136     A.U. after   11 cycles
 SCF Done:  E(RB3LYP) =  -751.656853381     A.U. after   12 cycles
 SCF Done:  E(RB3LYP) =  -751.658047998     A.U. after   12 cycles
 SCF Done:  E(RB3LYP) =  -751.659506689     A.U. after   13 cycles
 SCF Done:  E(RB3LYP) =  -751.660557639     A.U. after    9 cycles
 SCF Done:  E(RB3LYP) =  -751.660558327     A.U. after    8 cycles
 SCF Done:  E(RB3LYP) =  -751.660558431     A.U. after    7 cycles
 SCF Done:  E(RB3LYP) =  -751.660558515     A.U. after    7 cycles
 SCF Done:  E(RB3LYP) =  -751.660558542     A.U. after    7 cycles
 Optimization completed.
    -- Stationary point found.
 Normal termination of Gaussian 16 at Thu Dec 10 22:10:28 2020.

 --------------------------------------------------------------------
 #N Geom=AllCheck Guess=TCheck SCRF=Check GenChk RB3LYP/6-31G(d) Freq
 --------------------------------------------------------------------

 Structure from the checkpoint file:  "JID_6286.chk"
 -------------------------------
 CID_121651370_JID_6286_neutraal
 -------------------------------
 Charge =  0 Multiplicity = 1

 SCF Done:  E(RB3LYP) =  -751.660558542     A.U. after    1 cycles

  Exact polarizability: 162.948  -3.838 140.914  -2.667   5.376 115.721
 Approx polarizability: 205.913 -14.695 206.222  -7.170  15.764 173.007

                      1                      2                      3
                      A                      A                      A
 Frequencies --     24.7136                30.6209                32.0462
 Red. masses --      3.9462                 3.1345                 3.1155
 Frc consts  --      0.0014                 0.0017                 0.0019
 IR Inten    --      0.1082                 0.0075                 0.1251

                      4                      5                      6
                      A                      A                      A
 Frequencies --     49.8051                57.0639                71.5712
 Red. masses --      8.6248                 6.0592                 3.4432
 Frc consts  --      0.0126                 0.0116                 0.0104
 IR Inten    --      0.0689                 1.0178                 0.8861

                      7                      8                      9
                      A                      A                      A
 Frequencies --    103.4410               128.8088               154.3817
 Red. masses --      2.1990                 3.1162                 4.3854
 Frc consts  --      0.0139                 0.0305                 0.0616
 IR Inten    --      0.5920                 1.5166                 2.0335

                     10                     11                     12
                      A                      A                      A
 Frequencies --    178.3165               203.4317               209.2782
 Red. masses --      2.9788                 1.3837                 1.1010
 Frc consts  --      0.0558                 0.0337                 0.0284
 IR Inten    --      1.9650                 0.1419                 1.0119

                     13                     14                     15
                      A                      A                      A
 Frequencies --    227.1764               255.5887               265.9235
 Red. masses --      2.3495                 2.7199                 1.0567
 Frc consts  --      0.0714                 0.1047                 0.0440
 IR Inten    --      0.4022                 0.3359                 0.0350

                     16                     17                     18
                      A                      A                      A
 Frequencies --    269.4717               271.0794               309.5123
 Red. masses --      1.7684                 1.7398                 2.8461
 Frc consts  --      0.0757                 0.0753                 0.1606
 IR Inten    --      0.1101                 0.9684                 0.1969

                     19                     20                     21
                      A                      A                      A
 Frequencies --    333.6977               339.4987               351.6593
 Red. masses --      2.6604                 2.7435                 2.4737
 Frc consts  --      0.1745                 0.1863                 0.1802
 IR Inten    --      2.7215                 0.0957                 1.2796

                     22                     23                     24
                      A                      A                      A
 Frequencies --    386.0488               433.9970               438.4509
 Red. masses --      2.5931                 2.3349                 2.4010
 Frc consts  --      0.2277                 0.2591                 0.2720
 IR Inten    --      2.3554                 0.8023                 0.4318

                     25                     26                     27
                      A                      A                      A
 Frequencies --    473.9938               492.5442               534.9247
 Red. masses --      2.6108                 2.3122                 3.4163
 Frc consts  --      0.3456                 0.3305                 0.5760
 IR Inten    --      1.9768                 8.6895                16.9723

                     28                     29                     30
                      A                      A                      A
 Frequencies --    560.0335               589.1941               628.8986
 Red. masses --      3.2426                 3.7902                 1.2195
 Frc consts  --      0.5992                 0.7752                 0.2842
 IR Inten    --      5.2861                38.9790                81.3190

                     31                     32                     33
                      A                      A                      A
 Frequencies --    681.1555               725.7798               754.0829
 Red. masses --      2.3629                 3.4605                 1.5661
 Frc consts  --      0.6459                 1.0740                 0.5247
 IR Inten    --     17.5345                26.3719                89.2992

                     34                     35                     36
                      A                      A                      A
 Frequencies --    787.3123               787.9864               824.6500
 Red. masses --      1.2894                 4.5646                 2.5156
 Frc consts  --      0.4709                 1.6699                 1.0079
 IR Inten    --      3.7056                36.9805                 5.4503

                     37                     38                     39
                      A                      A                      A
 Frequencies --    863.1070               867.9609               885.4460
 Red. masses --      2.3759                 1.8153                 2.8673
 Frc consts  --      1.0428                 0.8058                 1.3245
 IR Inten    --      8.2237                 0.4690                 1.4744

                     40                     41                     42
                      A                      A                      A
 Frequencies --    913.3902               940.7931               964.6223
 Red. masses --      1.7453                 1.6056                 1.6185
 Frc consts  --      0.8579                 0.8373                 0.8873
 IR Inten    --      3.0687                 1.7321                 2.3257

                     43                     44                     45
                      A                      A                      A
 Frequencies --    988.9370               991.5312               996.8727
 Red. masses --      1.2830                 1.6969                 1.7567
 Frc consts  --      0.7393                 0.9829                 1.0286
 IR Inten    --      2.8905                 5.8234                64.4785

                     46                     47                     48
                      A                      A                      A
 Frequencies --   1024.2892              1026.8283              1059.7859
 Red. masses --      1.9839                 1.7794                 2.1792
 Frc consts  --      1.2264                 1.1054                 1.4421
 IR Inten    --      0.2837                 6.9914                 1.4159

                     49                     50                     51
                      A                      A                      A
 Frequencies --   1061.2890              1119.1991              1135.1237
 Red. masses --      1.8543                 1.6983                 1.9302
 Frc consts  --      1.2305                 1.2534                 1.4653
 IR Inten    --      1.3840                 1.3707                42.7422

                     52                     53                     54
                      A                      A                      A
 Frequencies --   1157.8769              1172.9150              1180.0623
 Red. masses --      2.2883                 3.1636                 2.6089
 Frc consts  --      1.8075                 2.5642                 2.1405
 IR Inten    --      2.7365               242.4941                10.0059

                     55                     56                     57
                      A                      A                      A
 Frequencies --   1194.2195              1222.2680              1246.0343
 Red. masses --      1.7504                 1.9780                 1.4585
 Frc consts  --      1.4708                 1.7410                 1.3342
 IR Inten    --      6.9341                21.4601                13.8663

                     58                     59                     60
                      A                      A                      A
 Frequencies --   1275.0633              1290.0758              1299.5844
 Red. masses --      1.8173                 1.3713                 1.3636
 Frc consts  --      1.7407                 1.3446                 1.3569
 IR Inten    --     33.1670                10.1877                 8.6875

                     61                     62                     63
                      A                      A                      A
 Frequencies --   1318.8548              1322.4086              1363.4488
 Red. masses --      1.3871                 1.2301                 1.3597
 Frc consts  --      1.4215                 1.2675                 1.4892
 IR Inten    --     14.8458                 1.3694                24.0024

                     64                     65                     66
                      A                      A                      A
 Frequencies --   1373.0028              1382.3597              1386.9457
 Red. masses --      1.4375                 2.0725                 1.6171
 Frc consts  --      1.5967                 2.3334                 1.8328
 IR Inten    --     15.7328                 4.4091                45.8461

                     67                     68                     69
                      A                      A                      A
 Frequencies --   1401.2602              1404.9807              1423.6915
 Red. masses --      1.4378                 1.5002                 1.2590
 Frc consts  --      1.6633                 1.7448                 1.5035
 IR Inten    --     27.6126                 1.3935                16.0985

                     70                     71                     72
                      A                      A                      A
 Frequencies --   1436.3535              1442.3259              1449.1220
 Red. masses --      1.3742                 1.2898                 1.2663
 Frc consts  --      1.6704                 1.5809                 1.5667
 IR Inten    --     10.7947                 6.5062                 7.2893

                     73                     74                     75
                      A                      A                      A
 Frequencies --   1454.2837              1505.1206              1505.8437
 Red. masses --      1.2600                 1.2814                 1.1010
 Frc consts  --      1.5701                 1.7104                 1.4709
 IR Inten    --      8.0511                39.5047                 1.9268

                     76                     77                     78
                      A                      A                      A
 Frequencies --   1513.7378              1517.0765              1520.3709
 Red. masses --      1.1454                 1.1508                 1.1605
 Frc consts  --      1.5463                 1.5606                 1.5805
 IR Inten    --     24.5585                22.5492                41.3898

                     79                     80                     81
                      A                      A                      A
 Frequencies --   1524.2098              1526.7491              1529.6079
 Red. masses --      1.0656                 1.0612                 1.0526
 Frc consts  --      1.4586                 1.4575                 1.4510
 IR Inten    --      4.6415                14.2095                 3.4979

                     82                     83                     84
                      A                      A                      A
 Frequencies --   1531.7289              1534.4963              1538.6138
 Red. masses --      1.0606                 1.0640                 1.0888
 Frc consts  --      1.4661                 1.4761                 1.5187
 IR Inten    --      2.2817                 6.6406                37.6649

                     85                     86                     87
                      A                      A                      A
 Frequencies --   1543.4866              1548.1600              1771.8181
 Red. masses --      1.0526                 1.0738                 8.1104
 Frc consts  --      1.4774                 1.5163                15.0014
 IR Inten    --      4.2490                17.3510               493.2117

                     88                     89                     90
                      A                      A                      A
 Frequencies --   1823.2701              3018.1148              3022.6832
 Red. masses --      9.3545                 1.0774                 1.0641
 Frc consts  --     18.3220                 5.7825                 5.7282
 IR Inten    --    191.2061                11.6242                35.9865

                     91                     92                     93
                      A                      A                      A
 Frequencies --   3044.2565              3049.5764              3050.6866
 Red. masses --      1.0428                 1.0621                 1.0422
 Frc consts  --      5.6940                 5.8194                 5.7145
 IR Inten    --     18.4018                 7.8009                26.5832

                     94                     95                     96
                      A                      A                      A
 Frequencies --   3055.7609              3055.9405              3058.0357
 Red. masses --      1.0548                 1.0597                 1.0801
 Frc consts  --      5.8029                 5.8309                 5.9509
 IR Inten    --     27.4596                10.7011                17.6556

                     97                     98                     99
                      A                      A                      A
 Frequencies --   3059.5272              3063.7550              3104.0837
 Red. masses --      1.0588                 1.0510                 1.0991
 Frc consts  --      5.8393                 5.8125                 6.2398
 IR Inten    --     45.8447                41.9361                13.1899

                    100                    101                    102
                      A                      A                      A
 Frequencies --   3107.5925              3112.9000              3116.8919
 Red. masses --      1.1004                 1.0998                 1.0991
 Frc consts  --      6.2610                 6.2789                 6.2912
 IR Inten    --     46.1869                 8.4419                61.5498

                    103                    104                    105
                      A                      A                      A
 Frequencies --   3123.3320              3124.8416              3125.8967
 Red. masses --      1.1028                 1.1002                 1.1015
 Frc consts  --      6.3387                 6.3295                 6.3411
 IR Inten    --     17.4985                40.2252                27.8782

                    106                    107                    108
                      A                      A                      A
 Frequencies --   3142.4775              3144.2296              3146.5540
 Red. masses --      1.1010                 1.1024                 1.0919
 Frc consts  --      6.4060                 6.4214                 6.3695
 IR Inten    --     16.7891                 8.5236                25.1949

                    109                    110                    111
                      A                      A                      A
 Frequencies --   3150.5368              3582.4602              3682.8696
 Red. masses --      1.1012                 1.0751                 1.0641
 Frc consts  --      6.4398                 8.1297                 8.5036
 IR Inten    --     27.8676                86.0641                59.6422

 - Thermochemistry -
 -------------------
 Temperature   298.150 Kelvin.  Pressure   1.00000 Atm.
 Atom     1 has atomic number  6 and mass  12.00000

 Molecular mass:   229.16779 amu.
 Principal axes and moments of inertia in atomic units:
                           1         2         3
     Eigenvalues --  2294.128637008.908718263.92234
           X            0.99997   0.00572  -0.00439
           Y           -0.00575   0.99996  -0.00637
           Z            0.00436   0.00640   0.99997
 This molecule is an asymmetric top.
 Rotational symmetry number  1.
 Warning -- assumption of classical behavior for rotation
           may cause significant error
 Rotational temperatures (Kelvin)      0.03775     0.01236     0.01048
 Rotational constants (GHZ):           0.78668     0.25749     0.21839
 Zero-point vibrational energy     912629.5 (Joules/Mol)
                                  218.12370 (Kcal/Mol)
 Warning -- explicit consideration of  29 degrees of freedom as
           vibrations may cause significant error
 Vibrational temperatures:     35.56    44.06    46.11    71.66    82.10
          (Kelvin)            102.97   148.83   185.33   222.12   256.56
                              292.69   301.10   326.86   367.74   382.60
                              387.71   390.02   445.32   480.12   488.46
                              505.96   555.44   624.42   630.83   681.97
                              708.66   769.64   805.76   847.72   904.84
                              980.03  1044.24  1084.96  1132.77  1133.74
                             1186.49  1241.82  1248.80  1273.96  1314.16
                             1353.59  1387.88  1422.86  1426.59  1434.28
                             1473.72  1477.38  1524.80  1526.96  1610.28
                             1633.19  1665.93  1687.56  1697.85  1718.22
                             1758.57  1792.77  1834.53  1856.13  1869.81
                             1897.54  1902.65  1961.70  1975.44  1988.91
                             1995.51  2016.10  2021.45  2048.37  2066.59
                             2075.19  2084.96  2092.39  2165.53  2166.57
                             2177.93  2182.73  2187.47  2193.00  2196.65
                             2200.76  2203.82  2207.80  2213.72  2220.73
                             2227.46  2549.25  2623.28  4342.39  4348.97
                             4380.01  4387.66  4389.26  4396.56  4396.82
                             4399.83  4401.98  4408.06  4466.08  4471.13
                             4478.77  4484.51  4493.78  4495.95  4497.47
                             4521.32  4523.85  4527.19  4532.92  5154.36
                             5298.83

 Zero-point correction=                           0.347602 (Hartree/Particle)
 Thermal correction to Energy=                    0.366656
 Thermal correction to Enthalpy=                  0.367601
 Thermal correction to Gibbs Free Energy=         0.298564
 Sum of electronic and zero-point Energies=           -751.312956
 Sum of electronic and thermal Energies=              -751.293902
 Sum of electronic and thermal Enthalpies=            -751.292958
 Sum of electronic and thermal Free Energies=         -751.361994

                     E (Thermal)             CV                S
                      KCal/Mol        Cal/Mol-Kelvin    Cal/Mol-Kelvin
 Total                  230.080             69.841            145.299
 Electronic               0.000              0.000              0.000
 Translational            0.889              2.981             42.190
 Rotational               0.889              2.981             33.252
 Vibrational            228.303             63.879             69.858
 Vibration     1          0.593              1.985              6.214
 Vibration     2          0.594              1.984              5.789
 Vibration     3          0.594              1.983              5.699
 Vibration     4          0.595              1.978              4.825
 Vibration     5          0.596              1.975              4.556
 Vibration     6          0.598              1.968              4.110
 Vibration     7          0.605              1.946              3.388
 Vibration     8          0.611              1.924              2.964
 Vibration     9          0.620              1.898              2.618
 Vibration    10          0.629              1.869              2.346
 Vibration    11          0.639              1.835              2.102
 Vibration    12          0.642              1.827              2.050
 Vibration    13          0.651              1.800              1.901
 Vibration    14          0.666              1.753              1.692
 Vibration    15          0.672              1.736              1.623
 Vibration    16          0.674              1.729              1.600
 Vibration    17          0.675              1.727              1.589
 Vibration    18          0.699              1.656              1.365
 Vibration    19          0.715              1.608              1.242
 Vibration    20          0.719              1.597              1.215
 Vibration    21          0.728              1.572              1.159
 Vibration    22          0.755              1.500              1.015
 Vibration    23          0.795              1.396              0.846
 Vibration    24          0.799              1.386              0.831
 Vibration    25          0.831              1.308              0.726
 Vibration    26          0.848              1.267              0.677
 Vibration    27          0.890              1.173              0.576
 Vibration    28          0.916              1.118              0.524
 Vibration    29          0.946              1.055              0.469

 Optimization completed.
    -- Stationary point found.
 Normal termination of Gaussian 16 at Thu Dec 10 22:23:56 2020.

 ----------------------------------------------------------------------
 # B3LYP/6-311++G(d,p) empiricaldispersion=gd3bj scf=xqc pop=npa geom=c
 heck
 ----------------------------------------------------------------------

 ---------------------------------------
 CID_121651370_JID_6286_Energie_neutraal
 ---------------------------------------
 Structure from the checkpoint file:  "JID_6286.chk"
 Charge =  0 Multiplicity = 1

 SCF Done:  E(RB3LYP) =  -751.890933648     A.U. after   15 cycles
 Normal termination of Gaussian 16 at Thu Dec 10 22:30:21 2020.

 ----------------------------------------------------------------------
 # B3LYP/6-311++G(d,p) empiricaldispersion=gd3bj scf=xqc pop=npa geom=c
 heck
 ----------------------------------------------------------------------

 -------------------------------------
 CID_121651370_JID_6286_Energie_kation
 -------------------------------------
 Structure from the checkpoint file:  "JID_6286.chk"
 Charge =  1 Multiplicity = 2

 SCF Done:  E(UB3LYP) =  -751.574462748     A.U. after   27 cycles
 Normal termination of Gaussian 16 at Thu Dec 10 22:48:04 2020.
 Gaussian 16:  ES64L-G16RevA.03 25-Dec-2016

 ----------------------------------------------------------------------
 # B3LYP/6-311++G(d,p) empiricaldispersion=gd3bj scf=xqc pop=npa geom=c
 heck
 ----------------------------------------------------------------------

 ------------------------------------
 CID_121651370_JID_6286_Energie_anion
 ------------------------------------
 Structure from the checkpoint file:  "JID_6286.chk"
 Charge = -1 Multiplicity = 2

                         Standard orientation:
 ---------------------------------------------------------------------
 Center     Atomic      Atomic             Coordinates (Angstroms)
 Number     Number       Type             X           Y           Z
 ---------------------------------------------------------------------
      1          6           0        4.095831    2.460587   -0.172933
      2          6           0        3.813170    1.162339    0.587723
      3          6           0        2.802918    0.229255   -0.101827
      4          6           0        3.280966   -0.232823   -1.484245
      5          6           0        2.504064   -0.983329    0.810821
      6          6           0        1.388721   -1.869223    0.270851
      7          8           0        1.635074   -2.871420   -0.394770
      8          7           0        0.094991   -1.507271    0.537606
      9          6           0       -0.402419   -0.260523    1.088212
     10          6           0       -0.944968    0.721759    0.016405
     11          6           0       -2.476084    0.906929   -0.040296
     12          6           0       -3.005665    1.560605    1.253177
     13          6           0       -2.826785    1.811571   -1.243617
     14          6           0       -3.166367   -0.435802   -0.259537
     15          8           0       -2.623539   -1.503561   -0.462668
     16          8           0       -4.516180   -0.328956   -0.234939
     17          1           0        4.580086    2.270646   -1.136203
     18          1           0        4.755679    3.117638    0.404345
     19          1           0        3.167220    3.011083   -0.370500
     20          1           0        4.752911    0.613331    0.743392
     21          1           0        3.435042    1.410042    1.589576
     22          1           0        1.870552    0.797379   -0.237120
     23          1           0        4.261862   -0.718495   -1.405948
     24          1           0        2.592279   -0.962395   -1.918595
     25          1           0        3.374470    0.608718   -2.177978
     26          1           0        3.393394   -1.617876    0.870424
     27          1           0        2.279624   -0.635794    1.826378
     28          1           0       -0.599839   -2.063017    0.050273
     29          1           0       -1.185905   -0.496632    1.817604
     30          1           0        0.402006    0.213497    1.651389
     31          1           0       -0.517781    1.718829    0.180525
     32          1           0       -0.585867    0.386128   -0.961696
     33          1           0       -2.516722    2.530683    1.394961
     34          1           0       -4.084946    1.721554    1.197863
     35          1           0       -2.800984    0.947234    2.136514
     36          1           0       -2.491284    1.363520   -2.185231
     37          1           0       -3.904258    1.985464   -1.306167
     38          1           0       -2.325221    2.778903   -1.131163
     39          1           0       -4.860379   -1.226133   -0.405267
 ---------------------------------------------------------------------

 SCF Done:  E(UB3LYP) =  -751.883670481     A.U. after   33 cycles
 SCF Done:  E(UB3LYP) =  -751.883670481     a.u. after    1 cycles

 The electronic state is 2-A.
 Alpha  occ. eigenvalues --  -19.08240 -19.03353 -18.98787 -14.23357 -10.22166
 Alpha  occ. eigenvalues --  -10.17501 -10.11875 -10.11625 -10.09390 -10.08573
 Alpha  occ. eigenvalues --  -10.08465 -10.08190 -10.07919 -10.07587 -10.07331
 Alpha  occ. eigenvalues --  -10.06942  -1.02659  -0.93888  -0.93624  -0.82574
 Alpha  occ. eigenvalues --   -0.74602  -0.73270  -0.65970  -0.64930  -0.61400
 Alpha  occ. eigenvalues --   -0.60705  -0.57221  -0.55989  -0.55185  -0.48955
 Alpha  occ. eigenvalues --   -0.48105  -0.46851  -0.41175  -0.41087  -0.40244
 Alpha  occ. eigenvalues --   -0.39325  -0.38207  -0.37271  -0.37199  -0.35723
 Alpha  occ. eigenvalues --   -0.34063  -0.33808  -0.33308  -0.32344  -0.31837
 Alpha  occ. eigenvalues --   -0.30953  -0.30516  -0.30022  -0.29783  -0.28961
 Alpha  occ. eigenvalues --   -0.28427  -0.27879  -0.26887  -0.26661  -0.25104
 Alpha  occ. eigenvalues --   -0.24973  -0.24323  -0.24199  -0.23987  -0.23761
 Alpha  occ. eigenvalues --   -0.19875  -0.15921  -0.15478   0.03738
 Alpha virt. eigenvalues --    0.05354   0.06646   0.06886   0.07718   0.07977
 Alpha virt. eigenvalues --    0.08449   0.08534   0.09288   0.09938   0.10221
 Alpha virt. eigenvalues --    0.10702   0.11032   0.11330   0.11586   0.11803

  Beta  occ. eigenvalues --  -19.08187 -19.03338 -18.98787 -14.23355 -10.22164
  Beta  occ. eigenvalues --  -10.17501 -10.11859 -10.11618 -10.09386 -10.08568
  Beta  occ. eigenvalues --  -10.08446 -10.08176 -10.07890 -10.07547 -10.07305
  Beta  occ. eigenvalues --  -10.06935  -1.02600  -0.93881  -0.93574  -0.82565
  Beta  occ. eigenvalues --   -0.74573  -0.73254  -0.65943  -0.64896  -0.61384
  Beta  occ. eigenvalues --   -0.60639  -0.57129  -0.55940  -0.55139  -0.48921
  Beta  occ. eigenvalues --   -0.48062  -0.46786  -0.41148  -0.41050  -0.40205
  Beta  occ. eigenvalues --   -0.39305  -0.38184  -0.37251  -0.37164  -0.35697
  Beta  occ. eigenvalues --   -0.34020  -0.33784  -0.33268  -0.32317  -0.31815
  Beta  occ. eigenvalues --   -0.30929  -0.30492  -0.29991  -0.29754  -0.28933
  Beta  occ. eigenvalues --   -0.28387  -0.27851  -0.26866  -0.26624  -0.25071
  Beta  occ. eigenvalues --   -0.24944  -0.24305  -0.24161  -0.23968  -0.23739
  Beta  occ. eigenvalues --   -0.19812  -0.15915  -0.15469
  Beta virt. eigenvalues --    0.05884   0.06512   0.07263   0.07518   0.07743
  Beta virt. eigenvalues --    0.08169   0.08624   0.08927   0.09783   0.10176
  Beta virt. eigenvalues --    0.10463   0.10773   0.11069   0.11399   0.11814

 Mulliken charges and spin densities:
               1          2
     1  C    0.330733  -0.973092
     2  C   -0.542696   0.392167
     3  C    0.466379   0.128888
     4  C   -0.390800  -0.350387
     5  C   -0.119069  -0.089626
     6  C   -0.422731   0.036665
     7  O   -0.311884   0.001776
     8  N   -0.029125   0.039100
     9  C   -0.273847  -0.331801
    10  C   -0.306105  -0.285570
    11  C   -0.764602   1.520110
    12  C    1.005541  -1.547558
    13  C    0.307720  -0.810702
    14  C    0.362598  -0.651034
    15  O   -0.301613   0.012041
    16  O   -0.226322   0.098333
    17  H    0.051251   0.083631
    18  H   -0.163225   0.301349
    19  H   -0.461502   0.615942
    20  H    0.033270   0.094232
    21  H   -0.118127   0.247420
    22  H    0.795418  -0.684678
    23  H    0.081682   0.057866
    24  H    0.199256  -0.012869
    25  H    0.013691   0.115238
    26  H    0.224039  -0.021682
    27  H    0.064213   0.102266
    28  H    0.343458  -0.005699
    29  H    0.060706   0.173505
    30  H   -0.098827   0.271970
    31  H    0.459944  -0.302296
    32  H    0.070305   0.147643
    33  H   -0.478349   0.637970
    34  H   -0.082672   0.276937
    35  H   -0.083577   0.220050
    36  H   -0.005850   0.153466
    37  H   -0.040006   0.238331
    38  H   -0.286558   0.441052
    39  H   -0.362716   0.659050
 Sum of Mulliken charges =  -1.00000   1.00000

 Dipole moment (field-independent basis, Debye):
    X=              3.7441    Y=             -1.4018    Z=              0.0300  Tot=              3.9981
 Quadrupole moment (field-independent basis, Debye-Ang):
   XX=           -186.1779   YY=           -166.1916   ZZ=           -130.8643
   XY=             -4.3163   XZ=              0.5693   YZ=             -8.1973

 Summary of Natural Population Analysis:

                                       Natural Population
                Natural  -----------------------------------------------
    Atom  No    Charge         Core      Valence    Rydberg      Total
 -----------------------------------------------------------------------
      C    1   -0.28656      0.99967     2.28157    0.00532     3.28656
      C    2   -0.18632      0.99962     2.17747    0.00923     3.18632
      C    3   -0.11344      0.99959     2.10476    0.00909     3.11344
      C    4   -0.28819      0.99965     2.28342    0.00512     3.28819
      C    5   -0.23216      0.99957     2.22356    0.00902     3.23216
      C    6    0.34358      0.99966     1.63398    0.02278     2.65642
      O    7   -0.33034      0.99988     3.32494    0.00553     4.33034
      N    8   -0.31825      0.99966     2.80988    0.00872     3.81825
      C    9   -0.09135      0.99961     2.08063    0.01112     3.09135
      C   10   -0.19633      0.99959     2.18557    0.01116     3.19633
      C   11   -0.08303      0.99953     2.06971    0.01379     3.08303
      C   12   -0.28396      0.99963     2.27675    0.00758     3.28396
      C   13   -0.27810      0.99963     2.27251    0.00597     3.27810
      C   14    0.42045      0.99962     1.55361    0.02632     2.57955
      O   15   -0.31839      0.99986     3.31228    0.00625     4.31839
      O   16   -0.34276      0.99987     3.33536    0.00752     4.34276
      H   17    0.09534      0.00000     0.40379    0.00087     0.40466
      H   18    0.09925      0.00000     0.39996    0.00080     0.40075
      H   19    0.10027      0.00000     0.39841    0.00132     0.39973
      H   20    0.09117      0.00000     0.40778    0.00105     0.40883
      H   21    0.09710      0.00000     0.40178    0.00112     0.40290
      H   22    0.09540      0.00000     0.40172    0.00288     0.40460
      H   23    0.09530      0.00000     0.40391    0.00078     0.40470
      H   24    0.10915      0.00000     0.39000    0.00086     0.39085
      H   25    0.09859      0.00000     0.40070    0.00071     0.40141
      H   26    0.10857      0.00000     0.39038    0.00105     0.39143
      H   27    0.10392      0.00000     0.39493    0.00114     0.39608
      H   28    0.20757      0.00000     0.29003    0.00240     0.29243
      H   29    0.09676      0.00000     0.40188    0.00136     0.40324
      H   30    0.10176      0.00000     0.39689    0.00135     0.39824
      H   31    0.10505      0.00000     0.39324    0.00171     0.39495
      H   32    0.10663      0.00000     0.39181    0.00156     0.39337
      H   33    0.10446      0.00000     0.39387    0.00167     0.39554
      H   34    0.10938      0.00000     0.38912    0.00150     0.39062
      H   35    0.10099      0.00000     0.39757    0.00144     0.39901
      H   36    0.10175      0.00000     0.39715    0.00110     0.39825
      H   37    0.10780      0.00000     0.39090    0.00131     0.39220
      H   38    0.10449      0.00000     0.39422    0.00128     0.39551
      H   39    0.24447      0.00000     0.24324    0.01229     0.25553
 =======================================================================
   * Total *   -0.00000     15.99464    46.79927    0.20609    63.00000

 Normal termination of Gaussian 16 at Thu Dec 10 23:11:04 2020.
