 Gaussian 16, Revision A.03,

 -----------------------------------------------------------
 # opt freq B3LYP/6-31G(d) empiricaldispersion=gd3bj scf=xqc
 -----------------------------------------------------------

 -----------------------------
 CID_68094878_JID_204_neutraal
 -----------------------------
 Symbolic Z-matrix:
 Charge =  0 Multiplicity = 1

 SCF Done:  E(RB3LYP) =  -409.182781657     A.U. after   13 cycles
 SCF Done:  E(RB3LYP) =  -409.185649931     A.U. after   10 cycles
 SCF Done:  E(RB3LYP) =  -409.185990858     A.U. after   10 cycles
 SCF Done:  E(RB3LYP) =  -409.186156847     A.U. after   10 cycles
 SCF Done:  E(RB3LYP) =  -409.186195326     A.U. after   10 cycles
 SCF Done:  E(RB3LYP) =  -409.186213426     A.U. after    9 cycles
 SCF Done:  E(RB3LYP) =  -409.186215768     A.U. after    7 cycles
 SCF Done:  E(RB3LYP) =  -409.186216073     A.U. after    7 cycles
 SCF Done:  E(RB3LYP) =  -409.186216240     A.U. after    7 cycles
 Optimization completed.
    -- Stationary point found.

 1\1\GINC-NODE204\FOpt\RB3LYP\6-31G(d)\C9H19N1\VSC10255\08-Dec-2020\0\\
 # opt freq B3LYP/6-31G(d) empiricaldispersion=gd3bj scf=xqc\\CID_68094
 878_JID_204_neutraal\\0,1\C,0.9800513533,-0.0257351072,-0.0590290863\C
 ,0.646021413,-0.9538416859,1.1191756759\C,0.4922033612,-0.1157192786,2
 .3978827643\C,0.3383134433,-0.8634372479,3.7359195353\C,1.2417975512,-
 2.1017359048,3.9195893049\C,0.5337043257,-3.4464482182,3.6437439654\N,
 0.0828343901,-3.7678850587,2.3037793745\C,-0.9723720197,-2.9625111625,
 1.7151872348\C,-0.5582132451,-1.832069014,0.7444265707\C,1.0300162201,

 Normal termination of Gaussian 16 at Tue Dec  8 10:20:32 2020.

 --------------------------------------------------------------------
 #N Geom=AllCheck Guess=TCheck SCRF=Check GenChk RB3LYP/6-31G(d) Freq
 --------------------------------------------------------------------

 Structure from the checkpoint file:  "JID_204.chk"
 -----------------------------
 CID_68094878_JID_204_neutraal
 -----------------------------
 Charge =  0 Multiplicity = 1

 SCF Done:  E(RB3LYP) =  -409.186216240     A.U. after    1 cycles

  Exact polarizability: 104.401   1.799 103.635  -2.076  -0.117  89.760
 Approx polarizability: 132.611   1.851 139.494  -3.377   0.690 136.885

                      1                      2                      3
                      A                      A                      A
 Frequencies --    108.0060               121.5152               161.0885
 Red. masses --      2.6166                 2.2307                 2.0671
 Frc consts  --      0.0180                 0.0194                 0.0316
 IR Inten    --      1.0040                 0.0491                 1.7096

                      4                      5                      6
                      A                      A                      A
 Frequencies --    197.7036               206.5677               214.7578
 Red. masses --      1.3548                 2.2640                 2.0043
 Frc consts  --      0.0312                 0.0569                 0.0545
 IR Inten    --      0.3615                 3.3899                 0.3535

                      7                      8                      9
                      A                      A                      A
 Frequencies --    237.1069               277.4666               314.1701
 Red. masses --      1.2133                 2.5192                 2.5541
 Frc consts  --      0.0402                 0.1143                 0.1485
 IR Inten    --      0.9019                 0.5794                 0.2758

                     10                     11                     12
                      A                      A                      A
 Frequencies --    348.5829               386.3816               406.5327
 Red. masses --      2.1285                 1.7563                 2.3679
 Frc consts  --      0.1524                 0.1545                 0.2306
 IR Inten    --      1.2056                 0.4062                 0.1106

                     13                     14                     15
                      A                      A                      A
 Frequencies --    427.9590               494.9455               516.0384
 Red. masses --      2.1114                 1.9761                 2.1208
 Frc consts  --      0.2278                 0.2852                 0.3327
 IR Inten    --      4.3874                 1.2985                 4.8951

                     16                     17                     18
                      A                      A                      A
 Frequencies --    585.3251               706.8093               756.5106
 Red. masses --      3.2598                 2.0625                 1.9469
 Frc consts  --      0.6580                 0.6071                 0.6565
 IR Inten    --      3.7632                 0.8576                 1.4765

                     19                     20                     21
                      A                      A                      A
 Frequencies --    818.8369               825.9642               856.0335
 Red. masses --      1.7941                 2.1743                 1.7337
 Frc consts  --      0.7087                 0.8740                 0.7485
 IR Inten    --      0.8505                 1.2644                 1.5195

                     22                     23                     24
                      A                      A                      A
 Frequencies --    921.5927               948.8567               977.6426
 Red. masses --      1.7839                 1.5757                 2.5576
 Frc consts  --      0.8927                 0.8359                 1.4403
 IR Inten    --      2.7546                 2.2654                 3.9034

                     25                     26                     27
                      A                      A                      A
 Frequencies --    980.9322              1021.5139              1024.4196
 Red. masses --      1.8276                 1.9531                 1.8319
 Frc consts  --      1.0361                 1.2008                 1.1327
 IR Inten    --      7.8630                 0.9442                 2.0771

                     28                     29                     30
                      A                      A                      A
 Frequencies --   1047.6467              1097.5226              1106.7737
 Red. masses --      1.7036                 2.0541                 2.0327
 Frc consts  --      1.1016                 1.4578                 1.4670
 IR Inten    --      4.8743                16.6748                20.0542

                     31                     32                     33
                      A                      A                      A
 Frequencies --   1117.0640              1132.0169              1161.3742
 Red. masses --      2.0826                 2.3459                 1.3234
 Frc consts  --      1.5311                 1.7712                 1.0517
 IR Inten    --      2.0908                18.7219                 5.7958

                     34                     35                     36
                      A                      A                      A
 Frequencies --   1178.9786              1200.8913              1221.9616
 Red. masses --      1.6121                 1.4081                 1.9497
 Frc consts  --      1.3203                 1.1964                 1.7152
 IR Inten    --      3.9437                 4.6202                17.5138

                     37                     38                     39
                      A                      A                      A
 Frequencies --   1252.8360              1274.5983              1289.2980
 Red. masses --      1.2946                 1.2883                 1.4069
 Frc consts  --      1.1972                 1.2331                 1.3779
 IR Inten    --      3.9939                 5.8004                 4.7782

                     40                     41                     42
                      A                      A                      A
 Frequencies --   1321.1712              1347.1246              1370.1439
 Red. masses --      1.3299                 1.1770                 1.4943
 Frc consts  --      1.3676                 1.2585                 1.6529
 IR Inten    --      1.1187                 1.0337                 4.3625

                     43                     44                     45
                      A                      A                      A
 Frequencies --   1376.5076              1391.1381              1401.4911
 Red. masses --      1.4364                 1.4323                 1.3921
 Frc consts  --      1.6035                 1.6331                 1.6111
 IR Inten    --      3.7931                 7.5907                21.7757

                     46                     47                     48
                      A                      A                      A
 Frequencies --   1404.1812              1419.1672              1429.6487
 Red. masses --      1.3696                 1.2930                 1.4017
 Frc consts  --      1.5911                 1.5343                 1.6879
 IR Inten    --      8.2158                22.3221                 2.6232

                     49                     50                     51
                      A                      A                      A
 Frequencies --   1433.6263              1437.1982              1445.1782
 Red. masses --      1.4294                 1.3343                 1.2785
 Frc consts  --      1.7309                 1.6238                 1.5733
 IR Inten    --     13.4525                 7.2562                 4.3357

                     52                     53                     54
                      A                      A                      A
 Frequencies --   1481.2833              1502.5120              1503.9278
 Red. masses --      1.1199                 1.0854                 1.0821
 Frc consts  --      1.4477                 1.4438                 1.4421
 IR Inten    --      3.9217                 3.6620                 2.7929

                     55                     56                     57
                      A                      A                      A
 Frequencies --   1513.6763              1518.2175              1520.0021
 Red. masses --      1.0802                 1.0873                 1.0895
 Frc consts  --      1.4582                 1.4766                 1.4831
 IR Inten    --      4.0559                 6.5995                 4.3431

                     58                     59                     60
                      A                      A                      A
 Frequencies --   1526.2032              1529.7244              1532.8140
 Red. masses --      1.1104                 1.0484                 1.0637
 Frc consts  --      1.5239                 1.4455                 1.4725
 IR Inten    --      3.4224                 6.0452                 2.8498

                     61                     62                     63
                      A                      A                      A
 Frequencies --   1545.3413              1552.2822              2950.6224
 Red. masses --      1.0870                 1.0563                 1.0612
 Frc consts  --      1.5295                 1.4996                 5.4432
 IR Inten    --      6.3706                 3.8664                96.9430

                     64                     65                     66
                      A                      A                      A
 Frequencies --   2982.9425              2998.9412              3013.6713
 Red. masses --      1.0730                 1.0677                 1.0604
 Frc consts  --      5.6252                 5.6575                 5.6743
 IR Inten    --     58.5872                47.3126                33.4134

                     67                     68                     69
                      A                      A                      A
 Frequencies --   3017.1047              3029.6009              3036.6673
 Red. masses --      1.0616                 1.0652                 1.0592
 Frc consts  --      5.6939                 5.7602                 5.7546
 IR Inten    --     45.5810                16.3373                19.6173

                     70                     71                     72
                      A                      A                      A
 Frequencies --   3039.2680              3043.5160              3046.4923
 Red. masses --      1.0631                 1.0838                 1.0743
 Frc consts  --      5.7859                 5.9147                 5.8747
 IR Inten    --     31.6439                18.4985                78.7955

                     73                     74                     75
                      A                      A                      A
 Frequencies --   3048.4612              3059.9724              3062.5425
 Red. masses --      1.0833                 1.0930                 1.0931
 Frc consts  --      5.9314                 6.0300                 6.0405
 IR Inten    --     13.5162                71.5260                 4.7327

                     76                     77                     78
                      A                      A                      A
 Frequencies --   3073.1015              3077.0527              3094.6433
 Red. masses --      1.1017                 1.0977                 1.1019
 Frc consts  --      6.1302                 6.1233                 6.2174
 IR Inten    --     65.9077                52.9630                42.5392

                     79                     80                     81
                      A                      A                      A
 Frequencies --   3102.8734              3105.8725              3109.4418
 Red. masses --      1.0982                 1.0926                 1.1019
 Frc consts  --      6.2296                 6.2097                 6.2772
 IR Inten    --     21.1096                88.0866                50.0755

 - Thermochemistry -
 -------------------
 Temperature   298.150 Kelvin.  Pressure   1.00000 Atm.
 Atom     1 has atomic number  6 and mass  12.00000

 Molecular mass:   141.15175 amu.
 Principal axes and moments of inertia in atomic units:
                           1         2         3
     Eigenvalues --  1106.508521563.173922122.73365
           X            0.99983   0.01810  -0.00346
           Y           -0.01806   0.99976   0.01229
           Z            0.00369  -0.01222   0.99992
 This molecule is an asymmetric top.
 Rotational symmetry number  1.
 Warning -- assumption of classical behavior for rotation
           may cause significant error
 Rotational temperatures (Kelvin)      0.07828     0.05541     0.04080
 Rotational constants (GHZ):           1.63102     1.15454     0.85020
 Zero-point vibrational energy     719670.8 (Joules/Mol)
                                  172.00546 (Kcal/Mol)
 Warning -- explicit consideration of  16 degrees of freedom as
           vibrations may cause significant error
 Vibrational temperatures:    155.40   174.83   231.77   284.45   297.20
          (Kelvin)            308.99   341.14   399.21   452.02   501.53
                              555.92   584.91   615.74   712.12   742.46
                              842.15  1016.94  1088.45  1178.12  1188.38
                             1231.64  1325.97  1365.19  1406.61  1411.34
                             1469.73  1473.91  1507.33  1579.09  1592.40
                             1607.21  1628.72  1670.96  1696.29  1727.81
                             1758.13  1802.55  1833.86  1855.01  1900.87
                             1938.21  1971.33  1980.49  2001.54  2016.43
                             2020.30  2041.87  2056.95  2062.67  2067.81
                             2079.29  2131.24  2161.78  2163.82  2177.84
                             2184.38  2186.94  2195.87  2200.93  2205.38
                             2223.40  2233.39  4245.29  4291.79  4314.81
                             4336.00  4340.94  4358.92  4369.09  4372.83
                             4378.94  4383.22  4386.06  4402.62  4406.32
                             4421.51  4427.19  4452.50  4464.34  4468.66
                             4473.79

 Zero-point correction=                           0.274108 (Hartree/Particle)
 Thermal correction to Energy=                    0.284894
 Thermal correction to Enthalpy=                  0.285838
 Thermal correction to Gibbs Free Energy=         0.238955
 Sum of electronic and zero-point Energies=           -408.912108
 Sum of electronic and thermal Energies=              -408.901322
 Sum of electronic and thermal Enthalpies=            -408.900378
 Sum of electronic and thermal Free Energies=         -408.947262

                     E (Thermal)             CV                S
                      KCal/Mol        Cal/Mol-Kelvin    Cal/Mol-Kelvin
 Total                  178.774             42.388             98.675
 Electronic               0.000              0.000              0.000
 Translational            0.889              2.981             40.745
 Rotational               0.889              2.981             29.686
 Vibrational            176.996             36.427             28.243
 Vibration     1          0.606              1.943              3.304
 Vibration     2          0.609              1.931              3.076
 Vibration     3          0.622              1.890              2.537
 Vibration     4          0.637              1.843              2.154
 Vibration     5          0.641              1.831              2.074
 Vibration     6          0.645              1.819              2.003
 Vibration     7          0.656              1.784              1.824
 Vibration     8          0.678              1.715              1.549
 Vibration     9          0.702              1.647              1.340
 Vibration    10          0.726              1.578              1.173
 Vibration    11          0.755              1.499              1.014
 Vibration    12          0.771              1.456              0.939
 Vibration    13          0.789              1.409              0.865
 Vibration    14          0.851              1.261              0.671
 Vibration    15          0.871              1.214              0.619
 Vibration    16          0.942              1.063              0.476

                           ! Non-Optimized Parameters !

 1\1\GINC-NODE204\Freq\RB3LYP\6-31G(d)\C9H19N1\VSC10255\08-Dec-2020\0\\
 #N Geom=AllCheck Guess=TCheck SCRF=Check GenChk RB3LYP/6-31G(d) Freq\\
 CID_68094878_JID_204_neutraal\\0,1\C,0.9800513533,-0.0257351072,-0.059
 0290863\C,0.646021413,-0.9538416859,1.1191756759\C,0.4922033612,-0.115
 7192786,2.3978827643\C,0.3383134433,-0.8634372479,3.7359195353\C,1.241
 7975512,-2.1017359048,3.9195893049\C,0.5337043257,-3.4464482182,3.6437
 439654\N,0.0828343901,-3.7678850587,2.3037793745\C,-0.9723720197,-2.96
 25111625,1.7151872348\C,-0.5582132451,-1.832069014,0.7444265707\C,1.03

 Normal termination of Gaussian 16 at Tue Dec  8 10:26:46 2020.

 ----------------------------------------------------------------------
 # B3LYP/6-311++G(d,p) empiricaldispersion=gd3bj scf=xqc pop=npa geom=c
 heck
 ----------------------------------------------------------------------

 -------------------------------------
 CID_68094878_JID_204_Energie_neutraal
 -------------------------------------
 Structure from the checkpoint file:  "JID_204.chk"
 Charge =  0 Multiplicity = 1

 SCF Done:  E(RB3LYP) =  -409.298546092     A.U. after   12 cycles
 Normal termination of Gaussian 16 at Tue Dec  8 10:29:15 2020.

 ----------------------------------------------------------------------
 # B3LYP/6-311++G(d,p) empiricaldispersion=gd3bj scf=xqc pop=npa geom=c
 heck
 ----------------------------------------------------------------------

 -----------------------------------
 CID_68094878_JID_204_Energie_kation
 -----------------------------------
 Structure from the checkpoint file:  "JID_204.chk"
 Charge =  1 Multiplicity = 2

 SCF Done:  E(UB3LYP) =  -409.028988922     A.U. after   15 cycles
 Normal termination of Gaussian 16 at Tue Dec  8 10:33:52 2020.
 Gaussian 16:  ES64L-G16RevA.03 25-Dec-2016

 ----------------------------------
 CID_68094878_JID_204_Energie_anion
 ----------------------------------
 Structure from the checkpoint file:  "JID_204.chk"
 Charge = -1 Multiplicity = 2

                         Standard orientation:
 ---------------------------------------------------------------------
 Center     Atomic      Atomic             Coordinates (Angstroms)
 Number     Number       Type             X           Y           Z
 ---------------------------------------------------------------------
      1          6           0       -2.803365   -0.768299   -0.655713
      2          6           0       -1.410022   -0.253744   -0.262073
      3          6           0       -1.509341    1.227293    0.135250
      4          6           0       -0.198239    1.995232    0.388998
      5          6           0        0.952578    1.700941   -0.597112
      6          6           0        2.002494    0.702267   -0.062262
      7          7           0        1.633694   -0.679066    0.178606
      8          6           0        0.664216   -0.966482    1.220735
      9          6           0       -0.805131   -1.192017    0.794171
     10          6           0        1.685770   -1.600934   -0.931178
     11          1           0       -3.489678   -0.733891    0.200255
     12          1           0       -2.760323   -1.806295   -1.005382
     13          1           0       -3.240576   -0.160725   -1.456573
     14          1           0       -0.779852   -0.313102   -1.157611
     15          1           0       -2.043958    1.737932   -0.678114
     16          1           0       -2.155416    1.318779    1.020772
     17          1           0        0.156517    1.814374    1.411148
     18          1           0       -0.439476    3.064855    0.354758
     19          1           0        1.494471    2.633782   -0.803756
     20          1           0        0.558955    1.361979   -1.564074
     21          1           0        2.384508    1.113900    0.885013
     22          1           0        2.853230    0.687776   -0.756042
     23          1           0        0.727326   -0.156854    1.953633
     24          1           0        0.982152   -1.880255    1.749330
     25          1           0       -1.429351   -1.173018    1.700527
     26          1           0       -0.887847   -2.214428    0.400462
     27          1           0        0.852854   -1.525767   -1.654367
     28          1           0        2.618584   -1.451575   -1.488084
     29          1           0        1.688254   -2.629543   -0.547050
 ---------------------------------------------------------------------

 SCF Done:  E(UB3LYP) =  -409.279632740     A.U. after   27 cycles

 The electronic state is 2-A.
 Alpha  occ. eigenvalues --  -14.18798 -10.08346 -10.08300 -10.07614 -10.06155
 Alpha  occ. eigenvalues --  -10.05498 -10.05404 -10.05379 -10.05244 -10.05008
 Alpha  occ. eigenvalues --   -0.81129  -0.70687  -0.67393  -0.62135  -0.60646
 Alpha  occ. eigenvalues --   -0.56579  -0.54124  -0.48300  -0.47113  -0.43203
 Alpha  occ. eigenvalues --   -0.37662  -0.37269  -0.35956  -0.34295  -0.32567
 Alpha  occ. eigenvalues --   -0.32036  -0.30524  -0.29624  -0.28199  -0.28147
 Alpha  occ. eigenvalues --   -0.26826  -0.25630  -0.24689  -0.23939  -0.23275
 Alpha  occ. eigenvalues --   -0.22697  -0.21119  -0.20048  -0.19554  -0.09002
 Alpha  occ. eigenvalues --    0.04905
 Alpha virt. eigenvalues --    0.07148   0.07397   0.07797   0.09455   0.09771
 Alpha virt. eigenvalues --    0.10107   0.10253   0.10476   0.12072   0.12364
 Alpha virt. eigenvalues --    0.12880   0.13013   0.13491   0.13701   0.14530

  Beta  occ. eigenvalues --  -14.18795 -10.08330 -10.08283 -10.07576 -10.06147
  Beta  occ. eigenvalues --  -10.05480 -10.05386 -10.05361 -10.05224 -10.04980
  Beta  occ. eigenvalues --   -0.81113  -0.70656  -0.67356  -0.62094  -0.60602
  Beta  occ. eigenvalues --   -0.56523  -0.54063  -0.48240  -0.47057  -0.43140
  Beta  occ. eigenvalues --   -0.37627  -0.37243  -0.35909  -0.34256  -0.32532
  Beta  occ. eigenvalues --   -0.31992  -0.30476  -0.29590  -0.28162  -0.28115
  Beta  occ. eigenvalues --   -0.26783  -0.25593  -0.24658  -0.23910  -0.23229
  Beta  occ. eigenvalues --   -0.22658  -0.21071  -0.20013  -0.19522  -0.08959
  Beta virt. eigenvalues --    0.07136   0.08040   0.08213   0.08323   0.09988
  Beta virt. eigenvalues --    0.10381   0.10558   0.10801   0.10954   0.12609
  Beta virt. eigenvalues --    0.12765   0.13223   0.13470   0.13845   0.14080

 Mulliken charges and spin densities:
               1          2
     1  C    0.830144  -1.327997
     2  C   -1.372225   2.023795
     3  C    1.159018  -1.855795
     4  C    0.302220  -0.404444
     5  C   -0.851285   0.659812
     6  C    0.907911  -1.479460
     7  N   -0.191599   0.272076
     8  C    0.347209  -0.968587
     9  C   -0.351717   0.075807
    10  C    1.030501  -1.370514
    11  H   -0.028360   0.156434
    12  H   -0.283548   0.419566
    13  H   -0.352887   0.493950
    14  H    0.613362  -0.579850
    15  H   -0.256202   0.381574
    16  H    0.024328   0.113152
    17  H   -0.012443   0.102809
    18  H   -0.384407   0.572990
    19  H   -0.710433   0.882026
    20  H   -0.096993   0.259566
    21  H   -0.217816   0.372370
    22  H    0.161731  -0.046600
    23  H    0.223153  -0.112554
    24  H   -0.248321   0.430944
    25  H   -0.234938   0.372812
    26  H    0.150644  -0.021130
    27  H   -0.529801   0.676821
    28  H   -0.344119   0.474414
    29  H   -0.283127   0.426014
 Sum of Mulliken charges =  -1.00000   1.00000

 Dipole moment (field-independent basis, Debye):
    X=             -0.1893    Y=             -0.4664    Z=              2.6500  Tot=              2.6974
 Quadrupole moment (field-independent basis, Debye-Ang):
   XX=           -117.0267   YY=           -121.6605   ZZ=           -100.2530
   XY=              0.6999   XZ=             -0.2178   YZ=             -0.4900

 Summary of Natural Population Analysis:

                                       Natural Population
                Natural  -----------------------------------------------
    Atom  No    Charge         Core      Valence    Rydberg      Total
 -----------------------------------------------------------------------
      C    1   -0.27668      0.99965     2.27210    0.00494     3.27668
      C    2   -0.12091      0.99959     2.11121    0.01011     3.12091
      C    3   -0.18397      0.99961     2.17539    0.00897     3.18397
      C    4   -0.19178      0.99963     2.18304    0.00911     3.19178
      C    5   -0.20168      0.99962     2.19346    0.00860     3.20168
      C    6   -0.07281      0.99960     2.06137    0.01184     3.07281
      N    7   -0.28757      0.99973     2.77343    0.01441     3.78757
      C    8   -0.07691      0.99960     2.06597    0.01133     3.07691
      C    9   -0.19673      0.99960     2.18795    0.00918     3.19673
      C   10   -0.17282      0.99963     2.16451    0.00867     3.17282
      H   11    0.09390      0.00000     0.40494    0.00116     0.40610
      H   12    0.09869      0.00000     0.40015    0.00116     0.40131
      H   13    0.09829      0.00000     0.40056    0.00115     0.40171
      H   14    0.09617      0.00000     0.40083    0.00300     0.40383
      H   15    0.09601      0.00000     0.40261    0.00138     0.40399
      H   16    0.09389      0.00000     0.40499    0.00111     0.40611
      H   17    0.08991      0.00000     0.40858    0.00151     0.41009
      H   18    0.09948      0.00000     0.39909    0.00143     0.40052
      H   19    0.09886      0.00000     0.39937    0.00176     0.40114
      H   20    0.09508      0.00000     0.40320    0.00173     0.40492
      H   21    0.08643      0.00000     0.41225    0.00132     0.41357
      H   22    0.09406      0.00000     0.40479    0.00114     0.40594
      H   23    0.09232      0.00000     0.40621    0.00146     0.40768
      H   24    0.08872      0.00000     0.41022    0.00105     0.41128
      H   25    0.09524      0.00000     0.40354    0.00122     0.40476
      H   26    0.09670      0.00000     0.40180    0.00150     0.40330
      H   27    0.08040      0.00000     0.41759    0.00201     0.41960
      H   28    0.09403      0.00000     0.40476    0.00122     0.40597
      H   29    0.09367      0.00000     0.40506    0.00127     0.40633
 =======================================================================
   * Total *   -0.00000      9.99626    29.87898    0.12476    40.00000

 Normal termination of Gaussian 16 at Tue Dec  8 10:44:26 2020.
