 Gaussian 16, Revision A.03,

 -----------------------------------------------------------
 # opt freq B3LYP/6-31G(d) empiricaldispersion=gd3bj scf=xqc
 -----------------------------------------------------------

 -------------------------------
 CID_105439085_JID_3139_neutraal
 -------------------------------
 Symbolic Z-matrix:
 Charge =  0 Multiplicity = 1

 SCF Done:  E(RB3LYP) =  -571.563948779     A.U. after   15 cycles
 SCF Done:  E(RB3LYP) =  -571.567520023     A.U. after   12 cycles
 SCF Done:  E(RB3LYP) =  -571.567941887     A.U. after   12 cycles
 SCF Done:  E(RB3LYP) =  -571.568152941     A.U. after   11 cycles
 SCF Done:  E(RB3LYP) =  -571.568255266     A.U. after   11 cycles
 SCF Done:  E(RB3LYP) =  -571.568273252     A.U. after   10 cycles
 SCF Done:  E(RB3LYP) =  -571.568276000     A.U. after    9 cycles
 SCF Done:  E(RB3LYP) =  -571.568277924     A.U. after    8 cycles
 SCF Done:  E(RB3LYP) =  -571.568278515     A.U. after    9 cycles
 SCF Done:  E(RB3LYP) =  -571.568278812     A.U. after    7 cycles
 SCF Done:  E(RB3LYP) =  -571.568278878     A.U. after    7 cycles
 Optimization completed.
    -- Stationary point found.

 1\1\GINC-NODE201\FOpt\RB3LYP\6-31G(d)\C9H16N4\VSC10255\09-Dec-2020\0\\
 # opt freq B3LYP/6-31G(d) empiricaldispersion=gd3bj scf=xqc\\CID_10543
 9085_JID_3139_neutraal\\0,1\C,0.9573978714,-0.155999532,-0.0376672732\
 C,0.3752703513,0.537655166,-1.2815826857\C,1.0457262667,0.0278852243,-
 2.5716328487\C,-1.1249272909,0.3951404085,-1.3632204119\C,-1.931546842
 9,-0.7355783285,-1.3092530609\N,-3.229366608,-0.3588227381,-1.49463439
 74\N,-3.2864272205,0.927712577,-1.6625535696\N,-2.0140021786,1.4113952
 628,-1.5871818958\C,-1.8915370677,2.8370169207,-1.7516029432\C,-0.9590

 Normal termination of Gaussian 16 at Wed Dec  9 22:25:47 2020.

 --------------------------------------------------------------------
 #N Geom=AllCheck Guess=TCheck SCRF=Check GenChk RB3LYP/6-31G(d) Freq
 --------------------------------------------------------------------

 Structure from the checkpoint file:  "JID_3139.chk"
 -------------------------------
 CID_105439085_JID_3139_neutraal
 -------------------------------
 Charge =  0 Multiplicity = 1

 SCF Done:  E(RB3LYP) =  -571.568278877     A.U. after    1 cycles

  Exact polarizability: 142.421  -1.629 115.717  -2.202   1.853  89.379
 Approx polarizability: 195.621  -5.528 182.210  -6.320   4.704 132.868

                      1                      2                      3
                      A                      A                      A
 Frequencies --     56.6935                70.4048               109.7151
 Red. masses --      3.1918                 3.1442                 3.2844
 Frc consts  --      0.0060                 0.0092                 0.0233
 IR Inten    --      0.2570                 0.9890                 1.2774

                      4                      5                      6
                      A                      A                      A
 Frequencies --    126.1723               154.3269               170.1257
 Red. masses --      3.2995                 3.2374                 3.2951
 Frc consts  --      0.0309                 0.0454                 0.0562
 IR Inten    --      2.9353                 0.4841                 1.6228

                      7                      8                      9
                      A                      A                      A
 Frequencies --    186.2389               208.1415               228.3210
 Red. masses --      1.7162                 2.5284                 1.3239
 Frc consts  --      0.0351                 0.0645                 0.0407
 IR Inten    --     12.7614                 3.9516                13.8305

                     10                     11                     12
                      A                      A                      A
 Frequencies --    254.2220               273.9604               290.9410
 Red. masses --      1.2845                 1.1631                 2.6516
 Frc consts  --      0.0489                 0.0514                 0.1322
 IR Inten    --      8.1367                 7.3148                 0.7583

                     13                     14                     15
                      A                      A                      A
 Frequencies --    339.5332               348.6157               411.1607
 Red. masses --      3.1716                 2.3821                 2.9637
 Frc consts  --      0.2154                 0.1706                 0.2952
 IR Inten    --      1.2959                12.3013                 2.2867

                     16                     17                     18
                      A                      A                      A
 Frequencies --    456.2535               479.1846               502.7142
 Red. masses --      3.6362                 4.7453                 3.8740
 Frc consts  --      0.4460                 0.6420                 0.5768
 IR Inten    --      1.0924                 1.9244                 5.0775

                     19                     20                     21
                      A                      A                      A
 Frequencies --    596.2747               665.4241               699.7240
 Red. masses --      3.0314                 2.8191                10.0095
 Frc consts  --      0.6350                 0.7355                 2.8875
 IR Inten    --      3.8645                 3.4535                 0.1397

                     22                     23                     24
                      A                      A                      A
 Frequencies --    735.0747               775.2604               802.6198
 Red. masses --      2.5636                 3.7478                 1.2640
 Frc consts  --      0.8161                 1.3272                 0.4798
 IR Inten    --      9.1691                23.0927                 9.7400

                     25                     26                     27
                      A                      A                      A
 Frequencies --    827.4075               858.1717               902.3412
 Red. masses --      1.3310                 1.3501                 2.5106
 Frc consts  --      0.5369                 0.5858                 1.2044
 IR Inten    --     12.0908               120.7875                 0.1661

                     28                     29                     30
                      A                      A                      A
 Frequencies --    924.2599               944.8308               960.4530
 Red. masses --      3.2276                 1.2076                 3.2872
 Frc consts  --      1.6245                 0.6352                 1.7866
 IR Inten    --     10.3049                 0.0919                10.5781

                     31                     32                     33
                      A                      A                      A
 Frequencies --    977.4820               997.6763              1036.7348
 Red. masses --      1.4851                 2.0069                 3.2569
 Frc consts  --      0.8360                 1.1770                 2.0625
 IR Inten    --      0.1124                26.8422                 9.6797

                     34                     35                     36
                      A                      A                      A
 Frequencies --   1055.8133              1072.3615              1076.7175
 Red. masses --      2.6103                 1.4328                 2.2549
 Frc consts  --      1.7144                 0.9708                 1.5402
 IR Inten    --     42.0950                 3.1414                15.4664

                     37                     38                     39
                      A                      A                      A
 Frequencies --   1080.5622              1129.5056              1141.2159
 Red. masses --      1.3612                 2.8269                 2.3447
 Frc consts  --      0.9364                 2.1249                 1.7992
 IR Inten    --      2.2285                 9.6566                 2.2076

                     40                     41                     42
                      A                      A                      A
 Frequencies --   1144.6846              1165.0669              1170.8328
 Red. masses --      1.1253                 1.7221                 1.8601
 Frc consts  --      0.8687                 1.3772                 1.5023
 IR Inten    --      0.6293                 0.7881                 2.9198

                     43                     44                     45
                      A                      A                      A
 Frequencies --   1207.2295              1212.8663              1237.4059
 Red. masses --      1.3770                 1.9897                 2.1168
 Frc consts  --      1.1824                 1.7245                 1.9096
 IR Inten    --      1.1754                 3.2468                 1.6181

                     46                     47                     48
                      A                      A                      A
 Frequencies --   1263.2406              1321.7584              1338.9939
 Red. masses --      2.1219                 1.4772                 4.8889
 Frc consts  --      1.9950                 1.5205                 5.1643
 IR Inten    --      2.7458                 8.0347                34.8696

                     49                     50                     51
                      A                      A                      A
 Frequencies --   1359.6547              1381.6039              1393.5733
 Red. masses --      1.3300                 2.0803                 1.8775
 Frc consts  --      1.4486                 2.3396                 2.1483
 IR Inten    --      1.6145                 4.1999                 9.3976

                     52                     53                     54
                      A                      A                      A
 Frequencies --   1426.5557              1436.2622              1447.1493
 Red. masses --      1.2254                 1.4263                 1.2223
 Frc consts  --      1.4693                 1.7335                 1.5082
 IR Inten    --      4.3635                25.5769                 2.3203

                     55                     56                     57
                      A                      A                      A
 Frequencies --   1465.1554              1497.8961              1508.0363
 Red. masses --      1.9747                 1.0902                 3.8681
 Frc consts  --      2.4976                 1.4412                 5.1829
 IR Inten    --      2.6772                 4.4830                29.4293

                     58                     59                     60
                      A                      A                      A
 Frequencies --   1517.1677              1523.0296              1527.2218
 Red. masses --      1.0438                 1.0675                 1.0763
 Frc consts  --      1.4156                 1.4589                 1.4790
 IR Inten    --      0.3556                 2.9002                 2.0628

                     61                     62                     63
                      A                      A                      A
 Frequencies --   1538.4783              1540.0137              1544.0283
 Red. masses --      1.1676                 1.2627                 1.1206
 Frc consts  --      1.6283                 1.7643                 1.5740
 IR Inten    --      3.3004                10.9012                 8.4297

                     64                     65                     66
                      A                      A                      A
 Frequencies --   1602.7069              1691.0371              2966.7112
 Red. masses --      7.1046                 1.0931                 1.0732
 Frc consts  --     10.7522                 1.8418                 5.5654
 IR Inten    --      2.5085                23.3078                79.2767

                     67                     68                     69
                      A                      A                      A
 Frequencies --   3051.6258              3057.2557              3094.7092
 Red. masses --      1.0349                 1.0359                 1.0879
 Frc consts  --      5.6785                 5.7047                 6.1388
 IR Inten    --     25.0884                21.8241                21.9091

                     70                     71                     72
                      A                      A                      A
 Frequencies --   3106.9403              3120.0440              3123.5282
 Red. masses --      1.0856                 1.1028                 1.1025
 Frc consts  --      6.1744                 6.3250                 6.3374
 IR Inten    --      1.9445                 7.2972                46.7171

                     73                     74                     75
                      A                      A                      A
 Frequencies --   3129.9633              3141.9096              3161.5054
 Red. masses --      1.1019                 1.0982                 1.0543
 Frc consts  --      6.3599                 6.3875                 6.2089
 IR Inten    --     12.7589                49.2052                11.5494

                     76                     77                     78
                      A                      A                      A
 Frequencies --   3165.6166              3222.9247              3239.3000
 Red. masses --      1.0580                 1.0913                 1.1177
 Frc consts  --      6.2467                 6.6789                 6.9100
 IR Inten    --      9.1440                 0.9112                 1.7359

                     79                     80                     81
                      A                      A                      A
 Frequencies --   3251.8287              3466.4985              3559.3104
 Red. masses --      1.1129                 1.0492                 1.0926
 Frc consts  --      6.9338                 7.4287                 8.1551
 IR Inten    --     15.1052                 4.7190                 1.1626

 - Thermochemistry -
 -------------------
 Temperature   298.150 Kelvin.  Pressure   1.00000 Atm.
 Atom     1 has atomic number  6 and mass  12.00000

 Molecular mass:   180.13750 amu.
 Principal axes and moments of inertia in atomic units:
                           1         2         3
     Eigenvalues --  1562.832282839.094513712.37364
           X            0.99986   0.01670  -0.00058
           Y           -0.01670   0.99982  -0.00869
           Z            0.00043   0.00870   0.99996
 This molecule is an asymmetric top.
 Rotational symmetry number  1.
 Warning -- assumption of classical behavior for rotation
           may cause significant error
 Rotational temperatures (Kelvin)      0.05542     0.03051     0.02333
 Rotational constants (GHZ):           1.15479     0.63567     0.48614
 Zero-point vibrational energy     665410.5 (Joules/Mol)
                                  159.03694 (Kcal/Mol)
 Warning -- explicit consideration of  19 degrees of freedom as
           vibrations may cause significant error
 Vibrational temperatures:     81.57   101.30   157.86   181.53   222.04
          (Kelvin)            244.77   267.96   299.47   328.50   365.77
                              394.17   418.60   488.51   501.58   591.57
                              656.45   689.44   723.29   857.91   957.40
                             1006.75  1057.61  1115.43  1154.79  1190.45
                             1234.72  1298.27  1329.80  1359.40  1381.88
                             1406.38  1435.43  1491.63  1519.08  1542.89
                             1549.16  1554.69  1625.11  1641.96  1646.95
                             1676.27  1684.57  1736.93  1745.04  1780.35
                             1817.52  1901.72  1926.51  1956.24  1987.82
                             2005.04  2052.50  2066.46  2082.13  2108.03
                             2155.14  2169.73  2182.87  2191.30  2197.33
                             2213.53  2215.74  2221.51  2305.94  2433.03
                             4268.44  4390.61  4398.71  4452.60  4470.19
                             4489.05  4494.06  4503.32  4520.51  4548.70
                             4554.62  4637.07  4660.63  4678.66  4987.52
                             5121.05

 Zero-point correction=                           0.253441 (Hartree/Particle)
 Thermal correction to Energy=                    0.266787
 Thermal correction to Enthalpy=                  0.267731
 Thermal correction to Gibbs Free Energy=         0.214052
 Sum of electronic and zero-point Energies=           -571.314837
 Sum of electronic and thermal Energies=              -571.301492
 Sum of electronic and thermal Enthalpies=            -571.300547
 Sum of electronic and thermal Free Energies=         -571.354227

                     E (Thermal)             CV                S
                      KCal/Mol        Cal/Mol-Kelvin    Cal/Mol-Kelvin
 Total                  167.412             50.479            112.978
 Electronic               0.000              0.000              0.000
 Translational            0.889              2.981             41.472
 Rotational               0.889              2.981             31.177
 Vibrational            165.634             44.518             40.328
 Vibration     1          0.596              1.975              4.569
 Vibration     2          0.598              1.968              4.142
 Vibration     3          0.606              1.941              3.274
 Vibration     4          0.611              1.927              3.004
 Vibration     5          0.620              1.898              2.618
 Vibration     6          0.625              1.879              2.434
 Vibration     7          0.632              1.859              2.265
 Vibration     8          0.641              1.828              2.060
 Vibration     9          0.651              1.798              1.892
 Vibration    10          0.665              1.756              1.701
 Vibration    11          0.676              1.721              1.571
 Vibration    12          0.687              1.691              1.468
 Vibration    13          0.719              1.596              1.214
 Vibration    14          0.726              1.578              1.172
 Vibration    15          0.775              1.446              0.923
 Vibration    16          0.814              1.347              0.777
 Vibration    17          0.836              1.296              0.712
 Vibration    18          0.858              1.244              0.651
 Vibration    19          0.954              1.040              0.456

 Optimization completed.
    -- Stationary point found.

 1\1\GINC-NODE201\Freq\RB3LYP\6-31G(d)\C9H16N4\VSC10255\09-Dec-2020\0\\
 #N Geom=AllCheck Guess=TCheck SCRF=Check GenChk RB3LYP/6-31G(d) Freq\\
 CID_105439085_JID_3139_neutraal\\0,1\C,0.9573978714,-0.155999532,-0.03
 76672732\C,0.3752703513,0.537655166,-1.2815826857\C,1.0457262667,0.027
 8852243,-2.5716328487\C,-1.1249272909,0.3951404085,-1.3632204119\C,-1.
 9315468429,-0.7355783285,-1.3092530609\N,-3.229366608,-0.3588227381,-1
 .4946343974\N,-3.2864272205,0.927712577,-1.6625535696\N,-2.0140021786,
 1.4113952628,-1.5871818958\C,-1.8915370677,2.8370169207,-1.7516029432\

 Normal termination of Gaussian 16 at Wed Dec  9 22:33:46 2020.

 ----------------------------------------------------------------------
 # B3LYP/6-311++G(d,p) empiricaldispersion=gd3bj scf=xqc pop=npa geom=c
 heck
 ----------------------------------------------------------------------

 ---------------------------------------
 CID_105439085_JID_3139_Energie_neutraal
 ---------------------------------------
 Structure from the checkpoint file:  "JID_3139.chk"
 Charge =  0 Multiplicity = 1

 SCF Done:  E(RB3LYP) =  -571.729003613     A.U. after   14 cycles
 Normal termination of Gaussian 16 at Wed Dec  9 22:37:10 2020.

 ----------------------------------------------------------------------
 # B3LYP/6-311++G(d,p) empiricaldispersion=gd3bj scf=xqc pop=npa geom=c
 heck
 ----------------------------------------------------------------------

 -------------------------------------
 CID_105439085_JID_3139_Energie_kation
 -------------------------------------
 Structure from the checkpoint file:  "JID_3139.chk"
 Charge =  1 Multiplicity = 2

 SCF Done:  E(UB3LYP) =  -571.415624699     A.U. after   31 cycles
 Normal termination of Gaussian 16 at Wed Dec  9 22:47:48 2020.
 Gaussian 16:  ES64L-G16RevA.03 25-Dec-2016

 ------------------------------------
 CID_105439085_JID_3139_Energie_anion
 ------------------------------------
 Structure from the checkpoint file:  "JID_3139.chk"
 Charge = -1 Multiplicity = 2

                         Standard orientation:
 ---------------------------------------------------------------------
 Center     Atomic      Atomic             Coordinates (Angstroms)
 Number     Number       Type             X           Y           Z
 ---------------------------------------------------------------------
      1          6           0        0.896393    2.132267    1.001847
      2          6           0       -0.056146    1.492657   -0.023299
      3          6           0        0.106374    2.134458   -1.414444
      4          6           0        0.112052   -0.005161   -0.099578
      5          6           0        1.248631   -0.779879   -0.299758
      6          7           0        0.881450   -2.092359   -0.356536
      7          7           0       -0.405143   -2.188300   -0.207884
      8          7           0       -0.898311   -0.927156   -0.049778
      9          6           0       -2.324929   -0.847239    0.131337
     10          6           0       -2.989675    0.088240    1.102977
     11          6           0       -3.176020    0.277673   -0.389052
     12          6           0        2.686966   -0.379268   -0.428955
     13          7           0        3.380029   -0.440741    0.867598
     14          1           0        1.942776    2.020609    0.702893
     15          1           0        0.772669    1.677235    1.990308
     16          1           0        0.689880    3.204577    1.089635
     17          1           0       -1.069298    1.713514    0.319110
     18          1           0        1.115873    1.969020   -1.804572
     19          1           0       -0.601280    1.705993   -2.131746
     20          1           0       -0.065730    3.215553   -1.361450
     21          1           0       -2.720454   -1.852749    0.053741
     22          1           0       -3.815222   -0.305006    1.688835
     23          1           0       -2.369047    0.800240    1.637206
     24          1           0       -2.688094    1.121566   -0.864155
     25          1           0       -4.130317    0.012040   -0.834326
     26          1           0        3.172425   -1.101097   -1.093651
     27          1           0        2.747329    0.604818   -0.925196
     28          1           0        4.345617   -0.136162    0.751854
     29          1           0        2.944819    0.207246    1.521253
 ---------------------------------------------------------------------

 SCF Done:  E(UB3LYP) =  -571.719771557     A.U. after   31 cycles

 The electronic state is 2-A.
 Alpha  occ. eigenvalues --  -14.30543 -14.26446 -14.22967 -14.19962 -10.13787
 Alpha  occ. eigenvalues --  -10.12200 -10.10577 -10.10202 -10.09580 -10.09385
 Alpha  occ. eigenvalues --  -10.09353 -10.07068 -10.06966  -0.99533  -0.83363
 Alpha  occ. eigenvalues --   -0.79141  -0.76316  -0.73529  -0.68115  -0.60358
 Alpha  occ. eigenvalues --   -0.59786  -0.56242  -0.52770  -0.52684  -0.49992
 Alpha  occ. eigenvalues --   -0.46968  -0.43183  -0.40646  -0.39621  -0.37793
 Alpha  occ. eigenvalues --   -0.37075  -0.36034  -0.35003  -0.33469  -0.32075
 Alpha  occ. eigenvalues --   -0.31328  -0.29755  -0.28894  -0.28586  -0.27359
 Alpha  occ. eigenvalues --   -0.25961  -0.25463  -0.24836  -0.23695  -0.22202
 Alpha  occ. eigenvalues --   -0.17395  -0.17191  -0.15079  -0.14994   0.03989
 Alpha virt. eigenvalues --    0.05824   0.06991   0.07391   0.08507   0.08967
 Alpha virt. eigenvalues --    0.09155   0.09649   0.10259   0.10384   0.11768
 Alpha virt. eigenvalues --    0.12111   0.12969   0.13227   0.13492   0.13843

  Beta  occ. eigenvalues --  -14.30541 -14.26447 -14.22964 -14.19936 -10.13782
  Beta  occ. eigenvalues --  -10.12192 -10.10561 -10.10189 -10.09580 -10.09357
  Beta  occ. eigenvalues --  -10.09325 -10.07028 -10.06920  -0.99529  -0.83351
  Beta  occ. eigenvalues --   -0.79099  -0.76297  -0.73499  -0.68085  -0.60317
  Beta  occ. eigenvalues --   -0.59705  -0.56217  -0.52708  -0.52602  -0.49962
  Beta  occ. eigenvalues --   -0.46931  -0.43160  -0.40583  -0.39586  -0.37772
  Beta  occ. eigenvalues --   -0.37040  -0.35985  -0.34950  -0.33441  -0.32020
  Beta  occ. eigenvalues --   -0.31304  -0.29711  -0.28858  -0.28561  -0.27312
  Beta  occ. eigenvalues --   -0.25919  -0.25447  -0.24785  -0.23670  -0.22177
  Beta  occ. eigenvalues --   -0.17373  -0.17184  -0.15055  -0.14975
  Beta virt. eigenvalues --    0.06423   0.06874   0.07834   0.08044   0.08756
  Beta virt. eigenvalues --    0.09209   0.09705   0.10132   0.10615   0.10915
  Beta virt. eigenvalues --    0.12197   0.12542   0.13316   0.13514   0.13813

 Mulliken charges and spin densities:
               1          2
     1  C    1.141657  -1.854012
     2  C   -2.259287   2.760266
     3  C    0.904986  -1.525531
     4  C    0.866099  -1.163679
     5  C   -0.513207   0.395016
     6  N   -0.112402   0.033984
     7  N    0.085415  -0.065043
     8  N    0.226829  -0.032992
     9  C   -1.980455   1.872350
    10  C    1.273400  -1.607455
    11  C    1.199375  -1.534125
    12  C    0.719350  -1.289971
    13  N   -0.426093   0.081780
    14  H   -0.355803   0.502351
    15  H   -0.021287   0.177670
    16  H   -0.659515   0.834307
    17  H    0.591544  -0.444301
    18  H    0.061432   0.068633
    19  H    0.075073   0.062983
    20  H   -0.534008   0.706103
    21  H   -0.013802   0.280126
    22  H   -0.330183   0.508542
    23  H   -0.326519   0.496422
    24  H   -0.357848   0.530795
    25  H   -0.466252   0.651498
    26  H    0.203783  -0.019198
    27  H   -0.180979   0.316184
    28  H   -0.008702   0.233373
    29  H    0.197396   0.023923
 Sum of Mulliken charges =  -1.00000   1.00000

 Dipole moment (field-independent basis, Debye):
    X=              1.1855    Y=             -2.8614    Z=             -1.1966  Tot=              3.3204
 Quadrupole moment (field-independent basis, Debye-Ang):
   XX=           -145.6204   YY=           -143.7152   ZZ=           -110.3843
   XY=              4.3250   XZ=             -1.9496   YZ=             -0.4130

 Summary of Natural Population Analysis:

                                       Natural Population
                Natural  -----------------------------------------------
    Atom  No    Charge         Core      Valence    Rydberg      Total
 -----------------------------------------------------------------------
      C    1   -0.27931      0.99965     2.27308    0.00659     3.27931
      C    2   -0.13576      0.99958     2.12501    0.01117     3.13576
      C    3   -0.27707      0.99964     2.27153    0.00590     3.27707
      C    4    0.08390      0.99945     1.90381    0.01284     2.91610
      C    5    0.03867      0.99949     1.94806    0.01378     2.96133
      N    6   -0.13304      0.99972     2.61885    0.01447     3.63304
      N    7   -0.05054      0.99978     2.53632    0.01443     3.55054
      N    8   -0.10463      0.99960     2.59180    0.01323     3.60463
      C    9   -0.01344      0.99956     2.00080    0.01308     3.01344
      C   10   -0.19834      0.99963     2.18943    0.00928     3.19834
      C   11   -0.19968      0.99963     2.19055    0.00950     3.19968
      C   12   -0.10503      0.99959     2.09326    0.01217     3.10503
      N   13   -0.41513      0.99977     2.90565    0.00971     3.91513
      H   14    0.09802      0.00000     0.40010    0.00188     0.40198
      H   15    0.10043      0.00000     0.39826    0.00131     0.39957
      H   16    0.10583      0.00000     0.39232    0.00185     0.39417
      H   17    0.10361      0.00000     0.39248    0.00391     0.39639
      H   18    0.09857      0.00000     0.40017    0.00126     0.40143
      H   19    0.09964      0.00000     0.39925    0.00111     0.40036
      H   20    0.10428      0.00000     0.39420    0.00152     0.39572
      H   21    0.11534      0.00000     0.38269    0.00197     0.38466
      H   22    0.10754      0.00000     0.39119    0.00127     0.39246
      H   23    0.10780      0.00000     0.39083    0.00137     0.39220
      H   24    0.10885      0.00000     0.38968    0.00147     0.39115
      H   25    0.10772      0.00000     0.39091    0.00138     0.39228
      H   26    0.10007      0.00000     0.39855    0.00138     0.39993
      H   27    0.08514      0.00000     0.41303    0.00184     0.41486
      H   28    0.17261      0.00000     0.32567    0.00172     0.32739
      H   29    0.17396      0.00000     0.32403    0.00201     0.32604
 =======================================================================
   * Total *   -0.00000     12.99510    35.83151    0.17339    49.00000

 Normal termination of Gaussian 16 at Wed Dec  9 23:00:57 2020.
