 Gaussian 16, Revision A.03,

 -----------------------------------------------------------
 # opt freq B3LYP/6-31G(d) empiricaldispersion=gd3bj scf=xqc
 -----------------------------------------------------------

 ------------------------------
 CID_44604684_JID_6655_neutraal
 ------------------------------
 Symbolic Z-matrix:
 Charge =  0 Multiplicity = 1

 SCF Done:  E(RB3LYP) =  -1369.24283648     A.U. after   15 cycles
 SCF Done:  E(RB3LYP) =  -1369.25039534     A.U. after   13 cycles
 SCF Done:  E(RB3LYP) =  -1369.25162659     A.U. after   12 cycles
 SCF Done:  E(RB3LYP) =  -1369.25191123     A.U. after   12 cycles
 SCF Done:  E(RB3LYP) =  -1369.25195922     A.U. after   11 cycles
 SCF Done:  E(RB3LYP) =  -1369.25198014     A.U. after   10 cycles
 SCF Done:  E(RB3LYP) =  -1369.25198327     A.U. after    9 cycles
 SCF Done:  E(RB3LYP) =  -1369.25198444     A.U. after    8 cycles
 SCF Done:  E(RB3LYP) =  -1369.25198493     A.U. after    8 cycles
 SCF Done:  E(RB3LYP) =  -1369.25198515     A.U. after    8 cycles
 SCF Done:  E(RB3LYP) =  -1369.25198517     A.U. after    7 cycles
 Optimization completed.
    -- Stationary point found.
 Normal termination of Gaussian 16 at Fri Dec 11 00:02:43 2020.

 --------------------------------------------------------------------
 #N Geom=AllCheck Guess=TCheck SCRF=Check GenChk RB3LYP/6-31G(d) Freq
 --------------------------------------------------------------------

 Structure from the checkpoint file:  "JID_6655.chk"
 ------------------------------
 CID_44604684_JID_6655_neutraal
 ------------------------------
 Charge =  0 Multiplicity = 1

 SCF Done:  E(RB3LYP) =  -1369.25198517     A.U. after    1 cycles

  Exact polarizability: 277.004  13.020 208.534   0.604  -2.536  72.942
 Approx polarizability: 392.230  35.593 388.324   0.933  -3.629 119.085

                      1                      2                      3
                      A                      A                      A
 Frequencies --     30.1312                54.0542                89.8419
 Red. masses --      4.0562                 4.1325                 7.8847
 Frc consts  --      0.0022                 0.0071                 0.0375
 IR Inten    --      0.6418                 2.4136                 1.2164

                      4                      5                      6
                      A                      A                      A
 Frequencies --    110.5767               144.3408               169.9297
 Red. masses --      6.6894                 2.7224                 6.0410
 Frc consts  --      0.0482                 0.0334                 0.1028
 IR Inten    --      2.0817                 0.4385                 4.1110

                      7                      8                      9
                      A                      A                      A
 Frequencies --    205.5287               224.0987               279.0904
 Red. masses --      3.5084                10.4011                 4.3112
 Frc consts  --      0.0873                 0.3078                 0.1978
 IR Inten    --      0.6452                 2.0928                 0.5013

                     10                     11                     12
                      A                      A                      A
 Frequencies --    288.6025               317.5130               413.0952
 Red. masses --      6.9596                 5.6171                 3.0337
 Frc consts  --      0.3415                 0.3336                 0.3050
 IR Inten    --      1.1823                 3.0901                 0.0487

                     13                     14                     15
                      A                      A                      A
 Frequencies --    420.6811               467.0238               494.8991
 Red. masses --     10.8106                 4.3335                 7.9342
 Frc consts  --      1.1272                 0.5569                 1.1449
 IR Inten    --      5.4603                 1.1209                 3.3066

                     16                     17                     18
                      A                      A                      A
 Frequencies --    519.4996               580.7526               593.8285
 Red. masses --      4.9866                 7.2947                 7.8596
 Frc consts  --      0.7929                 1.4496                 1.6330
 IR Inten    --      0.6060                 0.0855                 1.3204

                     19                     20                     21
                      A                      A                      A
 Frequencies --    634.0786               646.7594               649.1316
 Red. masses --      6.3977                 6.8086                 5.2982
 Frc consts  --      1.5155                 1.6780                 1.3154
 IR Inten    --      0.6151                14.1477                 0.8232

                     22                     23                     24
                      A                      A                      A
 Frequencies --    695.2304               703.5638               734.8250
 Red. masses --      4.0117                 1.7505                 3.6378
 Frc consts  --      1.1424                 0.5105                 1.1573
 IR Inten    --      7.7494                21.8954                12.0249

                     25                     26                     27
                      A                      A                      A
 Frequencies --    760.3714               781.8393               818.0962
 Red. masses --      3.0498                 1.3687                 2.6140
 Frc consts  --      1.0389                 0.4930                 1.0308
 IR Inten    --      9.4775                41.7456                 4.1199

                     28                     29                     30
                      A                      A                      A
 Frequencies --    836.9329               860.0996               901.7964
 Red. masses --      5.3298                 1.2539                 2.1963
 Frc consts  --      2.1996                 0.5465                 1.0523
 IR Inten    --     25.5478                 0.7602                 3.7756

                     31                     32                     33
                      A                      A                      A
 Frequencies --    906.5724               941.2852               981.3561
 Red. masses --      6.0838                 1.4159                 1.3363
 Frc consts  --      2.9460                 0.7391                 0.7582
 IR Inten    --     41.6254                 1.1184                 0.8640

                     34                     35                     36
                      A                      A                      A
 Frequencies --   1000.9907              1011.6536              1021.6955
 Red. masses --      2.3573                 1.2950                 5.9831
 Frc consts  --      1.3916                 0.7809                 3.6798
 IR Inten    --      4.9864                 1.2393                 3.1180

                     37                     38                     39
                      A                      A                      A
 Frequencies --   1041.7531              1055.4650              1068.1460
 Red. masses --      1.4199                 3.2683                 2.1923
 Frc consts  --      0.9079                 2.1452                 1.4737
 IR Inten    --      7.0297                 9.1147                 2.1154

                     40                     41                     42
                      A                      A                      A
 Frequencies --   1120.0245              1148.7152              1180.5113
 Red. masses --      1.6267                 4.4906                 2.8585
 Frc consts  --      1.2023                 3.4913                 2.3471
 IR Inten    --      5.7064                42.6670                80.7323

                     43                     44                     45
                      A                      A                      A
 Frequencies --   1184.9529              1196.2226              1217.4780
 Red. masses --      1.5338                 1.1038                 1.2164
 Frc consts  --      1.2689                 0.9306                 1.0623
 IR Inten    --      0.1429                 0.4422                15.0055

                     46                     47                     48
                      A                      A                      A
 Frequencies --   1236.9091              1256.5373              1297.6085
 Red. masses --      1.9414                 1.5685                 1.7650
 Frc consts  --      1.7500                 1.4591                 1.7510
 IR Inten    --     14.9685                 3.3686                22.1679

                     49                     50                     51
                      A                      A                      A
 Frequencies --   1323.1872              1328.6585              1366.7359
 Red. masses --      2.3801                 2.0090                 1.7393
 Frc consts  --      2.4552                 2.0896                 1.9142
 IR Inten    --    169.4623                95.8657               126.4106

                     52                     53                     54
                      A                      A                      A
 Frequencies --   1375.1318              1390.9584              1443.8918
 Red. masses --      3.7660                 2.2079                 4.2399
 Frc consts  --      4.1958                 2.5168                 5.2081
 IR Inten    --     31.7039                79.7447                53.2633

                     55                     56                     57
                      A                      A                      A
 Frequencies --   1490.0348              1513.7086              1526.3679
 Red. masses --      2.3111                 1.1813                 1.4835
 Frc consts  --      3.0232                 1.5947                 2.0363
 IR Inten    --     64.5671                 6.2586               117.7405

                     58                     59                     60
                      A                      A                      A
 Frequencies --   1533.7011              1553.6366              1628.5666
 Red. masses --      1.8637                 2.5862                 6.6782
 Frc consts  --      2.5830                 3.6780                10.4358
 IR Inten    --    258.4966               132.9610               521.0720

                     61                     62                     63
                      A                      A                      A
 Frequencies --   1647.7211              1665.0786              3080.2131
 Red. masses --      6.2069                 5.6883                 1.0683
 Frc consts  --      9.9287                 9.2919                 5.9718
 IR Inten    --    182.1340                 6.9897                 7.8343

                     64                     65                     66
                      A                      A                      A
 Frequencies --   3103.8799              3152.9927              3171.5517
 Red. masses --      1.0613                 1.0978                 1.1071
 Frc consts  --      6.0241                 6.4301                 6.5612
 IR Inten    --     14.8554                 2.5803                 3.3551

                     67                     68                     69
                      A                      A                      A
 Frequencies --   3187.8207              3198.0275              3207.9126
 Red. masses --      1.0853                 1.0889                 1.0927
 Frc consts  --      6.4984                 6.5612                 6.6253
 IR Inten    --      0.4188                 9.4345                33.9827

                     70                     71                     72
                      A                      A                      A
 Frequencies --   3216.2138              3238.6022              3265.4688
 Red. masses --      1.0963                 1.0925                 1.0915
 Frc consts  --      6.6814                 6.7516                 6.8576
 IR Inten    --     20.3959                 4.0672                 0.4466

 - Thermochemistry -
 -------------------
 Temperature   298.150 Kelvin.  Pressure   1.00000 Atm.
 Atom     1 has atomic number  6 and mass  12.00000

 Molecular mass:   246.02854 amu.
 Principal axes and moments of inertia in atomic units:
                           1         2         3
     Eigenvalues --  2247.682506951.873849133.37706
           X            1.00000   0.00089   0.00175
           Y           -0.00088   0.99998  -0.00581
           Z           -0.00176   0.00581   0.99998
 This molecule is an asymmetric top.
 Rotational symmetry number  1.
 Warning -- assumption of classical behavior for rotation
           may cause significant error
 Rotational temperatures (Kelvin)      0.03853     0.01246     0.00948
 Rotational constants (GHZ):           0.80293     0.25960     0.19760
 Zero-point vibrational energy     519802.3 (Joules/Mol)
                                  124.23572 (Kcal/Mol)
 Warning -- explicit consideration of  18 degrees of freedom as
           vibrations may cause significant error
 Vibrational temperatures:     43.35    77.77   129.26   159.10   207.67
          (Kelvin)            244.49   295.71   322.43   401.55   415.23
                              456.83   594.35   605.27   671.94   712.05
                              747.44   835.57   854.39   912.30   930.54
                              933.96  1000.28  1012.27  1057.25  1094.00
                             1124.89  1177.06  1204.16  1237.49  1297.48
                             1304.36  1354.30  1411.95  1440.20  1455.54
                             1469.99  1498.85  1518.58  1536.82  1611.47
                             1652.74  1698.49  1704.88  1721.10  1751.68
                             1779.64  1807.88  1866.97  1903.77  1911.64
                             1966.43  1978.51  2001.28  2077.44  2143.83
                             2177.89  2196.10  2206.65  2235.34  2343.14
                             2370.70  2395.68  4431.74  4465.79  4536.45
                             4563.16  4586.56  4601.25  4615.47  4627.41
                             4659.63  4698.28

 Zero-point correction=                           0.197982 (Hartree/Particle)
 Thermal correction to Energy=                    0.210951
 Thermal correction to Enthalpy=                  0.211895
 Thermal correction to Gibbs Free Energy=         0.156769
 Sum of electronic and zero-point Energies=          -1369.054003
 Sum of electronic and thermal Energies=             -1369.041034
 Sum of electronic and thermal Enthalpies=           -1369.040090
 Sum of electronic and thermal Free Energies=        -1369.095216

                     E (Thermal)             CV                S
                      KCal/Mol        Cal/Mol-Kelvin    Cal/Mol-Kelvin
 Total                  132.374             50.401            116.024
 Electronic               0.000              0.000              0.000
 Translational            0.889              2.981             42.402
 Rotational               0.889              2.981             33.323
 Vibrational            130.596             44.439             40.300
 Vibration     1          0.594              1.984              5.821
 Vibration     2          0.596              1.976              4.663
 Vibration     3          0.602              1.956              3.664
 Vibration     4          0.606              1.941              3.259
 Vibration     5          0.616              1.909              2.746
 Vibration     6          0.625              1.879              2.436
 Vibration     7          0.640              1.832              2.083
 Vibration     8          0.649              1.804              1.926
 Vibration     9          0.679              1.712              1.539
 Vibration    10          0.685              1.695              1.482
 Vibration    11          0.704              1.640              1.323
 Vibration    12          0.777              1.442              0.916
 Vibration    13          0.783              1.425              0.890
 Vibration    14          0.824              1.323              0.746
 Vibration    15          0.851              1.261              0.671
 Vibration    16          0.874              1.207              0.611
 Vibration    17          0.937              1.073              0.484
 Vibration    18          0.951              1.045              0.460

 Optimization completed.
    -- Stationary point found.
 Normal termination of Gaussian 16 at Fri Dec 11 00:10:31 2020.

 ----------------------------------------------------------------------
 # B3LYP/6-311++G(d,p) empiricaldispersion=gd3bj scf=xqc pop=npa geom=c
 heck
 ----------------------------------------------------------------------

 --------------------------------------
 CID_44604684_JID_6655_Energie_neutraal
 --------------------------------------
 Structure from the checkpoint file:  "JID_6655.chk"
 Charge =  0 Multiplicity = 1

 SCF Done:  E(RB3LYP) =  -1369.44564550     A.U. after   16 cycles
 Normal termination of Gaussian 16 at Fri Dec 11 00:13:55 2020.

 ----------------------------------------------------------------------
 # B3LYP/6-311++G(d,p) empiricaldispersion=gd3bj scf=xqc pop=npa geom=c
 heck
 ----------------------------------------------------------------------

 ------------------------------------
 CID_44604684_JID_6655_Energie_kation
 ------------------------------------
 Structure from the checkpoint file:  "JID_6655.chk"
 Charge =  1 Multiplicity = 2

 SCF Done:  E(UB3LYP) =  -1369.16810664     A.U. after   33 cycles
 SCF Done:  E(UB3LYP) =  -1369.16863641     a.u. after    5 cycles
 Normal termination of Gaussian 16 at Fri Dec 11 00:46:28 2020.
 Gaussian 16:  ES64L-G16RevA.03 25-Dec-2016

 ----------------------------------------------------------------------
 # B3LYP/6-311++G(d,p) empiricaldispersion=gd3bj scf=xqc pop=npa geom=c
 heck
 ----------------------------------------------------------------------

 -----------------------------------
 CID_44604684_JID_6655_Energie_anion
 -----------------------------------
 Structure from the checkpoint file:  "JID_6655.chk"
 Charge = -1 Multiplicity = 2

                         Standard orientation:
 ---------------------------------------------------------------------
 Center     Atomic      Atomic             Coordinates (Angstroms)
 Number     Number       Type             X           Y           Z
 ---------------------------------------------------------------------
      1          6           0        3.375022    0.342653   -0.007650
      2          6           0        3.912504   -1.038048    0.368553
      3         16           0        2.645498   -2.241907   -0.221899
      4          6           0        1.398659   -1.006335   -0.092861
      5          6           0        0.045638   -1.205987   -0.140207
      6          6           0       -0.769820   -0.045595   -0.021619
      7          7           0       -0.257115    1.173208    0.065969
      8          6           0        1.081584    1.389869    0.045682
      9         16           0        1.763246    2.919618    0.011129
     10          7           0        1.911364    0.249480    0.046401
     11          6           0       -2.247578   -0.146183    0.002973
     12          6           0       -2.907247   -1.371113    0.188523
     13          6           0       -4.298662   -1.430511    0.205171
     14          6           0       -5.050944   -0.267678    0.033997
     15          6           0       -4.403426    0.957109   -0.145818
     16          6           0       -3.014185    1.020027   -0.157789
     17          1           0        3.668966    0.644038   -1.019157
     18          1           0        3.702167    1.123468    0.680066
     19          1           0        4.864518   -1.252936   -0.118112
     20          1           0        4.024206   -1.149438    1.449755
     21          1           0       -0.358391   -2.200563   -0.259491
     22          1           0       -2.341197   -2.283217    0.345816
     23          1           0       -4.794885   -2.384679    0.356630
     24          1           0       -6.136175   -0.315259    0.044357
     25          1           0       -4.983956    1.865632   -0.277084
     26          1           0       -2.494176    1.961506   -0.290770
 ---------------------------------------------------------------------

 SCF Done:  E(UB3LYP) =  -1369.48022065     A.U. after   23 cycles

 The electronic state is 2-A.
 Alpha  occ. eigenvalues --  -88.75909 -88.64282 -14.23994 -14.14773 -10.12902
 Alpha  occ. eigenvalues --  -10.12076 -10.11938 -10.11156 -10.06524 -10.05390
 Alpha  occ. eigenvalues --  -10.05017 -10.04852 -10.04751 -10.04653 -10.04649
 Alpha  occ. eigenvalues --  -10.03632  -7.84559  -7.73097  -5.80933  -5.80587
 Alpha  occ. eigenvalues --   -5.79954  -5.69483  -5.68972  -5.68623  -0.88503
 Alpha  occ. eigenvalues --   -0.78646  -0.73170  -0.70932  -0.68310  -0.64213
 Alpha  occ. eigenvalues --   -0.62318  -0.60448  -0.57847  -0.53343  -0.51310
 Alpha  occ. eigenvalues --   -0.48589  -0.47491  -0.45344  -0.40532  -0.40015
 Alpha  occ. eigenvalues --   -0.39413  -0.37006  -0.34313  -0.32450  -0.32164
 Alpha  occ. eigenvalues --   -0.31823  -0.31529  -0.29928  -0.29301  -0.28752
 Alpha  occ. eigenvalues --   -0.27329  -0.25366  -0.24464  -0.23269  -0.22086
 Alpha  occ. eigenvalues --   -0.21592  -0.21465  -0.18762  -0.13817  -0.13442
 Alpha  occ. eigenvalues --   -0.12099  -0.11770  -0.07564  -0.06871   0.01777
 Alpha virt. eigenvalues --    0.06769   0.07926   0.08924   0.09199   0.09852
 Alpha virt. eigenvalues --    0.09955   0.10153   0.11155   0.11375   0.11914
 Alpha virt. eigenvalues --    0.12172   0.12836   0.13034   0.14261   0.14325

  Beta  occ. eigenvalues --  -88.75899 -88.64260 -14.23662 -14.14613 -10.12819
  Beta  occ. eigenvalues --  -10.11923 -10.11756 -10.11173 -10.06038 -10.05455
  Beta  occ. eigenvalues --  -10.05084 -10.04991 -10.04682 -10.04591 -10.04422
  Beta  occ. eigenvalues --  -10.03477  -7.84550  -7.73078  -5.80928  -5.80590
  Beta  occ. eigenvalues --   -5.79915  -5.69476  -5.68901  -5.68611  -0.87976
  Beta  occ. eigenvalues --   -0.78129  -0.72941  -0.70620  -0.68044  -0.63809
  Beta  occ. eigenvalues --   -0.62125  -0.60258  -0.57784  -0.53192  -0.50658
  Beta  occ. eigenvalues --   -0.48452  -0.47319  -0.45070  -0.40337  -0.39749
  Beta  occ. eigenvalues --   -0.39247  -0.36766  -0.34052  -0.32136  -0.32055
  Beta  occ. eigenvalues --   -0.31458  -0.31335  -0.29857  -0.29132  -0.28246
  Beta  occ. eigenvalues --   -0.26894  -0.24793  -0.24146  -0.23109  -0.21995
  Beta  occ. eigenvalues --   -0.21339  -0.20293  -0.17429  -0.13185  -0.12863
  Beta  occ. eigenvalues --   -0.11613  -0.11101  -0.06941  -0.06790
  Beta virt. eigenvalues --    0.06767   0.07472   0.07917   0.08960   0.09483
  Beta virt. eigenvalues --    0.09887   0.10126   0.10191   0.11224   0.11836
  Beta virt. eigenvalues --    0.11979   0.12725   0.12989   0.13386   0.14284

 Mulliken charges and spin densities:
               1          2
     1  C   -0.327062  -0.020262
     2  C   -0.536974   0.011401
     3  S   -0.638645   0.019547
     4  C    0.493823   0.225187
     5  C   -0.541898  -0.112076
     6  C   -0.001677   0.294252
     7  N    0.158659   0.083371
     8  C    0.196977   0.051214
     9  S   -0.761365   0.042624
    10  N    0.364178   0.112487
    11  C    1.515363  -0.063537
    12  C   -1.151367   0.112195
    13  C   -0.327045  -0.040983
    14  C   -0.387180   0.180332
    15  C   -0.514543  -0.046655
    16  C    0.023044   0.148239
    17  H    0.185669   0.010124
    18  H    0.126677   0.002119
    19  H    0.161810  -0.002110
    20  H    0.212321   0.001467
    21  H    0.150181   0.014822
    22  H    0.043607  -0.008100
    23  H    0.134866   0.003005
    24  H    0.099021  -0.013740
    25  H    0.133261   0.003073
    26  H    0.188299  -0.007995
 Sum of Mulliken charges =  -1.00000   1.00000

 Dipole moment (field-independent basis, Debye):
    X=              2.8992    Y=             -6.4032    Z=              0.3205  Tot=              7.0362
 Quadrupole moment (field-independent basis, Debye-Ang):
   XX=           -136.6089   YY=           -142.4978   ZZ=           -118.8353
   XY=             -9.2999   XZ=              2.1200   YZ=             -1.7126

 Summary of Natural Population Analysis:

                                       Natural Population
                Natural  -----------------------------------------------
    Atom  No    Charge         Core      Valence    Rydberg      Total
 -----------------------------------------------------------------------
      C    1   -0.09405      0.99963     2.08305    0.01137     3.09405
      C    2   -0.24308      0.99960     2.23592    0.00756     3.24308
      S    3    0.11935      4.99955     2.86149    0.01961     7.88065
      C    4    0.11383      0.99947     1.87461    0.01209     2.88617
      C    5   -0.19541      0.99946     2.18676    0.00919     3.19541
      C    6    0.21580      0.99952     1.77151    0.01317     2.78420
      N    7   -0.25017      0.99962     2.73607    0.01448     3.75017
      C    8    0.15369      0.99964     1.82810    0.01857     2.84631
      S    9   -0.15785      4.99957     3.14342    0.01486     8.15785
      N   10   -0.19482      0.99955     2.68109    0.01418     3.69482
      C   11   -0.04207      0.99950     2.03283    0.00974     3.04207
      C   12   -0.05739      0.99944     2.05018    0.00777     3.05739
      C   13   -0.13200      0.99960     2.12267    0.00973     3.13200
      C   14   -0.06768      0.99960     2.05777    0.01031     3.06768
      C   15   -0.11663      0.99944     2.10788    0.00931     3.11663
      C   16   -0.05626      0.99956     2.04717    0.00954     3.05626
      H   17    0.10125      0.00000     0.39743    0.00131     0.39875
      H   18    0.11736      0.00000     0.38082    0.00182     0.38264
      H   19    0.10319      0.00000     0.39568    0.00113     0.39681
      H   20    0.09854      0.00000     0.40012    0.00133     0.40146
      H   21    0.10388      0.00000     0.39463    0.00149     0.39612
      H   22    0.09113      0.00000     0.40709    0.00177     0.40887
      H   23    0.09166      0.00000     0.40719    0.00114     0.40834
      H   24    0.08837      0.00000     0.41051    0.00112     0.41163
      H   25    0.09262      0.00000     0.40621    0.00118     0.40738
      H   26    0.11680      0.00000     0.38222    0.00097     0.38320
 =======================================================================
   * Total *    0.00005     23.99278    39.80244    0.20473    63.99995

 Normal termination of Gaussian 16 at Fri Dec 11 00:52:57 2020.
