 Gaussian 16, Revision A.03,

 -----------------------------------------------------------
 # opt freq B3LYP/6-31G(d) empiricaldispersion=gd3bj scf=xqc
 -----------------------------------------------------------

 -----------------------------
 CID_4345417_JID_9394_neutraal
 -----------------------------
 Symbolic Z-matrix:
 Charge =  0 Multiplicity = 1

 SCF Done:  E(RB3LYP) =  -1198.72497386     A.U. after   16 cycles
 SCF Done:  E(RB3LYP) =  -1198.09972574     A.U. after   20 cycles
 SCF Done:  E(RB3LYP) =  -1198.72236690     A.U. after   15 cycles
 SCF Done:  E(RB3LYP) =  -1198.73001509     A.U. after   11 cycles
 SCF Done:  E(RB3LYP) =  -1198.73219165     A.U. after   12 cycles
 SCF Done:  E(RB3LYP) =  -1198.73329394     A.U. after   13 cycles
 SCF Done:  E(RB3LYP) =  -1198.73430515     A.U. after   13 cycles
 SCF Done:  E(RB3LYP) =  -1198.73464911     A.U. after   12 cycles
 SCF Done:  E(RB3LYP) =  -1198.73538047     A.U. after   12 cycles
 SCF Done:  E(RB3LYP) =  -1198.73572280     A.U. after   13 cycles
 SCF Done:  E(RB3LYP) =  -1198.73665344     A.U. after    6 cycles
 SCF Done:  E(RB3LYP) =  -1198.73665344     A.U. after    7 cycles
 SCF Done:  E(RB3LYP) =  -1198.73665344     A.U. after    7 cycles
 SCF Done:  E(RB3LYP) =  -1198.73665344     A.U. after    7 cycles
 Optimization completed.
    -- Stationary point found.
 Normal termination of Gaussian 16 at Sat Dec 12 10:37:42 2020.

 --------------------------------------------------------------------
 #N Geom=AllCheck Guess=TCheck SCRF=Check GenChk RB3LYP/6-31G(d) Freq
 --------------------------------------------------------------------

 Structure from the checkpoint file:  "JID_9394.chk"
 -----------------------------
 CID_4345417_JID_9394_neutraal
 -----------------------------
 Charge =  0 Multiplicity = 1

 SCF Done:  E(RB3LYP) =  -1198.73665344     A.U. after    1 cycles

  Exact polarizability: 248.968  15.815 140.626  -3.671 -23.505 153.249
 Approx polarizability: 397.837  32.485 205.930 -15.349 -53.576 263.621

                      1                      2                      3
                      A                      A                      A
 Frequencies --     11.1591                31.3838                43.8899
 Red. masses --      4.8799                 4.4435                 4.7278
 Frc consts  --      0.0004                 0.0026                 0.0054
 IR Inten    --      0.7699                 0.2465                 2.1597

                      4                      5                      6
                      A                      A                      A
 Frequencies --     49.8970                63.8283                77.5459
 Red. masses --      2.4162                 2.9159                 1.0674
 Frc consts  --      0.0035                 0.0070                 0.0038
 IR Inten    --      0.7218                 1.0193                 0.3069

                      7                      8                      9
                      A                      A                      A
 Frequencies --     81.9050                92.5725               102.5264
 Red. masses --      1.9403                 4.0333                 5.0049
 Frc consts  --      0.0077                 0.0204                 0.0310
 IR Inten    --      0.4884                 1.3457                 0.8220

                     10                     11                     12
                      A                      A                      A
 Frequencies --    132.6667               146.6181               164.8678
 Red. masses --      3.3184                 3.3712                 1.4561
 Frc consts  --      0.0344                 0.0427                 0.0233
 IR Inten    --      1.1209                 0.3387                 0.4906

                     13                     14                     15
                      A                      A                      A
 Frequencies --    181.9455               215.3776               257.8556
 Red. masses --      3.4175                 2.8529                 1.2364
 Frc consts  --      0.0667                 0.0780                 0.0484
 IR Inten    --      1.0022                 2.5971               132.3859

                     16                     17                     18
                      A                      A                      A
 Frequencies --    265.7423               277.8153               311.9828
 Red. masses --      3.9423                 2.7884                 4.2647
 Frc consts  --      0.1640                 0.1268                 0.2446
 IR Inten    --     17.5190                 2.7417                14.0868

                     19                     20                     21
                      A                      A                      A
 Frequencies --    317.6001               344.7761               363.4498
 Red. masses --      3.7780                 3.8392                 3.9755
 Frc consts  --      0.2245                 0.2689                 0.3094
 IR Inten    --      0.9589                 2.6181                17.5494

                     22                     23                     24
                      A                      A                      A
 Frequencies --    377.0706               411.8899               436.7424
 Red. masses --      4.3959                 2.6058                 1.2372
 Frc consts  --      0.3682                 0.2605                 0.1390
 IR Inten    --      9.4857                13.9028               127.5495

                     25                     26                     27
                      A                      A                      A
 Frequencies --    452.7430               481.7387               485.9813
 Red. masses --      2.7579                 2.8185                 2.8909
 Frc consts  --      0.3331                 0.3854                 0.4023
 IR Inten    --     12.6519                28.7898                 6.6386

                     28                     29                     30
                      A                      A                      A
 Frequencies --    492.7970               519.4199               541.6226
 Red. masses --      2.1480                 2.6642                 4.0414
 Frc consts  --      0.3073                 0.4235                 0.6985
 IR Inten    --      7.4791                22.0778                11.9861

                     31                     32                     33
                      A                      A                      A
 Frequencies --    570.8895               578.9585               581.9505
 Red. masses --      3.0581                 4.8528                 3.3478
 Frc consts  --      0.5872                 0.9584                 0.6680
 IR Inten    --     33.8589                 1.6024                29.4274

                     34                     35                     36
                      A                      A                      A
 Frequencies --    599.1242               606.9928               647.3715
 Red. masses --      1.5972                 4.0665                 2.2963
 Frc consts  --      0.3378                 0.8827                 0.5670
 IR Inten    --      3.7684                 5.0870                 0.8979

                     37                     38                     39
                      A                      A                      A
 Frequencies --    691.1851               729.3885               743.9192
 Red. masses --      4.9920                 3.7656                 5.4589
 Frc consts  --      1.4051                 1.1803                 1.7799
 IR Inten    --     14.8965                 5.1604                 1.5236

                     40                     41                     42
                      A                      A                      A
 Frequencies --    815.8157               830.7352               860.0381
 Red. masses --      1.7425                 3.5075                 2.7129
 Frc consts  --      0.6833                 1.4262                 1.1823
 IR Inten    --      7.3752                10.9725                14.4028

                     43                     44                     45
                      A                      A                      A
 Frequencies --    882.4324               896.5493               910.0582
 Red. masses --      3.0079                 1.2904                 2.8886
 Frc consts  --      1.3800                 0.6111                 1.4095
 IR Inten    --     25.5510                 2.6160                 2.2706

                     46                     47                     48
                      A                      A                      A
 Frequencies --    933.6926               955.5302               965.6286
 Red. masses --      1.9317                 1.4204                 3.2411
 Frc consts  --      0.9922                 0.7641                 1.7806
 IR Inten    --      3.2203                 0.1613                 1.9582

                     49                     50                     51
                      A                      A                      A
 Frequencies --   1017.5562              1051.1878              1053.1869
 Red. masses --      1.4870                 1.8841                 1.4833
 Frc consts  --      0.9071                 1.2267                 0.9694
 IR Inten    --      2.0800                12.1141                 1.0588

                     52                     53                     54
                      A                      A                      A
 Frequencies --   1064.9005              1075.6813              1079.2520
 Red. masses --      1.5063                 1.5168                 1.6084
 Frc consts  --      1.0064                 1.0341                 1.1038
 IR Inten    --      0.6248                 3.3165                 7.8756

                     55                     56                     57
                      A                      A                      A
 Frequencies --   1080.8478              1131.8269              1159.4713
 Red. masses --      2.2841                 2.3308                 1.7971
 Frc consts  --      1.5721                 1.7592                 1.4235
 IR Inten    --      6.8854                60.1879                 2.1918

                     58                     59                     60
                      A                      A                      A
 Frequencies --   1187.5566              1205.2719              1256.3580
 Red. masses --      1.6189                 1.6529                 2.0673
 Frc consts  --      1.3452                 1.4147                 1.9226
 IR Inten    --      0.4562                68.7168                20.4269

                     61                     62                     63
                      A                      A                      A
 Frequencies --   1276.7439              1291.0378              1310.3911
 Red. masses --      3.6840                 2.5976                 1.8857
 Frc consts  --      3.5381                 2.5510                 1.9078
 IR Inten    --     64.6472                41.2200               122.4816

                     64                     65                     66
                      A                      A                      A
 Frequencies --   1319.8448              1323.7257              1346.2064
 Red. masses --      1.4549                 1.6232                 7.2800
 Frc consts  --      1.4932                 1.6758                 7.7733
 IR Inten    --     60.6308                 0.7581                 0.9255

                     67                     68                     69
                      A                      A                      A
 Frequencies --   1381.0703              1438.4368              1440.0563
 Red. masses --      2.5394                 1.3037                 1.3318
 Frc consts  --      2.8537                 1.5894                 1.6273
 IR Inten    --    123.0315                25.9845                15.1554

                     70                     71                     72
                      A                      A                      A
 Frequencies --   1443.5005              1450.8171              1463.2164
 Red. masses --      1.9932                 1.2640                 2.5525
 Frc consts  --      2.4470                 1.5675                 3.2198
 IR Inten    --     13.9896                 2.8648                20.5016

                     73                     74                     75
                      A                      A                      A
 Frequencies --   1475.1450              1495.4456              1505.0171
 Red. masses --      1.9250                 1.2505                 1.0706
 Frc consts  --      2.4680                 1.6477                 1.4287
 IR Inten    --     20.4616                71.5537                 5.1836

                     76                     77                     78
                      A                      A                      A
 Frequencies --   1508.6781              1512.6264              1513.7669
 Red. masses --      1.1014                 1.0632                 1.0648
 Frc consts  --      1.4771                 1.4333                 1.4375
 IR Inten    --     24.9197                15.2942                 4.5273

                     79                     80                     81
                      A                      A                      A
 Frequencies --   1516.3694              1529.5884              1544.3251
 Red. masses --      1.1684                 1.1340                 1.6848
 Frc consts  --      1.5829                 1.5631                 2.3675
 IR Inten    --      3.0247                 6.2099               310.4109

                     82                     83                     84
                      A                      A                      A
 Frequencies --   1556.7507              1633.8212              1635.8091
 Red. masses --      2.5160                 5.9616                 1.5129
 Frc consts  --      3.5926                 9.3761                 2.3852
 IR Inten    --     53.0117                 1.0690               276.7677

                     85                     86                     87
                      A                      A                      A
 Frequencies --   1669.7659              1722.2038              1798.7599
 Red. masses --      5.9522                 8.3238                 8.5554
 Frc consts  --      9.7778                14.5459                16.3094
 IR Inten    --      2.9665                14.8294               441.3886

                     88                     89                     90
                      A                      A                      A
 Frequencies --   3049.4248              3049.7090              3050.1314
 Red. masses --      1.0382                 1.0364                 1.0400
 Frc consts  --      5.6880                 5.6795                 5.7005
 IR Inten    --     24.9803                33.9740                10.6821

                     91                     92                     93
                      A                      A                      A
 Frequencies --   3090.1386              3099.0172              3101.9212
 Red. masses --      1.0623                 1.0992                 1.0964
 Frc consts  --      5.9764                 6.2199                 6.2157
 IR Inten    --      2.1394                12.5327                19.9859

                     94                     95                     96
                      A                      A                      A
 Frequencies --   3112.6819              3127.4687              3140.7738
 Red. masses --      1.1009                 1.1028                 1.1018
 Frc consts  --      6.2846                 6.3552                 6.4034
 IR Inten    --      6.7373                15.3141                15.3740

                     97                     98                     99
                      A                      A                      A
 Frequencies --   3143.3361              3159.8270              3188.2449
 Red. masses --      1.1005                 1.1009                 1.0877
 Frc consts  --      6.4062                 6.4760                 6.5144
 IR Inten    --      9.9413                 9.5964                 9.1067

                    100                    101                    102
                      A                      A                      A
 Frequencies --   3191.5497              3206.8506              3567.2782
 Red. masses --      1.0903                 1.0949                 1.0751
 Frc consts  --      6.5433                 6.6339                 8.0606
 IR Inten    --      8.8434                10.6831                28.5360

                    103                    104                    105
                      A                      A                      A
 Frequencies --   3568.8073              3579.4212              3733.1489
 Red. masses --      1.0740                 1.0491                 1.1026
 Frc consts  --      8.0595                 7.9196                 9.0538
 IR Inten    --     31.8329                38.5664                83.7387

 - Thermochemistry -
 -------------------
 Temperature   298.150 Kelvin.  Pressure   1.00000 Atm.
 Atom     1 has atomic number  6 and mass  12.00000

 Molecular mass:   278.12013 amu.
 Principal axes and moments of inertia in atomic units:
                           1         2         3
     Eigenvalues --  3786.326666086.623037694.41978
           X            0.99923   0.03693   0.01355
           Y           -0.03636   0.99854  -0.03983
           Z           -0.01500   0.03930   0.99911
 This molecule is an asymmetric top.
 Rotational symmetry number  1.
 Warning -- assumption of classical behavior for rotation
           may cause significant error
 Rotational temperatures (Kelvin)      0.02288     0.01423     0.01126
 Rotational constants (GHZ):           0.47665     0.29651     0.23455
 Zero-point vibrational energy     796483.4 (Joules/Mol)
                                  190.36409 (Kcal/Mol)
 Warning -- explicit consideration of  35 degrees of freedom as
           vibrations may cause significant error
 Vibrational temperatures:     16.06    45.15    63.15    71.79    91.83
          (Kelvin)            111.57   117.84   133.19   147.51   190.88
                              210.95   237.21   261.78   309.88   371.00
                              382.34   399.71   448.87   456.96   496.06
                              522.92   542.52   592.62   628.37   651.40
                              693.11   699.22   709.02   747.33   779.27
                              821.38   832.99   837.30   862.01   873.33
                              931.42   994.46  1049.43  1070.33  1173.78
                             1195.24  1237.40  1269.62  1289.93  1309.37
                             1343.38  1374.79  1389.32  1464.04  1512.42
                             1515.30  1532.15  1547.67  1552.80  1555.10
                             1628.45  1668.22  1708.63  1734.12  1807.62
                             1836.95  1857.52  1885.36  1898.96  1904.55
                             1936.89  1987.05  2069.59  2071.92  2076.88
                             2087.40  2105.24  2122.40  2151.61  2165.38
                             2170.65  2176.33  2177.97  2181.72  2200.74
                             2221.94  2239.82  2350.70  2353.56  2402.42
                             2477.87  2588.01  4387.44  4387.85  4388.46
                             4446.02  4458.79  4462.97  4478.46  4499.73
                             4518.87  4522.56  4546.29  4587.17  4591.93
                             4613.94  5132.52  5134.72  5149.99  5371.17

 Zero-point correction=                           0.303364 (Hartree/Particle)
 Thermal correction to Energy=                    0.323999
 Thermal correction to Enthalpy=                  0.324943
 Thermal correction to Gibbs Free Energy=         0.251784
 Sum of electronic and zero-point Energies=          -1198.433289
 Sum of electronic and thermal Energies=             -1198.412654
 Sum of electronic and thermal Enthalpies=           -1198.411710
 Sum of electronic and thermal Free Energies=        -1198.484870

                     E (Thermal)             CV                S
                      KCal/Mol        Cal/Mol-Kelvin    Cal/Mol-Kelvin
 Total                  203.312             75.422            153.977
 Electronic               0.000              0.000              0.000
 Translational            0.889              2.981             42.767
 Rotational               0.889              2.981             33.538
 Vibrational            201.535             69.460             77.672
 Vibration     1          0.593              1.987              7.793
 Vibration     2          0.594              1.983              5.740
 Vibration     3          0.595              1.980              5.075
 Vibration     4          0.595              1.978              4.821
 Vibration     5          0.597              1.972              4.335
 Vibration     6          0.599              1.964              3.952
 Vibration     7          0.600              1.962              3.845
 Vibration     8          0.602              1.954              3.605
 Vibration     9          0.605              1.947              3.406
 Vibration    10          0.613              1.921              2.907
 Vibration    11          0.617              1.906              2.716
 Vibration    12          0.623              1.886              2.493
 Vibration    13          0.630              1.864              2.308
 Vibration    14          0.645              1.818              1.998
 Vibration    15          0.667              1.749              1.676
 Vibration    16          0.672              1.736              1.624
 Vibration    17          0.679              1.715              1.547
 Vibration    18          0.700              1.651              1.352
 Vibration    19          0.704              1.640              1.322
 Vibration    20          0.723              1.586              1.190
 Vibration    21          0.737              1.548              1.107
 Vibration    22          0.748              1.519              1.051
 Vibration    23          0.776              1.444              0.920
 Vibration    24          0.797              1.390              0.837
 Vibration    25          0.811              1.355              0.788
 Vibration    26          0.838              1.291              0.705
 Vibration    27          0.842              1.281              0.694
 Vibration    28          0.848              1.266              0.676
 Vibration    29          0.874              1.207              0.611
 Vibration    30          0.897              1.158              0.562
 Vibration    31          0.927              1.094              0.503
 Vibration    32          0.936              1.077              0.487
 Vibration    33          0.939              1.070              0.482
 Vibration    34          0.957              1.034              0.451
 Vibration    35          0.966              1.017              0.438

 Optimization completed.
    -- Stationary point found.
 Normal termination of Gaussian 16 at Sat Dec 12 10:59:10 2020.

 ----------------------------------------------------------------------
 # B3LYP/6-311++G(d,p) empiricaldispersion=gd3bj scf=xqc pop=npa geom=c
 heck
 ----------------------------------------------------------------------

 -------------------------------------
 CID_4345417_JID_9394_Energie_neutraal
 -------------------------------------
 Structure from the checkpoint file:  "JID_9394.chk"
 Charge =  0 Multiplicity = 1

 SCF Done:  E(RB3LYP) =  -1198.99331772     A.U. after   16 cycles
 Normal termination of Gaussian 16 at Sat Dec 12 11:09:36 2020.

 ----------------------------------------------------------------------
 # B3LYP/6-311++G(d,p) empiricaldispersion=gd3bj scf=xqc pop=npa geom=c
 heck
 ----------------------------------------------------------------------

 -----------------------------------
 CID_4345417_JID_9394_Energie_kation
 -----------------------------------
 Structure from the checkpoint file:  "JID_9394.chk"
 Charge =  1 Multiplicity = 2

 SCF Done:  E(UB3LYP) =  -1198.70911493     A.U. after   33 cycles
 SCF Done:  E(UB3LYP) =  -1198.70911493     a.u. after    2 cycles
 Normal termination of Gaussian 16 at Sat Dec 12 12:03:18 2020.
 Gaussian 16:  ES64L-G16RevA.03 25-Dec-2016

 ----------------------------------------------------------------------
 # B3LYP/6-311++G(d,p) empiricaldispersion=gd3bj scf=xqc pop=npa geom=c
 heck
 ----------------------------------------------------------------------

 ----------------------------------
 CID_4345417_JID_9394_Energie_anion
 ----------------------------------
 Structure from the checkpoint file:  "JID_9394.chk"
 Charge = -1 Multiplicity = 2

                         Standard orientation:
 ---------------------------------------------------------------------
 Center     Atomic      Atomic             Coordinates (Angstroms)
 Number     Number       Type             X           Y           Z
 ---------------------------------------------------------------------
      1          6           0       -3.201245   -1.848199   -1.164579
      2          6           0       -1.718224   -1.705606   -0.941255
      3          6           0       -1.135627   -2.121634    0.262501
      4          6           0        0.232360   -1.988594    0.518039
      5          6           0        1.036031   -1.399699   -0.475911
      6          6           0        0.472410   -0.980778   -1.680870
      7          6           0       -0.891781   -1.132793   -1.912491
      8          7           0        2.444514   -1.239802   -0.269240
      9          6           0        3.072417   -0.184160    0.338552
     10          8           0        4.289722   -0.089232    0.379328
     11          6           0        2.157600    0.887770    0.945597
     12          6           0        1.511898    1.761814   -0.111097
     13          7           0        0.255084    1.988015   -0.256054
     14          7           0       -0.653190    1.388603    0.564235
     15          6           0       -1.991573    1.628051    0.405875
     16         16           0       -3.112465    0.878373    1.409922
     17          7           0       -2.306507    2.493085   -0.575298
     18          6           0        2.446014    2.454421   -1.062674
     19          6           0        0.828228   -2.479533    1.814279
     20          1           0       -3.568421   -2.812675   -0.797283
     21          1           0       -3.738264   -1.062779   -0.619925
     22          1           0       -3.454528   -1.767091   -2.226264
     23          1           0       -1.769525   -2.562677    1.026894
     24          1           0        1.114186   -0.527153   -2.430203
     25          1           0       -1.319508   -0.798461   -2.853610
     26          1           0        3.083242   -1.900956   -0.697790
     27          1           0        1.426903    0.427956    1.613599
     28          1           0        2.815476    1.513103    1.556795
     29          1           0       -0.416975    0.606491    1.164980
     30          1           0       -1.564754    2.944748   -1.094511
     31          1           0       -3.265100    2.789052   -0.661855
     32          1           0        3.179015    3.060927   -0.516499
     33          1           0        3.020891    1.725034   -1.646424
     34          1           0        1.883145    3.094214   -1.745126
     35          1           0        1.670782   -3.155957    1.634550
     36          1           0        1.216215   -1.659357    2.431026
     37          1           0        0.078525   -3.010200    2.406976
 ---------------------------------------------------------------------

 SCF Done:  E(UB3LYP) =  -1198.99160663     A.U. after   33 cycles
 SCF Done:  E(UB3LYP) =  -1198.99160663     a.u. after    1 cycles

 The electronic state is 2-A.
 Alpha  occ. eigenvalues --  -88.65460 -18.98081 -14.24585 -14.23028 -14.21347
 Alpha  occ. eigenvalues --  -14.20352 -10.16353 -10.13859 -10.09447 -10.07674
 Alpha  occ. eigenvalues --  -10.07376 -10.07110 -10.06973 -10.06599 -10.06534
 Alpha  occ. eigenvalues --  -10.06033 -10.05973 -10.05519 -10.05143  -7.74229
 Alpha  occ. eigenvalues --   -5.70650  -5.70008  -5.69823  -0.93247  -0.90130
 Alpha  occ. eigenvalues --   -0.82469  -0.81039  -0.74516  -0.72670  -0.67512
 Alpha  occ. eigenvalues --   -0.65482  -0.64568  -0.60732  -0.58787  -0.57624
 Alpha  occ. eigenvalues --   -0.57364  -0.50105  -0.49829  -0.48905  -0.46889
 Alpha  occ. eigenvalues --   -0.45754  -0.42569  -0.42280  -0.39083  -0.38235
 Alpha  occ. eigenvalues --   -0.37431  -0.35997  -0.35249  -0.33417  -0.32512
 Alpha  occ. eigenvalues --   -0.32132  -0.31237  -0.30945  -0.30241  -0.29702
 Alpha  occ. eigenvalues --   -0.29650  -0.29036  -0.28597  -0.28022  -0.27383
 Alpha  occ. eigenvalues --   -0.25565  -0.24355  -0.24263  -0.23876  -0.23629
 Alpha  occ. eigenvalues --   -0.21917  -0.16539  -0.15932  -0.15170  -0.14621
 Alpha  occ. eigenvalues --   -0.13578  -0.12210  -0.08743  -0.08572   0.04875
 Alpha virt. eigenvalues --    0.07207   0.08041   0.08080   0.08464   0.09206
 Alpha virt. eigenvalues --    0.09475   0.09764   0.10178   0.10471   0.11242
 Alpha virt. eigenvalues --    0.11711   0.12045   0.12422   0.13017   0.13212

  Beta  occ. eigenvalues --  -88.65446 -18.98070 -14.24686 -14.23014 -14.21320
  Beta  occ. eigenvalues --  -14.20141 -10.16272 -10.13518 -10.09347 -10.07634
  Beta  occ. eigenvalues --  -10.07107 -10.07007 -10.06960 -10.06515 -10.06448
  Beta  occ. eigenvalues --  -10.06034 -10.05991 -10.05530 -10.05172  -7.74217
  Beta  occ. eigenvalues --   -5.70656  -5.69949  -5.69816  -0.93200  -0.89892
  Beta  occ. eigenvalues --   -0.82352  -0.80761  -0.74389  -0.72361  -0.67390
  Beta  occ. eigenvalues --   -0.65315  -0.64313  -0.60558  -0.58758  -0.57537
  Beta  occ. eigenvalues --   -0.57231  -0.50006  -0.49724  -0.48745  -0.46625
  Beta  occ. eigenvalues --   -0.45538  -0.42472  -0.42202  -0.38842  -0.38096
  Beta  occ. eigenvalues --   -0.37293  -0.35890  -0.35165  -0.33049  -0.32362
  Beta  occ. eigenvalues --   -0.31874  -0.31018  -0.30862  -0.30026  -0.29636
  Beta  occ. eigenvalues --   -0.29347  -0.28829  -0.28471  -0.27873  -0.27334
  Beta  occ. eigenvalues --   -0.25428  -0.24255  -0.23943  -0.23692  -0.23466
  Beta  occ. eigenvalues --   -0.21053  -0.16339  -0.15817  -0.14958  -0.14358
  Beta  occ. eigenvalues --   -0.13027  -0.11524  -0.08632  -0.08072
  Beta virt. eigenvalues --    0.07155   0.07955   0.08332   0.08529   0.09092
  Beta virt. eigenvalues --    0.09353   0.09572   0.10056   0.10497   0.11001
  Beta virt. eigenvalues --    0.11245   0.12000   0.12071   0.12897   0.13008

 Mulliken charges and spin densities:
               1          2
     1  C   -0.511334  -0.009334
     2  C    0.785439  -0.009976
     3  C   -0.617421  -0.014244
     4  C    0.619682  -0.052459
     5  C   -0.516370  -0.127900
     6  C   -0.250928   0.287281
     7  C   -0.583817   0.068091
     8  N   -0.263105   0.085633
     9  C   -0.711296   0.338609
    10  O   -0.311275   0.007418
    11  C    0.674740  -0.497623
    12  C   -0.427681   0.260826
    13  N   -0.014084   0.143261
    14  N    0.136343  -0.071425
    15  C    0.093209   0.130734
    16  S   -0.700433   0.116650
    17  N   -0.387132   0.037445
    18  C   -0.231559  -0.168932
    19  C   -0.045631  -0.356156
    20  H    0.115940   0.003272
    21  H    0.142878   0.042584
    22  H    0.105488  -0.001889
    23  H    0.129862   0.006587
    24  H    0.156007  -0.000010
    25  H    0.137672   0.005414
    26  H    0.228963   0.077131
    27  H    0.022172   0.014048
    28  H   -0.148823   0.415649
    29  H    0.202502  -0.043263
    30  H    0.285332   0.001266
    31  H    0.258776   0.004594
    32  H    0.027328   0.113957
    33  H    0.191074  -0.005894
    34  H    0.120890   0.014110
    35  H    0.099688   0.062783
    36  H    0.073788   0.097547
    37  H    0.113117   0.024215
 Sum of Mulliken charges =  -1.00000   1.00000

 Dipole moment (field-independent basis, Debye):
    X=             -0.7299    Y=             -2.7485    Z=             -4.0744  Tot=              4.9687
 Quadrupole moment (field-independent basis, Debye-Ang):
   XX=           -188.9450   YY=           -142.9254   ZZ=           -138.3838
   XY=             -2.5083   XZ=              5.7904   YZ=             -8.3312

 Summary of Natural Population Analysis:

                                       Natural Population
                Natural  -----------------------------------------------
    Atom  No    Charge         Core      Valence    Rydberg      Total
 -----------------------------------------------------------------------
      C    1   -0.29755      0.99963     2.29353    0.00439     3.29755
      C    2    0.01815      0.99952     1.97296    0.00937     2.98185
      C    3   -0.10050      0.99948     2.09204    0.00899     3.10050
      C    4   -0.01702      0.99946     2.00856    0.00899     3.01702
      C    5    0.06440      0.99940     1.92448    0.01172     2.93560
      C    6   -0.08505      0.99951     2.07605    0.00948     3.08505
      C    7   -0.10323      0.99951     2.09491    0.00880     3.10323
      N    8   -0.32221      0.99964     2.81313    0.00944     3.82221
      C    9    0.35859      0.99967     1.61686    0.02488     2.64141
      O   10   -0.32736      0.99987     3.32165    0.00583     4.32736
      C   11   -0.26358      0.99955     2.25550    0.00853     3.26358
      C   12    0.18484      0.99962     1.80083    0.01471     2.81516
      N   13   -0.14127      0.99958     2.62824    0.01345     3.64127
      N   14   -0.23258      0.99962     2.71931    0.01365     3.73258
      C   15    0.19566      0.99969     1.78185    0.02280     2.80434
      S   16   -0.18307      4.99960     3.17009    0.01338     8.18307
      N   17   -0.39483      0.99967     2.88620    0.00896     3.89483
      C   18   -0.30174      0.99963     2.29711    0.00501     3.30174
      C   19   -0.29157      0.99964     2.28722    0.00471     3.29157
      H   20    0.09692      0.00000     0.40230    0.00078     0.40308
      H   21    0.12313      0.00000     0.37575    0.00112     0.37687
      H   22    0.09440      0.00000     0.40485    0.00075     0.40560
      H   23    0.09819      0.00000     0.40081    0.00099     0.40181
      H   24    0.10087      0.00000     0.39810    0.00103     0.39913
      H   25    0.09562      0.00000     0.40334    0.00104     0.40438
      H   26    0.19317      0.00000     0.30478    0.00205     0.30683
      H   27    0.10377      0.00000     0.39475    0.00148     0.39623
      H   28    0.12230      0.00000     0.37557    0.00212     0.37770
      H   29    0.19310      0.00000     0.30422    0.00268     0.30690
      H   30    0.20540      0.00000     0.29328    0.00132     0.29460
      H   31    0.19575      0.00000     0.30319    0.00107     0.30425
      H   32    0.10322      0.00000     0.39576    0.00102     0.39678
      H   33    0.10250      0.00000     0.39672    0.00078     0.39750
      H   34    0.10334      0.00000     0.39590    0.00075     0.39666
      H   35    0.10368      0.00000     0.39535    0.00097     0.39632
      H   36    0.10392      0.00000     0.39505    0.00103     0.39608
      H   37    0.10060      0.00000     0.39865    0.00074     0.39940
 =======================================================================
   * Total *    0.00000     22.99230    50.77889    0.22881    74.00000

 Normal termination of Gaussian 16 at Sat Dec 12 12:31:03 2020.
