 Gaussian 16, Revision A.03,

 -----------------------------------------------------------
 # opt freq B3LYP/6-31G(d) empiricaldispersion=gd3bj scf=xqc
 -----------------------------------------------------------

 -------------------------------
 CID_131153106_JID_3820_neutraal
 -------------------------------
 Symbolic Z-matrix:
 Charge =  0 Multiplicity = 1

 SCF Done:  E(RB3LYP) =  -985.051576948     A.U. after   16 cycles
 SCF Done:  E(RB3LYP) =  -985.058527479     A.U. after   13 cycles
 SCF Done:  E(RB3LYP) =  -985.059600654     A.U. after   13 cycles
 SCF Done:  E(RB3LYP) =  -985.059933228     A.U. after   12 cycles
 SCF Done:  E(RB3LYP) =  -985.060345740     A.U. after   12 cycles
 SCF Done:  E(RB3LYP) =  -985.060475689     A.U. after   11 cycles
 SCF Done:  E(RB3LYP) =  -985.060523693     A.U. after   12 cycles
 SCF Done:  E(RB3LYP) =  -985.060555554     A.U. after   10 cycles
 SCF Done:  E(RB3LYP) =  -985.060567664     A.U. after   10 cycles
 SCF Done:  E(RB3LYP) =  -985.060571073     A.U. after    9 cycles
 SCF Done:  E(RB3LYP) =  -985.060572020     A.U. after    9 cycles
 SCF Done:  E(RB3LYP) =  -985.060572326     A.U. after    8 cycles
 SCF Done:  E(RB3LYP) =  -985.060572486     A.U. after    8 cycles
 SCF Done:  E(RB3LYP) =  -985.060572618     A.U. after    8 cycles
 SCF Done:  E(RB3LYP) =  -985.060572661     A.U. after    8 cycles
 Optimization completed.
    -- Stationary point found.
 Normal termination of Gaussian 16 at Sun Dec 13 12:21:49 2020.

 --------------------------------------------------------------------
 #N Geom=AllCheck Guess=TCheck SCRF=Check GenChk RB3LYP/6-31G(d) Freq
 --------------------------------------------------------------------

 Structure from the checkpoint file:  "JID_3820.chk"
 -------------------------------
 CID_131153106_JID_3820_neutraal
 -------------------------------
 Charge =  0 Multiplicity = 1

 SCF Done:  E(RB3LYP) =  -985.060572661     A.U. after    1 cycles

  Exact polarizability: 137.670  -4.068 107.475   9.832   3.779  82.155
 Approx polarizability: 190.850 -10.452 187.301  26.175   7.475 134.623

                      1                      2                      3
                      A                      A                      A
 Frequencies --     31.1152                34.4948                56.1521
 Red. masses --      5.8638                 8.1736                 5.1653
 Frc consts  --      0.0033                 0.0057                 0.0096
 IR Inten    --      2.0400                 0.1038                 1.5211

                      4                      5                      6
                      A                      A                      A
 Frequencies --     90.3799               128.9102               159.5218
 Red. masses --      2.5673                 3.3267                 4.6765
 Frc consts  --      0.0124                 0.0326                 0.0701
 IR Inten    --      0.6636                 1.6232                 2.0636

                      7                      8                      9
                      A                      A                      A
 Frequencies --    165.6736               195.3188               274.2227
 Red. masses --      5.2950                 3.5684                 4.4256
 Frc consts  --      0.0856                 0.0802                 0.1961
 IR Inten    --      1.6772                 9.8196                13.7198

                     10                     11                     12
                      A                      A                      A
 Frequencies --    295.1659               397.9571               414.8929
 Red. masses --      6.8122                 2.6875                10.3036
 Frc consts  --      0.3497                 0.2508                 1.0450
 IR Inten    --      2.6607                 3.8731                 1.4577

                     13                     14                     15
                      A                      A                      A
 Frequencies --    524.8609               560.4861               563.6473
 Red. masses --      8.9871                 5.0442                10.1255
 Frc consts  --      1.4587                 0.9336                 1.8953
 IR Inten    --     25.6604                 5.7633                 2.8099

                     16                     17                     18
                      A                      A                      A
 Frequencies --    623.1003               626.4229               641.1167
 Red. masses --      5.7170                 6.8651                 7.6372
 Frc consts  --      1.3078                 1.5872                 1.8495
 IR Inten    --     12.2545                 2.9239                32.7049

                     19                     20                     21
                      A                      A                      A
 Frequencies --    753.3817               775.1244               797.5454
 Red. masses --     11.8958                 1.1995                 1.7178
 Frc consts  --      3.9781                 0.4246                 0.6438
 IR Inten    --      0.6867                 3.1245                19.9679

                     22                     23                     24
                      A                      A                      A
 Frequencies --    807.6257               858.4908               860.1786
 Red. masses --      2.1525                 1.2123                 3.9164
 Frc consts  --      0.8272                 0.5264                 1.7073
 IR Inten    --      7.6350                 3.2183                28.4779

                     25                     26                     27
                      A                      A                      A
 Frequencies --    886.5771               943.9201               948.6131
 Red. masses --      4.5746                 2.5230                 3.7496
 Frc consts  --      2.1185                 1.3244                 1.9880
 IR Inten    --      3.6837                17.9058                47.0519

                     28                     29                     30
                      A                      A                      A
 Frequencies --    959.5102               983.1457              1066.0382
 Red. masses --      2.7016                 2.8044                 4.0715
 Frc consts  --      1.4655                 1.5971                 2.7261
 IR Inten    --      3.2393                 3.9548                25.3839

                     31                     32                     33
                      A                      A                      A
 Frequencies --   1149.3400              1150.4023              1156.0034
 Red. masses --      1.9611                 1.2082                 1.9318
 Frc consts  --      1.5263                 0.9421                 1.5210
 IR Inten    --      5.5703                 4.9957                 4.3242

                     34                     35                     36
                      A                      A                      A
 Frequencies --   1188.7262              1219.9522              1247.1624
 Red. masses --      3.5128                 1.2097                 1.1540
 Frc consts  --      2.9246                 1.0607                 1.0576
 IR Inten    --     24.5107                 2.0369                 3.0450

                     37                     38                     39
                      A                      A                      A
 Frequencies --   1280.1303              1284.7522              1311.0116
 Red. masses --      1.5460                 1.5098                 1.4193
 Frc consts  --      1.4927                 1.4683                 1.4373
 IR Inten    --     32.5518                10.5929                 2.1461

                     40                     41                     42
                      A                      A                      A
 Frequencies --   1329.3856              1351.9654              1355.3224
 Red. masses --      1.9070                 1.9274                 1.8952
 Frc consts  --      1.9857                 2.0756                 2.0511
 IR Inten    --    109.9126                18.7697                 7.4265

                     43                     44                     45
                      A                      A                      A
 Frequencies --   1382.9353              1461.3027              1502.1345
 Red. masses --      1.6923                 4.9330                 1.1002
 Frc consts  --      1.9070                 6.2064                 1.4627
 IR Inten    --     38.2228               239.1333                28.2859

                     46                     47                     48
                      A                      A                      A
 Frequencies --   1520.3249              1536.2212              1558.8363
 Red. masses --      1.1137                 1.0804                 1.1157
 Frc consts  --      1.5167                 1.5022                 1.5973
 IR Inten    --      2.0932                 0.6491                 4.7779

                     49                     50                     51
                      A                      A                      A
 Frequencies --   1592.9145              1786.2352              1829.8270
 Red. masses --      9.3946                10.9956                12.6359
 Frc consts  --     14.0447                20.6703                24.9274
 IR Inten    --     37.7020               237.4773               481.8617

                     52                     53                     54
                      A                      A                      A
 Frequencies --   3061.9415              3074.4975              3095.7257
 Red. masses --      1.0573                 1.0571                 1.0635
 Frc consts  --      5.8406                 5.8875                 6.0051
 IR Inten    --     51.3938                24.3811                31.0744

                     55                     56                     57
                      A                      A                      A
 Frequencies --   3109.3390              3115.6801              3118.0363
 Red. masses --      1.0610                 1.1105                 1.1098
 Frc consts  --      6.0440                 6.3518                 6.3572
 IR Inten    --     32.4896                21.1243                 7.2865

                     58                     59                     60
                      A                      A                      A
 Frequencies --   3163.1397              3167.5445              3259.8119
 Red. masses --      1.1099                 1.1019                 1.0945
 Frc consts  --      6.5430                 6.5136                 6.8525
 IR Inten    --     26.2033                 3.2371                 2.0661

 - Thermochemistry -
 -------------------
 Temperature   298.150 Kelvin.  Pressure   1.00000 Atm.
 Atom     1 has atomic number  6 and mass  12.00000

 Molecular mass:   199.04155 amu.
 Principal axes and moments of inertia in atomic units:
                           1         2         3
     Eigenvalues --  1156.982524410.472184947.18440
           X            0.99995  -0.00989   0.00045
           Y            0.00989   0.99984   0.01459
           Z           -0.00060  -0.01458   0.99989
 This molecule is an asymmetric top.
 Rotational symmetry number  1.
 Warning -- assumption of classical behavior for rotation
           may cause significant error
 Rotational temperatures (Kelvin)      0.07486     0.01964     0.01751
 Rotational constants (GHZ):           1.55987     0.40919     0.36480
 Zero-point vibrational energy     441327.5 (Joules/Mol)
                                  105.47980 (Kcal/Mol)
 Warning -- explicit consideration of  15 degrees of freedom as
           vibrations may cause significant error
 Vibrational temperatures:     44.77    49.63    80.79   130.04   185.47
          (Kelvin)            229.52   238.37   281.02   394.55   424.68
                              572.57   596.94   755.16   806.41   810.96
                              896.50   901.28   922.42  1083.95  1115.23
                             1147.49  1161.99  1235.18  1237.61  1275.59
                             1358.09  1364.84  1380.52  1414.53  1533.79
                             1653.64  1655.17  1663.23  1710.31  1755.24
                             1794.39  1841.82  1848.47  1886.25  1912.69
                             1945.18  1950.01  1989.74  2102.49  2161.24
                             2187.41  2210.28  2242.82  2291.85  2569.99
                             2632.71  4405.45  4423.52  4454.06  4473.65
                             4482.77  4486.16  4551.05  4557.39  4690.14

 Zero-point correction=                           0.168093 (Hartree/Particle)
 Thermal correction to Energy=                    0.180151
 Thermal correction to Enthalpy=                  0.181095
 Thermal correction to Gibbs Free Energy=         0.127301
 Sum of electronic and zero-point Energies=           -984.892480
 Sum of electronic and thermal Energies=              -984.880422
 Sum of electronic and thermal Enthalpies=            -984.879478
 Sum of electronic and thermal Free Energies=         -984.933272

                     E (Thermal)             CV                S
                      KCal/Mol        Cal/Mol-Kelvin    Cal/Mol-Kelvin
 Total                  113.046             43.117            113.219
 Electronic               0.000              0.000              0.000
 Translational            0.889              2.981             41.770
 Rotational               0.889              2.981             31.602
 Vibrational            111.269             37.156             39.847
 Vibration     1          0.594              1.983              5.757
 Vibration     2          0.594              1.983              5.553
 Vibration     3          0.596              1.975              4.588
 Vibration     4          0.602              1.956              3.652
 Vibration     5          0.611              1.924              2.962
 Vibration     6          0.621              1.892              2.555
 Vibration     7          0.624              1.885              2.484
 Vibration     8          0.636              1.846              2.177
 Vibration     9          0.677              1.721              1.569
 Vibration    10          0.689              1.683              1.444
 Vibration    11          0.764              1.475              0.970
 Vibration    12          0.778              1.438              0.909
 Vibration    13          0.880              1.195              0.599
 Vibration    14          0.916              1.117              0.523
 Vibration    15          0.919              1.110              0.517

                           ! Non-Optimized Parameters !
 Normal termination of Gaussian 16 at Sun Dec 13 12:26:39 2020.

 ----------------------------------------------------------------------
 # B3LYP/6-311++G(d,p) empiricaldispersion=gd3bj scf=xqc pop=npa geom=c
 heck
 ----------------------------------------------------------------------

 ---------------------------------------
 CID_131153106_JID_3820_Energie_neutraal
 ---------------------------------------
 Structure from the checkpoint file:  "JID_3820.chk"
 Charge =  0 Multiplicity = 1

 SCF Done:  E(RB3LYP) =  -985.253635256     A.U. after   15 cycles
 Normal termination of Gaussian 16 at Sun Dec 13 12:28:20 2020.

 ----------------------------------------------------------------------
 # B3LYP/6-311++G(d,p) empiricaldispersion=gd3bj scf=xqc pop=npa geom=c
 heck
 ----------------------------------------------------------------------

 -------------------------------------
 CID_131153106_JID_3820_Energie_kation
 -------------------------------------
 Structure from the checkpoint file:  "JID_3820.chk"
 Charge =  1 Multiplicity = 2

 SCF Done:  E(UB3LYP) =  -984.939543315     A.U. after   26 cycles
 Normal termination of Gaussian 16 at Sun Dec 13 12:32:12 2020.
 Gaussian 16:  ES64L-G16RevA.03 25-Dec-2016

 ----------------------------------------------------------------------
 # B3LYP/6-311++G(d,p) empiricaldispersion=gd3bj scf=xqc pop=npa geom=c
 heck
 ----------------------------------------------------------------------

 ------------------------------------
 CID_131153106_JID_3820_Energie_anion
 ------------------------------------
 Structure from the checkpoint file:  "JID_3820.chk"
 Charge = -1 Multiplicity = 2

                         Standard orientation:
 ---------------------------------------------------------------------
 Center     Atomic      Atomic             Coordinates (Angstroms)
 Number     Number       Type             X           Y           Z
 ---------------------------------------------------------------------
      1          6           0        3.837347   -1.081884    0.027077
      2          6           0        3.367037    0.078318   -0.892675
      3          7           0        2.338272    0.407671    0.103965
      4          6           0        2.665271   -0.733061    0.986153
      5          6           0        1.155661    1.013593   -0.170546
      6          8           0        0.926581    1.588231   -1.225664
      7          6           0        0.105636    0.939310    0.947193
      8          7           0       -1.007801    0.110576    0.517273
      9          6           0       -2.254535    0.637395    0.232073
     10          8           0       -2.633581    1.768761    0.417711
     11         16           0       -3.225492   -0.752669   -0.446360
     12          6           0       -1.808620   -1.762875   -0.273931
     13          7           0       -0.758123   -1.200043    0.218278
     14          1           0        4.828500   -0.939504    0.461829
     15          1           0        3.779611   -2.075848   -0.419856
     16          1           0        4.086010    0.885757   -1.062010
     17          1           0        2.933619   -0.218485   -1.853323
     18          1           0        1.865190   -1.478082    1.033462
     19          1           0        2.954181   -0.437620    2.000763
     20          1           0        0.508195    0.546111    1.884600
     21          1           0       -0.299975    1.938075    1.114900
     22          1           0       -1.804674   -2.805852   -0.563657
 ---------------------------------------------------------------------

 SCF Done:  E(UB3LYP) =  -985.244864600     A.U. after   33 cycles
 SCF Done:  E(UB3LYP) =  -985.244864600     a.u. after    1 cycles

 The electronic state is 2-A.
 Alpha  occ. eigenvalues --  -88.78290 -19.01571 -18.99272 -14.29991 -14.25622
 Alpha  occ. eigenvalues --  -14.24257 -10.20890 -10.17484 -10.13480 -10.12979
 Alpha  occ. eigenvalues --  -10.11189 -10.10864 -10.07914  -7.86956  -5.83224
 Alpha  occ. eigenvalues --   -5.82941  -5.82494  -0.98361  -0.94587  -0.93462
 Alpha  occ. eigenvalues --   -0.85863  -0.77520  -0.69849  -0.68255  -0.63250
 Alpha  occ. eigenvalues --   -0.59662  -0.54635  -0.52024  -0.47812  -0.44551
 Alpha  occ. eigenvalues --   -0.42529  -0.41239  -0.39961  -0.38417  -0.36161
 Alpha  occ. eigenvalues --   -0.35263  -0.34143  -0.33269  -0.31273  -0.31008
 Alpha  occ. eigenvalues --   -0.29837  -0.29339  -0.28203  -0.27819  -0.25238
 Alpha  occ. eigenvalues --   -0.24504  -0.22115  -0.20764  -0.18157  -0.16624
 Alpha  occ. eigenvalues --   -0.15256  -0.14104   0.04319
 Alpha virt. eigenvalues --    0.06011   0.06847   0.07789   0.08572   0.08841
 Alpha virt. eigenvalues --    0.09021   0.10067   0.10484   0.11097   0.11462
 Alpha virt. eigenvalues --    0.11630   0.12358   0.13012   0.13562   0.14544

  Beta  occ. eigenvalues --  -88.78276 -19.01553 -18.99260 -14.30009 -14.25492
  Beta  occ. eigenvalues --  -14.24257 -10.20851 -10.17477 -10.13314 -10.12975
  Beta  occ. eigenvalues --  -10.11161 -10.10844 -10.07863  -7.86942  -5.83210
  Beta  occ. eigenvalues --   -5.82936  -5.82452  -0.98291  -0.94559  -0.93379
  Beta  occ. eigenvalues --   -0.85845  -0.77406  -0.69721  -0.68210  -0.63176
  Beta  occ. eigenvalues --   -0.59593  -0.54475  -0.51924  -0.47668  -0.44474
  Beta  occ. eigenvalues --   -0.42461  -0.41178  -0.39912  -0.38310  -0.36067
  Beta  occ. eigenvalues --   -0.35120  -0.34085  -0.33163  -0.31227  -0.30923
  Beta  occ. eigenvalues --   -0.29782  -0.29295  -0.27919  -0.27632  -0.25179
  Beta  occ. eigenvalues --   -0.24446  -0.21957  -0.20535  -0.18094  -0.16533
  Beta  occ. eigenvalues --   -0.15184  -0.13824
  Beta virt. eigenvalues --    0.07009   0.07474   0.07707   0.08227   0.09109
  Beta virt. eigenvalues --    0.09237   0.09503   0.10438   0.10687   0.11327
  Beta virt. eigenvalues --    0.11632   0.11846   0.12679   0.13198   0.13808

 Mulliken charges and spin densities:
               1          2
     1  C    1.263830  -1.615789
     2  C   -0.122088  -0.068902
     3  N   -0.075095   0.222911
     4  C    0.040025  -0.304044
     5  C    0.255056  -0.172666
     6  O   -0.363072   0.015202
     7  C   -0.697034   0.164786
     8  N    0.425927  -0.027868
     9  C   -0.263953   0.027065
    10  O   -0.328445   0.008705
    11  S    0.410489  -0.125094
    12  C    0.403254  -0.686892
    13  N   -0.164182   0.128542
    14  H   -0.503165   0.660533
    15  H   -0.445595   0.602124
    16  H   -0.059442   0.233160
    17  H    0.087784   0.078081
    18  H    0.132176   0.041651
    19  H   -0.370820   0.534636
    20  H    0.131278   0.075305
    21  H    0.171552   0.039841
    22  H   -0.928482   1.168712
 Sum of Mulliken charges =  -1.00000   1.00000

 Dipole moment (field-independent basis, Debye):
    X=             -3.7501    Y=              2.8860    Z=              1.0500  Tot=              4.8471
 Quadrupole moment (field-independent basis, Debye-Ang):
   XX=           -156.5583   YY=           -130.7075   ZZ=           -106.8050
   XY=              7.5423   XZ=             -5.3851   YZ=              2.7827

 Summary of Natural Population Analysis:

                                       Natural Population
                Natural  -----------------------------------------------
    Atom  No    Charge         Core      Valence    Rydberg      Total
 -----------------------------------------------------------------------
      C    1   -0.19530      0.99963     2.18825    0.00742     3.19530
      C    2   -0.07482      0.99966     2.06456    0.01060     3.07482
      N    3   -0.25440      0.99964     2.74363    0.01114     3.75440
      C    4   -0.07937      0.99965     2.07012    0.00960     3.07937
      C    5    0.34140      0.99963     1.63644    0.02253     2.65860
      O    6   -0.31572      0.99988     3.31032    0.00552     4.31572
      C    7   -0.12215      0.99958     2.11172    0.01086     3.12215
      N    8   -0.16071      0.99961     2.64789    0.01321     3.66071
      C    9    0.26929      0.99967     1.70363    0.02740     2.73071
      O   10   -0.30731      0.99986     3.30013    0.00732     4.30731
      S   11    0.12320      4.99953     2.85792    0.01935     7.87680
      C   12   -0.02964      0.99967     2.01392    0.01605     3.02964
      N   13   -0.12592      0.99967     2.61141    0.01485     3.62592
      H   14    0.10321      0.00000     0.39324    0.00355     0.39679
      H   15    0.10360      0.00000     0.39447    0.00193     0.39640
      H   16    0.09507      0.00000     0.40377    0.00116     0.40493
      H   17    0.09990      0.00000     0.39897    0.00113     0.40010
      H   18    0.10439      0.00000     0.39280    0.00281     0.39561
      H   19    0.09368      0.00000     0.40452    0.00181     0.40632
      H   20    0.10266      0.00000     0.39594    0.00140     0.39734
      H   21    0.12181      0.00000     0.37676    0.00143     0.37819
      H   22    0.10715      0.00000     0.38950    0.00336     0.39285
 =======================================================================
   * Total *    0.00000     16.99568    34.80991    0.19441    52.00000

 Normal termination of Gaussian 16 at Sun Dec 13 12:37:09 2020.
