 Gaussian 16, Revision A.03,

 -----------------------------------------------------------
 # opt freq B3LYP/6-31G(d) empiricaldispersion=gd3bj scf=xqc
 -----------------------------------------------------------

 -------------------------------
 CID_117271852_JID_3205_neutraal
 -------------------------------
 Symbolic Z-matrix:
 Charge =  0 Multiplicity = 1

 SCF Done:  E(RB3LYP) =  -920.687117839     A.U. after   13 cycles
 SCF Done:  E(RB3LYP) =  -920.693570717     A.U. after   11 cycles
 SCF Done:  E(RB3LYP) =  -920.693623814     A.U. after   11 cycles
 SCF Done:  E(RB3LYP) =  -920.695160039     A.U. after   11 cycles
 SCF Done:  E(RB3LYP) =  -920.695769900     A.U. after   11 cycles
 SCF Done:  E(RB3LYP) =  -920.695974781     A.U. after   10 cycles
 SCF Done:  E(RB3LYP) =  -920.696126775     A.U. after   10 cycles
 SCF Done:  E(RB3LYP) =  -920.696738396     A.U. after   11 cycles
 SCF Done:  E(RB3LYP) =  -920.688613280     A.U. after   13 cycles
 SCF Done:  E(RB3LYP) =  -920.698418615     A.U. after   11 cycles
 SCF Done:  E(RB3LYP) =  -920.710247671     A.U. after   10 cycles
 SCF Done:  E(RB3LYP) =  -920.710328354     A.U. after   10 cycles
 SCF Done:  E(RB3LYP) =  -920.710340757     A.U. after    9 cycles
 SCF Done:  E(RB3LYP) =  -920.710342529     A.U. after    8 cycles
 SCF Done:  E(RB3LYP) =  -920.710342748     A.U. after    7 cycles
 SCF Done:  E(RB3LYP) =  -920.710342842     A.U. after    7 cycles
 Optimization completed.
    -- Stationary point found.
 Normal termination of Gaussian 16 at Wed Dec  9 22:50:00 2020.

 --------------------------------------------------------------------
 #N Geom=AllCheck Guess=TCheck SCRF=Check GenChk RB3LYP/6-31G(d) Freq
 --------------------------------------------------------------------

 Structure from the checkpoint file:  "JID_3205.chk"
 -------------------------------
 CID_117271852_JID_3205_neutraal
 -------------------------------
 Charge =  0 Multiplicity = 1

 SCF Done:  E(RB3LYP) =  -920.710342842     A.U. after    1 cycles

  Exact polarizability: 148.752  -0.543 127.424   2.833  -2.028 105.663
 Approx polarizability: 189.810   2.644 182.776   5.935  -5.038 167.643

                      1                      2                      3
                      A                      A                      A
 Frequencies --     56.2585                64.9803                85.1635
 Red. masses --      3.0944                 3.6090                 2.8776
 Frc consts  --      0.0058                 0.0090                 0.0123
 IR Inten    --      0.2306                 0.8501                 0.9184

                      4                      5                      6
                      A                      A                      A
 Frequencies --    109.7209               114.0171               116.0409
 Red. masses --      2.8080                 2.0003                 3.8800
 Frc consts  --      0.0199                 0.0153                 0.0308
 IR Inten    --      1.3543                 3.4684                 0.0102

                      7                      8                      9
                      A                      A                      A
 Frequencies --    194.0345               217.9923               239.0108
 Red. masses --      3.0261                 2.8693                 1.4895
 Frc consts  --      0.0671                 0.0803                 0.0501
 IR Inten    --      1.9006                 0.8800                 3.4718

                     10                     11                     12
                      A                      A                      A
 Frequencies --    265.5264               284.7859               289.1242
 Red. masses --      2.0478                 3.0401                 2.3071
 Frc consts  --      0.0851                 0.1453                 0.1136
 IR Inten    --      1.0381                 0.9022                 0.3051

                     13                     14                     15
                      A                      A                      A
 Frequencies --    350.3309               358.6774               395.0264
 Red. masses --      3.0440                 2.8436                 2.9654
 Frc consts  --      0.2201                 0.2155                 0.2726
 IR Inten    --     10.0041                 0.9406                 0.9317

                     16                     17                     18
                      A                      A                      A
 Frequencies --    505.6186               508.5033               567.2643
 Red. masses --      3.6474                 2.4328                 1.9196
 Frc consts  --      0.5494                 0.3706                 0.3639
 IR Inten    --      1.7155                 0.9292                 1.7457

                     19                     20                     21
                      A                      A                      A
 Frequencies --    624.3242               640.9164               687.2046
 Red. masses --      3.4478                 3.1218                 3.8067
 Frc consts  --      0.7918                 0.7555                 1.0592
 IR Inten    --      3.3956                 6.6848                 1.8308

                     22                     23                     24
                      A                      A                      A
 Frequencies --    726.7467               778.5498               819.4263
 Red. masses --      3.9095                 3.4637                 1.5129
 Frc consts  --      1.2166                 1.2370                 0.5985
 IR Inten    --      7.7397                 6.0463                62.6136

                     25                     26                     27
                      A                      A                      A
 Frequencies --    873.1508               882.3148               895.8024
 Red. masses --      1.6055                 1.6489                 1.8252
 Frc consts  --      0.7212                 0.7563                 0.8630
 IR Inten    --     12.9519                 2.7693                 1.5636

                     28                     29                     30
                      A                      A                      A
 Frequencies --    916.5693               925.7898               932.4409
 Red. masses --      2.4151                 2.0654                 2.3511
 Frc consts  --      1.1954                 1.0430                 1.2044
 IR Inten    --      5.3275                 7.8258                 1.4128

                     31                     32                     33
                      A                      A                      A
 Frequencies --    943.2890               985.0169              1008.6550
 Red. masses --      1.7637                 2.0659                 3.6207
 Frc consts  --      0.9246                 1.1810                 2.1703
 IR Inten    --      5.3529                 3.3176                25.3504

                     34                     35                     36
                      A                      A                      A
 Frequencies --   1023.2839              1032.8416              1044.7914
 Red. masses --      2.0532                 1.6226                 1.8675
 Frc consts  --      1.2667                 1.0199                 1.2011
 IR Inten    --      0.6113                 4.4132                 2.9559

                     37                     38                     39
                      A                      A                      A
 Frequencies --   1068.7367              1081.1389              1117.8743
 Red. masses --      1.5170                 1.9144                 2.0948
 Frc consts  --      1.0209                 1.3184                 1.5424
 IR Inten    --      1.3737                14.4229                12.3316

                     40                     41                     42
                      A                      A                      A
 Frequencies --   1143.8682              1152.9799              1169.1312
 Red. masses --      1.6635                 3.0934                 1.8309
 Frc consts  --      1.2824                 2.4229                 1.4745
 IR Inten    --      8.8508                79.6040                 4.2915

                     43                     44                     45
                      A                      A                      A
 Frequencies --   1180.5827              1196.0799              1210.4240
 Red. masses --      2.7181                 1.3442                 1.6489
 Frc consts  --      2.2321                 1.1330                 1.4234
 IR Inten    --    109.5350                 2.9738                 1.5490

                     46                     47                     48
                      A                      A                      A
 Frequencies --   1227.3441              1245.3001              1255.5477
 Red. masses --      1.5846                 1.5816                 1.5005
 Frc consts  --      1.4064                 1.4451                 1.3936
 IR Inten    --     46.8559                 7.3211                 4.4929

                     49                     50                     51
                      A                      A                      A
 Frequencies --   1268.0125              1284.6841              1302.7797
 Red. masses --      1.5776                 1.2169                 1.2573
 Frc consts  --      1.4945                 1.1833                 1.2573
 IR Inten    --      1.1995                 5.8801                13.6056

                     52                     53                     54
                      A                      A                      A
 Frequencies --   1313.4527              1318.0161              1335.6381
 Red. masses --      1.1961                 1.3474                 1.3668
 Frc consts  --      1.2157                 1.3791                 1.4366
 IR Inten    --      3.1702                 3.8233                 0.8181

                     55                     56                     57
                      A                      A                      A
 Frequencies --   1357.3166              1361.9886              1375.9211
 Red. masses --      1.4298                 1.3438                 1.3570
 Frc consts  --      1.5520                 1.4687                 1.5136
 IR Inten    --      3.3461                 2.7797                 0.3133

                     58                     59                     60
                      A                      A                      A
 Frequencies --   1388.8853              1394.6224              1435.4918
 Red. masses --      1.2808                 1.3899                 1.3473
 Frc consts  --      1.4557                 1.5928                 1.6357
 IR Inten    --      2.5455                 0.5540                15.1256

                     61                     62                     63
                      A                      A                      A
 Frequencies --   1500.8834              1506.5303              1513.5049
 Red. masses --      1.1558                 1.0947                 1.0909
 Frc consts  --      1.5341                 1.4638                 1.4723
 IR Inten    --      8.7977                 2.8389                 0.5218

                     64                     65                     66
                      A                      A                      A
 Frequencies --   1514.3925              1514.8990              1519.8179
 Red. masses --      1.0849                 1.0513                 1.1472
 Frc consts  --      1.4659                 1.4215                 1.5613
 IR Inten    --      6.2042                 3.5206                13.1698

                     67                     68                     69
                      A                      A                      A
 Frequencies --   1522.3290              1531.0055              1532.7908
 Red. masses --      1.1058                 1.0673                 1.1004
 Frc consts  --      1.5099                 1.4740                 1.5233
 IR Inten    --      2.7158                11.2209                 1.7205

                     70                     71                     72
                      A                      A                      A
 Frequencies --   1539.5204              1553.8124              2973.3111
 Red. masses --      1.0957                 1.0876                 1.0596
 Frc consts  --      1.5300                 1.5470                 5.5189
 IR Inten    --      2.6378                 0.5007                38.2391

                     73                     74                     75
                      A                      A                      A
 Frequencies --   2995.1141              3024.0558              3039.3433
 Red. masses --      1.0394                 1.0973                 1.1053
 Frc consts  --      5.4936                 5.9125                 6.0158
 IR Inten    --     87.5175                43.7893                51.7326

                     76                     77                     78
                      A                      A                      A
 Frequencies --   3052.7924              3055.6698              3063.2909
 Red. masses --      1.0589                 1.0615                 1.0584
 Frc consts  --      5.8144                 5.8397                 5.8517
 IR Inten    --     33.3712                22.9422                23.4147

                     79                     80                     81
                      A                      A                      A
 Frequencies --   3064.6538              3066.2808              3070.3334
 Red. masses --      1.0658                 1.0605                 1.0653
 Frc consts  --      5.8977                 5.8746                 5.9169
 IR Inten    --     26.9818                67.2640                23.4356

                     82                     83                     84
                      A                      A                      A
 Frequencies --   3073.5735              3093.9353              3102.4286
 Red. masses --      1.0849                 1.1002                 1.1034
 Frc consts  --      6.0384                 6.2049                 6.2575
 IR Inten    --      6.9455                25.9738                18.9837

                     85                     86                     87
                      A                      A                      A
 Frequencies --   3105.8564              3112.5238              3124.3488
 Red. masses --      1.1030                 1.1063                 1.1071
 Frc consts  --      6.2689                 6.3144                 6.3672
 IR Inten    --     51.6186                22.6591                57.3815

                     88                     89                     90
                      A                      A                      A
 Frequencies --   3129.2325              3140.1179              3496.3306
 Red. masses --      1.1043                 1.0971                 1.0739
 Frc consts  --      6.3710                 6.3737                 7.7344
 IR Inten    --     20.3330                30.8591                 2.6836

 - Thermochemistry -
 -------------------
 Temperature   298.150 Kelvin.  Pressure   1.00000 Atm.
 Atom     1 has atomic number  6 and mass  12.00000

 Molecular mass:   201.11874 amu.
 Principal axes and moments of inertia in atomic units:
                           1         2         3
     Eigenvalues --  1578.211393693.896894554.81875
           X            0.99994  -0.00694   0.00835
           Y            0.00679   0.99983   0.01741
           Z           -0.00847  -0.01735   0.99981
 This molecule is an asymmetric top.
 Rotational symmetry number  1.
 Warning -- assumption of classical behavior for rotation
           may cause significant error
 Rotational temperatures (Kelvin)      0.05488     0.02345     0.01902
 Rotational constants (GHZ):           1.14354     0.48857     0.39623
 Zero-point vibrational energy     754734.1 (Joules/Mol)
                                  180.38578 (Kcal/Mol)
 Warning -- explicit consideration of  18 degrees of freedom as
           vibrations may cause significant error
 Vibrational temperatures:     80.94    93.49   122.53   157.86   164.05
          (Kelvin)            166.96   279.17   313.64   343.88   382.03
                              409.74   415.99   504.05   516.06   568.35
                              727.47   731.62   816.17   898.26   922.14
                              988.73  1045.63  1120.16  1178.97  1256.27
                             1269.45  1288.86  1318.74  1332.01  1341.57
                             1357.18  1417.22  1451.23  1472.28  1486.03
                             1503.22  1537.67  1555.52  1608.37  1645.77
                             1658.88  1682.12  1698.60  1720.89  1741.53
                             1765.87  1791.71  1806.45  1824.39  1848.37
                             1874.41  1889.77  1896.33  1921.69  1952.88
                             1959.60  1979.64  1998.30  2006.55  2065.35
                             2159.44  2167.56  2177.60  2178.87  2179.60
                             2186.68  2190.29  2202.78  2205.34  2215.03
                             2235.59  4277.93  4309.30  4350.94  4372.94
                             4392.29  4396.43  4407.39  4409.35  4411.69
                             4417.52  4422.19  4451.48  4463.70  4468.63
                             4478.23  4495.24  4502.27  4517.93  5030.44

 Zero-point correction=                           0.287463 (Hartree/Particle)
 Thermal correction to Energy=                    0.300997
 Thermal correction to Enthalpy=                  0.301942
 Thermal correction to Gibbs Free Energy=         0.247040
 Sum of electronic and zero-point Energies=           -920.422880
 Sum of electronic and thermal Energies=              -920.409345
 Sum of electronic and thermal Enthalpies=            -920.408401
 Sum of electronic and thermal Free Energies=         -920.463303

                     E (Thermal)             CV                S
                      KCal/Mol        Cal/Mol-Kelvin    Cal/Mol-Kelvin
 Total                  188.879             51.557            115.551
 Electronic               0.000              0.000              0.000
 Translational            0.889              2.981             41.801
 Rotational               0.889              2.981             31.652
 Vibrational            187.101             45.595             42.098
 Vibration     1          0.596              1.975              4.584
 Vibration     2          0.597              1.971              4.300
 Vibration     3          0.601              1.959              3.768
 Vibration     4          0.606              1.941              3.274
 Vibration     5          0.607              1.938              3.199
 Vibration     6          0.608              1.936              3.165
 Vibration     7          0.635              1.848              2.189
 Vibration     8          0.646              1.814              1.976
 Vibration     9          0.657              1.781              1.810
 Vibration    10          0.671              1.736              1.625
 Vibration    11          0.683              1.702              1.505
 Vibration    12          0.686              1.694              1.479
 Vibration    13          0.727              1.575              1.165
 Vibration    14          0.734              1.557              1.128
 Vibration    15          0.762              1.481              0.981
 Vibration    16          0.861              1.238              0.644
 Vibration    17          0.864              1.231              0.637
 Vibration    18          0.923              1.102              0.510

 Optimization completed.
    -- Stationary point found.
 Normal termination of Gaussian 16 at Wed Dec  9 23:00:25 2020.

 ----------------------------------------------------------------------
 # B3LYP/6-311++G(d,p) empiricaldispersion=gd3bj scf=xqc pop=npa geom=c
 heck
 ----------------------------------------------------------------------

 ---------------------------------------
 CID_117271852_JID_3205_Energie_neutraal
 ---------------------------------------
 Structure from the checkpoint file:  "JID_3205.chk"
 Charge =  0 Multiplicity = 1

 SCF Done:  E(RB3LYP) =  -920.885351408     A.U. after   15 cycles
 Normal termination of Gaussian 16 at Wed Dec  9 23:05:48 2020.

 ----------------------------------------------------------------------
 # B3LYP/6-311++G(d,p) empiricaldispersion=gd3bj scf=xqc pop=npa geom=c
 heck
 ----------------------------------------------------------------------

 -------------------------------------
 CID_117271852_JID_3205_Energie_kation
 -------------------------------------
 Structure from the checkpoint file:  "JID_3205.chk"
 Charge =  1 Multiplicity = 2

 SCF Done:  E(UB3LYP) =  -920.605871393     A.U. after   19 cycles
 Normal termination of Gaussian 16 at Wed Dec  9 23:15:26 2020.
 Gaussian 16:  ES64L-G16RevA.03 25-Dec-2016

 ----------------------------------------------------------------------
 # B3LYP/6-311++G(d,p) empiricaldispersion=gd3bj scf=xqc pop=npa geom=c
 heck
 ----------------------------------------------------------------------

 ------------------------------------
 CID_117271852_JID_3205_Energie_anion
 ------------------------------------
 Structure from the checkpoint file:  "JID_3205.chk"
 Charge = -1 Multiplicity = 2

                         Standard orientation:
 ---------------------------------------------------------------------
 Center     Atomic      Atomic             Coordinates (Angstroms)
 Number     Number       Type             X           Y           Z
 ---------------------------------------------------------------------
      1          6           0       -3.822533   -1.634663   -0.125883
      2          8           0       -2.832036   -0.635243   -0.018036
      3          6           0       -1.527944   -1.129585   -0.265209
      4          6           0       -0.522653    0.021414   -0.128322
      5          6           0       -0.562736    0.641738    1.302142
      6          6           0       -1.331654    1.959911    1.132604
      7          6           0       -0.950672    2.366596   -0.297647
      8          7           0       -0.901515    1.110130   -1.071329
      9          6           0        0.865220   -0.530635   -0.525139
     10          6           0        1.440901   -1.608009    0.411333
     11          6           0        2.965638   -1.593876    0.270415
     12          6           0        3.386923   -0.126667    0.371422
     13         16           0        2.153734    0.811934   -0.626250
     14          1           0       -4.786142   -1.156617    0.066785
     15          1           0       -3.667222   -2.439517    0.609849
     16          1           0       -3.837648   -2.083668   -1.131694
     17          1           0       -1.286652   -1.933331    0.447196
     18          1           0       -1.475483   -1.555946   -1.282281
     19          1           0       -1.032877   -0.030857    2.025278
     20          1           0        0.457420    0.849102    1.641436
     21          1           0       -2.409242    1.774892    1.195837
     22          1           0       -1.061914    2.710183    1.883995
     23          1           0       -1.655369    3.062615   -0.764068
     24          1           0        0.040184    2.833502   -0.307610
     25          1           0       -1.850915    0.915708   -1.383211
     26          1           0        0.775327   -0.928877   -1.540585
     27          1           0        1.170891   -1.376348    1.448832
     28          1           0        1.022455   -2.593222    0.176030
     29          1           0        3.453883   -2.206063    1.038173
     30          1           0        3.253450   -1.991856   -0.709849
     31          1           0        3.369781    0.216194    1.411587
     32          1           0        4.384272    0.056856   -0.036412
 ---------------------------------------------------------------------

 SCF Done:  E(UB3LYP) =  -920.871821445     A.U. after   27 cycles

 The electronic state is 2-A.
 Alpha  occ. eigenvalues --  -88.73025 -19.03214 -14.19384 -10.11779 -10.11105
 Alpha  occ. eigenvalues --  -10.11021 -10.09989 -10.09692 -10.09023 -10.07644
 Alpha  occ. eigenvalues --  -10.07377 -10.06555 -10.06390  -7.81653  -5.78036
 Alpha  occ. eigenvalues --   -5.77693  -5.77019  -0.94623  -0.82207  -0.74480
 Alpha  occ. eigenvalues --   -0.67805  -0.66215  -0.62351  -0.62074  -0.58441
 Alpha  occ. eigenvalues --   -0.54559  -0.49530  -0.49462  -0.48147  -0.43697
 Alpha  occ. eigenvalues --   -0.40882  -0.39454  -0.38790  -0.38249  -0.36773
 Alpha  occ. eigenvalues --   -0.35372  -0.34903  -0.32737  -0.32283  -0.30849
 Alpha  occ. eigenvalues --   -0.29820  -0.28411  -0.27140  -0.25927  -0.25347
 Alpha  occ. eigenvalues --   -0.24880  -0.24200  -0.23789  -0.23414  -0.22656
 Alpha  occ. eigenvalues --   -0.21972  -0.20125  -0.16924  -0.13775  -0.11791
 Alpha  occ. eigenvalues --    0.04384
 Alpha virt. eigenvalues --    0.06257   0.07381   0.07993   0.08272   0.08869
 Alpha virt. eigenvalues --    0.09288   0.09828   0.10040   0.10789   0.11162
 Alpha virt. eigenvalues --    0.11527   0.12293   0.12651   0.12986   0.13567

  Beta  occ. eigenvalues --  -88.73024 -19.03204 -14.19379 -10.11757 -10.11051
  Beta  occ. eigenvalues --  -10.11017 -10.09986 -10.09671 -10.09021 -10.07617
  Beta  occ. eigenvalues --  -10.07354 -10.06551 -10.06377  -7.81652  -5.78034
  Beta  occ. eigenvalues --   -5.77693  -5.77018  -0.94607  -0.82197  -0.74455
  Beta  occ. eigenvalues --   -0.67780  -0.66201  -0.62305  -0.62036  -0.58396
  Beta  occ. eigenvalues --   -0.54483  -0.49484  -0.49443  -0.48084  -0.43670
  Beta  occ. eigenvalues --   -0.40854  -0.39406  -0.38755  -0.38220  -0.36721
  Beta  occ. eigenvalues --   -0.35344  -0.34875  -0.32698  -0.32265  -0.30816
  Beta  occ. eigenvalues --   -0.29793  -0.28380  -0.27117  -0.25893  -0.25318
  Beta  occ. eigenvalues --   -0.24852  -0.24167  -0.23759  -0.23384  -0.22637
  Beta  occ. eigenvalues --   -0.21934  -0.20107  -0.16898  -0.13766  -0.11783
  Beta virt. eigenvalues --    0.06689   0.07202   0.07670   0.08439   0.08869
  Beta virt. eigenvalues --    0.09358   0.09648   0.10231   0.10331   0.11241
  Beta virt. eigenvalues --    0.11601   0.11787   0.12582   0.13021   0.13201

 Mulliken charges and spin densities:
               1          2
     1  C    1.259782  -1.502166
     2  O   -0.194035   0.084365
     3  C   -0.078868  -0.577711
     4  C    0.368369  -0.105643
     5  C   -0.227861  -0.409545
     6  C    0.050594  -0.372906
     7  C   -0.330906  -0.030228
     8  N    0.087100   0.024403
     9  C   -0.341391   0.536296
    10  C   -0.362048  -0.109437
    11  C    0.222050  -0.582839
    12  C    0.137395  -0.776557
    13  S   -0.033369  -0.010316
    14  H   -0.396813   0.536992
    15  H   -0.556421   0.697200
    16  H   -0.455242   0.586466
    17  H    0.213533  -0.020106
    18  H    0.069354   0.094738
    19  H   -0.260200   0.429432
    20  H    0.343482  -0.165776
    21  H    0.194254  -0.045494
    22  H    0.063128   0.090251
    23  H    0.047919   0.101752
    24  H    0.154381  -0.038626
    25  H    0.193070   0.068401
    26  H    0.021712   0.243952
    27  H   -0.162961   0.370536
    28  H   -0.482627   0.639878
    29  H   -0.646883   0.828106
    30  H    0.161607  -0.007145
    31  H   -0.050571   0.227954
    32  H   -0.007533   0.193772
 Sum of Mulliken charges =  -1.00000   1.00000

 Dipole moment (field-independent basis, Debye):
    X=              2.0695    Y=              6.5809    Z=             -1.0535  Tot=              6.9786
 Quadrupole moment (field-independent basis, Debye-Ang):
   XX=           -163.7718   YY=           -138.1331   ZZ=           -125.4970
   XY=             -9.1299   XZ=             -3.6308   YZ=              6.9837

 Summary of Natural Population Analysis:

                                       Natural Population
                Natural  -----------------------------------------------
    Atom  No    Charge         Core      Valence    Rydberg      Total
 -----------------------------------------------------------------------
      C    1   -0.09503      0.99962     2.08631    0.00910     3.09503
      O    2   -0.30394      0.99988     3.29399    0.01007     4.30394
      C    3   -0.01171      0.99949     1.99898    0.01325     3.01171
      C    4    0.05052      0.99952     1.93153    0.01843     2.94948
      C    5   -0.20223      0.99959     2.19235    0.01029     3.20223
      C    6   -0.19880      0.99963     2.19236    0.00681     3.19880
      C    7   -0.08976      0.99964     2.08045    0.00967     3.08976
      N    8   -0.34514      0.99973     2.83445    0.01095     3.84514
      C    9   -0.15104      0.99949     2.13653    0.01501     3.15104
      C   10   -0.20025      0.99959     2.18966    0.01099     3.20025
      C   11   -0.19271      0.99962     2.18373    0.00936     3.19271
      C   12   -0.24537      0.99960     2.23556    0.01021     3.24537
      S   13    0.07891      4.99963     2.90568    0.01577     7.92109
      H   14    0.09026      0.00000     0.40826    0.00148     0.40974
      H   15    0.08261      0.00000     0.41478    0.00261     0.41739
      H   16    0.07976      0.00000     0.41801    0.00222     0.42024
      H   17    0.09014      0.00000     0.40767    0.00219     0.40986
      H   18    0.08350      0.00000     0.41490    0.00160     0.41650
      H   19    0.10608      0.00000     0.39262    0.00131     0.39392
      H   20    0.10274      0.00000     0.39553    0.00173     0.39726
      H   21    0.10000      0.00000     0.39826    0.00173     0.40000
      H   22    0.09508      0.00000     0.40392    0.00099     0.40492
      H   23    0.09032      0.00000     0.40873    0.00095     0.40968
      H   24    0.09151      0.00000     0.40696    0.00153     0.40849
      H   25    0.17834      0.00000     0.31871    0.00295     0.32166
      H   26    0.10370      0.00000     0.39436    0.00194     0.39630
      H   27    0.10124      0.00000     0.39680    0.00196     0.39876
      H   28    0.10937      0.00000     0.38890    0.00173     0.39063
      H   29    0.10531      0.00000     0.39265    0.00204     0.39469
      H   30    0.09696      0.00000     0.40186    0.00118     0.40304
      H   31    0.09630      0.00000     0.40209    0.00161     0.40370
      H   32    0.10331      0.00000     0.39548    0.00121     0.39669
 =======================================================================
   * Total *   -0.00000     16.99504    37.82209    0.18288    55.00000

 Normal termination of Gaussian 16 at Wed Dec  9 23:28:49 2020.
