 Gaussian 16, Revision A.03,

 -----------------------------------------------------------
 # opt freq B3LYP/6-31G(d) empiricaldispersion=gd3bj scf=xqc
 -----------------------------------------------------------

 ------------------------------
 CID_81426659_JID_9371_neutraal
 ------------------------------
 Symbolic Z-matrix:
 Charge =  0 Multiplicity = 1

 SCF Done:  E(RB3LYP) =  -838.574150460     A.U. after   14 cycles
 SCF Done:  E(RB3LYP) =  -838.583180915     A.U. after   13 cycles
 SCF Done:  E(RB3LYP) =  -838.584474653     A.U. after   12 cycles
 SCF Done:  E(RB3LYP) =  -838.584469893     A.U. after   12 cycles
 SCF Done:  E(RB3LYP) =  -838.584932946     A.U. after   12 cycles
 SCF Done:  E(RB3LYP) =  -838.585026617     A.U. after   12 cycles
 SCF Done:  E(RB3LYP) =  -838.585056506     A.U. after   11 cycles
 SCF Done:  E(RB3LYP) =  -838.585071123     A.U. after   10 cycles
 SCF Done:  E(RB3LYP) =  -838.585073355     A.U. after    8 cycles
 SCF Done:  E(RB3LYP) =  -838.585074042     A.U. after    8 cycles
 SCF Done:  E(RB3LYP) =  -838.585074297     A.U. after    8 cycles
 Optimization completed.
    -- Stationary point found.
 Normal termination of Gaussian 16 at Sun Dec 13 16:08:15 2020.

 --------------------------------------------------------------------
 #N Geom=AllCheck Guess=TCheck SCRF=Check GenChk RB3LYP/6-31G(d) Freq
 --------------------------------------------------------------------

 Structure from the checkpoint file:  "JID_9371.chk"
 ------------------------------
 CID_81426659_JID_9371_neutraal
 ------------------------------
 Charge =  0 Multiplicity = 1

 SCF Done:  E(RB3LYP) =  -838.585074297     A.U. after    1 cycles

  Exact polarizability: 183.645 -16.629 198.645 -34.994  11.465 136.246
 Approx polarizability: 261.708 -40.874 348.579 -73.538  25.519 233.021

                      1                      2                      3
                      A                      A                      A
 Frequencies --     21.4182                35.2241                44.0773
 Red. masses --      5.4721                 5.5504                 4.4842
 Frc consts  --      0.0015                 0.0041                 0.0051
 IR Inten    --      0.0607                 1.3303                 1.6355

                      4                      5                      6
                      A                      A                      A
 Frequencies --     52.8810                79.5078               128.6514
 Red. masses --      4.0030                 5.1597                 4.7034
 Frc consts  --      0.0066                 0.0192                 0.0459
 IR Inten    --      0.0908                 0.1630                 1.9403

                      7                      8                      9
                      A                      A                      A
 Frequencies --    138.2295               174.8180               180.6567
 Red. masses --      3.8761                 4.0701                 4.0452
 Frc consts  --      0.0436                 0.0733                 0.0778
 IR Inten    --      1.1150                 1.2233                 3.3032

                     10                     11                     12
                      A                      A                      A
 Frequencies --    218.5626               255.0272               270.7078
 Red. masses --      3.4065                 1.4032                 1.3849
 Frc consts  --      0.0959                 0.0538                 0.0598
 IR Inten    --      2.9826                81.6467                12.6568

                     13                     14                     15
                      A                      A                      A
 Frequencies --    284.1023               300.0050               320.3273
 Red. masses --      2.2626                 3.6740                 3.0240
 Frc consts  --      0.1076                 0.1948                 0.1828
 IR Inten    --      7.5461                 2.8581                35.3010

                     16                     17                     18
                      A                      A                      A
 Frequencies --    330.4683               350.3522               418.9065
 Red. masses --      2.4955                 2.5444                 2.9018
 Frc consts  --      0.1606                 0.1840                 0.3000
 IR Inten    --      9.8484                 0.3859                 6.3579

                     19                     20                     21
                      A                      A                      A
 Frequencies --    430.5110               434.0603               445.4086
 Red. masses --      1.9192                 1.4486                 2.9438
 Frc consts  --      0.2096                 0.1608                 0.3441
 IR Inten    --     25.2938                30.5831                 4.6649

                     22                     23                     24
                      A                      A                      A
 Frequencies --    475.6697               479.5328               508.7147
 Red. masses --      2.9115                 3.3832                 3.5425
 Frc consts  --      0.3881                 0.4584                 0.5401
 IR Inten    --     10.6905                 2.3180                 9.6007

                     25                     26                     27
                      A                      A                      A
 Frequencies --    523.6909               535.5151               563.2611
 Red. masses --      1.9726                 6.0637                 2.0484
 Frc consts  --      0.3187                 1.0246                 0.3829
 IR Inten    --    112.7344                 1.0045                79.0488

                     28                     29                     30
                      A                      A                      A
 Frequencies --    571.7061               618.7137               623.2515
 Red. masses --      5.0149                 3.8281                 3.4800
 Frc consts  --      0.9657                 0.8634                 0.7965
 IR Inten    --      4.5457                19.4440                13.5623

                     31                     32                     33
                      A                      A                      A
 Frequencies --    673.8739               717.5379               749.4813
 Red. masses --      3.7612                 3.3028                 3.7777
 Frc consts  --      1.0063                 1.0019                 1.2503
 IR Inten    --      1.7013                13.0517                33.6186

                     34                     35                     36
                      A                      A                      A
 Frequencies --    772.7797               778.8644               814.0855
 Red. masses --      1.5557                 2.3597                 1.8086
 Frc consts  --      0.5474                 0.8434                 0.7062
 IR Inten    --     22.5457                25.4647                44.4057

                     37                     38                     39
                      A                      A                      A
 Frequencies --    822.3700               842.3853               847.4497
 Red. masses --      3.8354                 2.1181                 3.1817
 Frc consts  --      1.5283                 0.8856                 1.3463
 IR Inten    --     10.7198                35.8830                15.8547

                     40                     41                     42
                      A                      A                      A
 Frequencies --    890.4858               893.0450               907.6552
 Red. masses --      3.7151                 2.3010                 2.0226
 Frc consts  --      1.7357                 1.0812                 0.9818
 IR Inten    --     17.9574                30.6282                10.5002

                     43                     44                     45
                      A                      A                      A
 Frequencies --    917.3105               937.4735               958.2518
 Red. masses --      1.6682                 2.3348                 3.1418
 Frc consts  --      0.8270                 1.2090                 1.6997
 IR Inten    --      5.0790                 4.0302                38.6683

                     46                     47                     48
                      A                      A                      A
 Frequencies --    964.8381               975.5666               988.8658
 Red. masses --      1.4060                 1.2981                 1.9201
 Frc consts  --      0.7712                 0.7279                 1.1062
 IR Inten    --      0.2488                 0.4450                27.4546

                     49                     50                     51
                      A                      A                      A
 Frequencies --    992.1757              1058.5098              1067.5263
 Red. masses --      1.3355                 3.2230                 2.4563
 Frc consts  --      0.7746                 2.1277                 1.6493
 IR Inten    --      1.9661                 2.1873                 5.3079

                     52                     53                     54
                      A                      A                      A
 Frequencies --   1085.0163              1100.9448              1112.7819
 Red. masses --      1.6522                 2.0757                 1.7860
 Frc consts  --      1.1460                 1.4823                 1.3030
 IR Inten    --      5.9679                19.7410                 8.2822

                     55                     56                     57
                      A                      A                      A
 Frequencies --   1132.5781              1156.4035              1166.9982
 Red. masses --      3.1725                 1.7786                 1.4972
 Frc consts  --      2.3977                 1.4013                 1.2013
 IR Inten    --     39.0456                27.7852                 1.0203

                     58                     59                     60
                      A                      A                      A
 Frequencies --   1170.0076              1198.3078              1238.7982
 Red. masses --      1.5821                 1.2950                 1.3917
 Frc consts  --      1.2760                 1.0956                 1.2583
 IR Inten    --      3.4783                 4.8825                47.0270

                     61                     62                     63
                      A                      A                      A
 Frequencies --   1254.6508              1274.1448              1280.1139
 Red. masses --      1.9103                 1.7425                 2.0429
 Frc consts  --      1.7717                 1.6667                 1.9724
 IR Inten    --     18.1042                21.9508                 9.8006

                     64                     65                     66
                      A                      A                      A
 Frequencies --   1291.4793              1335.2086              1356.1983
 Red. masses --      1.4890                 1.5789                 1.5889
 Frc consts  --      1.4633                 1.6585                 1.7218
 IR Inten    --      8.7907                 6.7378                79.8298

                     67                     68                     69
                      A                      A                      A
 Frequencies --   1376.3708              1379.7313              1388.4670
 Red. masses --      1.7181                 1.7708                 1.2530
 Frc consts  --      1.9177                 1.9861                 1.4233
 IR Inten    --      6.2819                10.1095                 8.7328

                     70                     71                     72
                      A                      A                      A
 Frequencies --   1401.9388              1412.1993              1435.1976
 Red. masses --      4.9255                 1.2815                 1.3258
 Frc consts  --      5.7037                 1.5058                 1.6090
 IR Inten    --     13.9436                 4.6457                 3.3753

                     73                     74                     75
                      A                      A                      A
 Frequencies --   1440.3505              1449.9926              1478.0538
 Red. masses --      1.7947                 2.0805                 2.0543
 Frc consts  --      2.1938                 2.5772                 2.6442
 IR Inten    --      2.5375                18.0676                 0.9664

                     76                     77                     78
                      A                      A                      A
 Frequencies --   1505.2146              1512.2855              1518.2841
 Red. masses --      1.1447                 1.2020                 1.0631
 Frc consts  --      1.5281                 1.6197                 1.4439
 IR Inten    --      3.6209                 4.4395                 6.8590

                     79                     80                     81
                      A                      A                      A
 Frequencies --   1519.7831              1531.7586              1553.0917
 Red. masses --      2.1678                 1.0474                 3.6673
 Frc consts  --      2.9500                 1.4480                 5.2119
 IR Inten    --      2.3638                 5.1605                27.4784

                     82                     83                     84
                      A                      A                      A
 Frequencies --   1556.1834              1627.1291              1653.2972
 Red. masses --      1.1984                 6.9618                 1.2201
 Frc consts  --      1.7099                10.8596                 1.9649
 IR Inten    --     31.4000                 9.4384                63.5276

                     85                     86                     87
                      A                      A                      A
 Frequencies --   1658.3404              1671.4612              1730.5175
 Red. masses --      5.2394                 5.9876                 5.2865
 Frc consts  --      8.4895                 9.8559                 9.3275
 IR Inten    --     11.3006                 3.4730               117.9194

                     88                     89                     90
                      A                      A                      A
 Frequencies --   3035.2826              3060.0465              3062.0399
 Red. masses --      1.0412                 1.0683                 1.0706
 Frc consts  --      5.6515                 5.8939                 5.9140
 IR Inten    --     34.6320                55.6262                16.6577

                     91                     92                     93
                      A                      A                      A
 Frequencies --   3081.6459              3104.3617              3136.9345
 Red. masses --      1.0875                 1.0963                 1.0997
 Frc consts  --      6.0847                 6.2251                 6.3758
 IR Inten    --      0.7069                34.4312                21.1521

                     94                     95                     96
                      A                      A                      A
 Frequencies --   3138.2484              3157.7805              3160.3628
 Red. masses --      1.0966                 1.0921                 1.0892
 Frc consts  --      6.3631                 6.4160                 6.4099
 IR Inten    --     12.8884                 5.3679                30.6622

                     97                     98                     99
                      A                      A                      A
 Frequencies --   3180.6821              3184.5266              3188.6856
 Red. masses --      1.0866                 1.0887                 1.0904
 Frc consts  --      6.4765                 6.5052                 6.5320
 IR Inten    --      0.0906                 6.5920                23.3358

                    100                    101                    102
                      A                      A                      A
 Frequencies --   3207.7824              3213.6504              3467.3697
 Red. masses --      1.0962                 1.0960                 1.0736
 Frc consts  --      6.6460                 6.6688                 7.6052
 IR Inten    --     29.5832                24.2887                20.3754

                    103                    104                    105
                      A                      A                      A
 Frequencies --   3577.8593              3691.1627              3790.5035
 Red. masses --      1.0461                 1.1008                 1.0679
 Frc consts  --      7.8901                 8.8363                 9.0404
 IR Inten    --     28.3589                26.0768                52.3844

 - Thermochemistry -
 -------------------
 Temperature   298.150 Kelvin.  Pressure   1.00000 Atm.
 Atom     1 has atomic number  6 and mass  12.00000

 Molecular mass:   258.14806 amu.
 Principal axes and moments of inertia in atomic units:
                           1         2         3
     Eigenvalues --  3088.670706800.930357778.71553
           X            0.99984   0.01639  -0.00676
           Y           -0.01631   0.99980   0.01152
           Z            0.00695  -0.01141   0.99991
 This molecule is an asymmetric top.
 Rotational symmetry number  1.
 Warning -- assumption of classical behavior for rotation
           may cause significant error
 Rotational temperatures (Kelvin)      0.02804     0.01274     0.01113
 Rotational constants (GHZ):           0.58431     0.26537     0.23201
 Zero-point vibrational energy     818106.3 (Joules/Mol)
                                  195.53210 (Kcal/Mol)
 Warning -- explicit consideration of  29 degrees of freedom as
           vibrations may cause significant error
 Vibrational temperatures:     30.82    50.68    63.42    76.08   114.39
          (Kelvin)            185.10   198.88   251.52   259.92   314.46
                              366.93   389.49   408.76   431.64   460.88
                              475.47   504.08   602.71   619.41   624.52
                              640.84   684.38   689.94   731.93   753.47
                              770.49   810.41   822.56   890.19   896.72
                              969.55  1032.38  1078.34  1111.86  1120.61
                             1171.29  1183.21  1212.00  1219.29  1281.21
                             1284.89  1305.91  1319.81  1348.82  1378.71
                             1388.19  1403.62  1422.76  1427.52  1522.96
                             1535.93  1561.10  1584.01  1601.04  1629.53
                             1663.81  1679.05  1683.38  1724.10  1782.35
                             1805.16  1833.21  1841.80  1858.15  1921.07
                             1951.27  1980.29  1985.13  1997.69  2017.08
                             2031.84  2064.93  2072.34  2086.22  2126.59
                             2165.67  2175.84  2184.47  2186.63  2203.86
                             2234.55  2239.00  2341.08  2378.73  2385.98
                             2404.86  2489.83  4367.09  4402.72  4405.59
                             4433.80  4466.48  4513.35  4515.24  4543.34
                             4547.06  4576.29  4581.82  4587.81  4615.28
                             4623.73  4988.77  5147.74  5310.76  5453.69

 Zero-point correction=                           0.311600 (Hartree/Particle)
 Thermal correction to Energy=                    0.329189
 Thermal correction to Enthalpy=                  0.330133
 Thermal correction to Gibbs Free Energy=         0.265093
 Sum of electronic and zero-point Energies=           -838.273474
 Sum of electronic and thermal Energies=              -838.255885
 Sum of electronic and thermal Enthalpies=            -838.254941
 Sum of electronic and thermal Free Energies=         -838.319981

                     E (Thermal)             CV                S
                      KCal/Mol        Cal/Mol-Kelvin    Cal/Mol-Kelvin
 Total                  206.569             68.840            136.889
 Electronic               0.000              0.000              0.000
 Translational            0.889              2.981             42.545
 Rotational               0.889              2.981             33.457
 Vibrational            204.792             62.879             60.887
 Vibration     1          0.593              1.985              6.498
 Vibration     2          0.594              1.982              5.511
 Vibration     3          0.595              1.980              5.067
 Vibration     4          0.596              1.976              4.707
 Vibration     5          0.600              1.963              3.903
 Vibration     6          0.611              1.925              2.966
 Vibration     7          0.614              1.915              2.828
 Vibration     8          0.627              1.873              2.383
 Vibration     9          0.630              1.866              2.322
 Vibration    10          0.646              1.813              1.971
 Vibration    11          0.665              1.754              1.696
 Vibration    12          0.674              1.727              1.592
 Vibration    13          0.683              1.703              1.509
 Vibration    14          0.693              1.674              1.417
 Vibration    15          0.706              1.635              1.308
 Vibration    16          0.713              1.615              1.258
 Vibration    17          0.727              1.575              1.165
 Vibration    18          0.782              1.429              0.896
 Vibration    19          0.792              1.404              0.857
 Vibration    20          0.795              1.396              0.845
 Vibration    21          0.805              1.371              0.810
 Vibration    22          0.832              1.304              0.722
 Vibration    23          0.836              1.295              0.711
 Vibration    24          0.864              1.231              0.637
 Vibration    25          0.879              1.198              0.601
 Vibration    26          0.891              1.171              0.575
 Vibration    27          0.919              1.111              0.517
 Vibration    28          0.928              1.092              0.501
 Vibration    29          0.979              0.992              0.419

                           ! Non-Optimized Parameters !
 Normal termination of Gaussian 16 at Sun Dec 13 16:26:32 2020.

 ----------------------------------------------------------------------
 # B3LYP/6-311++G(d,p) empiricaldispersion=gd3bj scf=xqc pop=npa geom=c
 heck
 ----------------------------------------------------------------------

 --------------------------------------
 CID_81426659_JID_9371_Energie_neutraal
 --------------------------------------
 Structure from the checkpoint file:  "JID_9371.chk"
 Charge =  0 Multiplicity = 1

 SCF Done:  E(RB3LYP) =  -838.826297195     A.U. after   15 cycles
 Normal termination of Gaussian 16 at Sun Dec 13 16:33:39 2020.

 ----------------------------------------------------------------------
 # B3LYP/6-311++G(d,p) empiricaldispersion=gd3bj scf=xqc pop=npa geom=c
 heck
 ----------------------------------------------------------------------

 ------------------------------------
 CID_81426659_JID_9371_Energie_kation
 ------------------------------------
 Structure from the checkpoint file:  "JID_9371.chk"
 Charge =  1 Multiplicity = 2

 SCF Done:  E(UB3LYP) =  -838.552128094     A.U. after   27 cycles
 Normal termination of Gaussian 16 at Sun Dec 13 16:50:38 2020.
 Gaussian 16:  ES64L-G16RevA.03 25-Dec-2016

 ----------------------------------------------------------------------
 # B3LYP/6-311++G(d,p) empiricaldispersion=gd3bj scf=xqc pop=npa geom=c
 heck
 ----------------------------------------------------------------------

 -----------------------------------
 CID_81426659_JID_9371_Energie_anion
 -----------------------------------
 Structure from the checkpoint file:  "JID_9371.chk"
 Charge = -1 Multiplicity = 2

                         Standard orientation:
 ---------------------------------------------------------------------
 Center     Atomic      Atomic             Coordinates (Angstroms)
 Number     Number       Type             X           Y           Z
 ---------------------------------------------------------------------
      1          6           0       -2.450607   -2.588732    0.312891
      2          6           0       -1.279310   -1.599628    0.325705
      3          6           0       -1.322882   -0.650521   -0.910715
      4          6           0       -2.566608    0.196647   -0.955380
      5          7           0       -2.598682    1.258999   -0.216811
      6          8           0       -3.889118    1.877921   -0.338370
      7          7           0       -3.599181   -0.200011   -1.773271
      8          7           0       -1.264663   -0.891682    1.608263
      9          6           0        0.054673   -0.531130    2.137101
     10          6           0        0.883466    0.416682    1.284757
     11          6           0        0.622128    1.772972    1.289480
     12          6           0        1.327748    2.674747    0.462242
     13          6           0        2.313780    2.217235   -0.380814
     14          6           0        2.623407    0.835178   -0.423550
     15          6           0        1.902905   -0.079045    0.413579
     16          7           0        2.151698   -1.422523    0.389246
     17          6           0        3.084816   -1.874015   -0.423173
     18          6           0        3.856063   -1.053190   -1.281486
     19          6           0        3.620044    0.300081   -1.277587
     20          1           0       -3.405289   -2.064728    0.438903
     21          1           0       -2.350332   -3.294512    1.141845
     22          1           0       -2.488674   -3.156675   -0.626564
     23          1           0       -0.342727   -2.162603    0.254232
     24          1           0       -0.453991    0.007564   -0.887876
     25          1           0       -1.261897   -1.242451   -1.832212
     26          1           0       -3.784408    2.658363    0.223633
     27          1           0       -3.639522   -1.181499   -2.006145
     28          1           0       -4.491349    0.235568   -1.577649
     29          1           0       -1.843599   -0.055590    1.525227
     30          1           0       -0.113986   -0.064923    3.114901
     31          1           0        0.618498   -1.451354    2.300886
     32          1           0       -0.164790    2.154116    1.934926
     33          1           0        1.084609    3.732802    0.495017
     34          1           0        2.862981    2.901034   -1.023074
     35          1           0        3.252624   -2.950532   -0.413585
     36          1           0        4.610532   -1.496703   -1.923682
     37          1           0        4.182325    0.971586   -1.922108
 ---------------------------------------------------------------------

 SCF Done:  E(UB3LYP) =  -838.834322143     A.U. after   31 cycles

 The electronic state is 2-A.
 Alpha  occ. eigenvalues --  -19.06032 -14.23650 -14.23406 -14.16821 -14.14243
 Alpha  occ. eigenvalues --  -10.13783 -10.08613 -10.06516 -10.06108 -10.05909
 Alpha  occ. eigenvalues --  -10.05436 -10.05195 -10.04076 -10.03135 -10.02953
 Alpha  occ. eigenvalues --  -10.02662 -10.02503 -10.02489 -10.02236  -0.97227
 Alpha  occ. eigenvalues --   -0.83952  -0.79412  -0.78199  -0.73139  -0.70323
 Alpha  occ. eigenvalues --   -0.66723  -0.65292  -0.60779  -0.60310  -0.59503
 Alpha  occ. eigenvalues --   -0.53422  -0.49887  -0.49267  -0.48371  -0.46110
 Alpha  occ. eigenvalues --   -0.44214  -0.43275  -0.42613  -0.38635  -0.37712
 Alpha  occ. eigenvalues --   -0.36439  -0.36119  -0.35642  -0.34355  -0.32397
 Alpha  occ. eigenvalues --   -0.31412  -0.30720  -0.30240  -0.29193  -0.28992
 Alpha  occ. eigenvalues --   -0.28309  -0.27221  -0.26820  -0.26026  -0.25597
 Alpha  occ. eigenvalues --   -0.24546  -0.23067  -0.22933  -0.22658  -0.21690
 Alpha  occ. eigenvalues --   -0.20254  -0.19906  -0.18388  -0.16308  -0.12901
 Alpha  occ. eigenvalues --   -0.11521  -0.11216  -0.10079  -0.08824   0.04249
 Alpha virt. eigenvalues --    0.05919   0.07507   0.08662   0.09206   0.09630
 Alpha virt. eigenvalues --    0.09832   0.10489   0.11002   0.11272   0.11877
 Alpha virt. eigenvalues --    0.12196   0.12500   0.12929   0.13212   0.13442

  Beta  occ. eigenvalues --  -19.06027 -14.23649 -14.23387 -14.16804 -14.13861
  Beta  occ. eigenvalues --  -10.13782 -10.08614 -10.06512 -10.06160 -10.05922
  Beta  occ. eigenvalues --  -10.05424 -10.05068 -10.04161 -10.03100 -10.02937
  Beta  occ. eigenvalues --  -10.02574 -10.02268 -10.02105 -10.02035  -0.97218
  Beta  occ. eigenvalues --   -0.83931  -0.79031  -0.78032  -0.73121  -0.69979
  Beta  occ. eigenvalues --   -0.66512  -0.64950  -0.60510  -0.60085  -0.59367
  Beta  occ. eigenvalues --   -0.53288  -0.49693  -0.48810  -0.48254  -0.46077
  Beta  occ. eigenvalues --   -0.43985  -0.43240  -0.42582  -0.38355  -0.37588
  Beta  occ. eigenvalues --   -0.36275  -0.36010  -0.35586  -0.34323  -0.32336
  Beta  occ. eigenvalues --   -0.31339  -0.30660  -0.30209  -0.29158  -0.28862
  Beta  occ. eigenvalues --   -0.28193  -0.27019  -0.26455  -0.25659  -0.25405
  Beta  occ. eigenvalues --   -0.24412  -0.22912  -0.22887  -0.22588  -0.21612
  Beta  occ. eigenvalues --   -0.19962  -0.19149  -0.18198  -0.14851  -0.12880
  Beta  occ. eigenvalues --   -0.11169  -0.10500  -0.09691  -0.07512
  Beta virt. eigenvalues --    0.06148   0.07543   0.08594   0.09074   0.09537
  Beta virt. eigenvalues --    0.09652   0.09846   0.10585   0.10942   0.11219
  Beta virt. eigenvalues --    0.11998   0.12160   0.12471   0.12869   0.13330

 Mulliken charges and spin densities:
               1          2
     1  C   -0.195595  -0.393466
     2  C   -0.259735   0.409253
     3  C   -0.086533  -0.300295
     4  C   -0.163691  -0.088129
     5  N   -0.497885   0.005459
     6  O   -0.034120  -0.001465
     7  N   -0.261499  -0.007281
     8  N    0.097185  -0.061753
     9  C   -0.896912  -0.013985
    10  C    0.421038   0.125853
    11  C   -0.275533   0.085860
    12  C   -0.432551   0.033094
    13  C   -0.268954   0.181522
    14  C    0.443270  -0.106939
    15  C   -0.695235  -0.060456
    16  N   -0.002358   0.160951
    17  C    0.015025   0.119711
    18  C   -0.586617   0.051883
    19  C    0.338682   0.264200
    20  H    0.067768   0.100901
    21  H    0.103224   0.046980
    22  H   -0.000256   0.107528
    23  H    0.226769   0.004992
    24  H    0.162072  -0.026454
    25  H    0.131033   0.060684
    26  H    0.256570   0.012043
    27  H    0.103298   0.159717
    28  H    0.174722   0.087613
    29  H    0.219430  -0.010093
    30  H    0.086338   0.055062
    31  H    0.179220   0.017288
    32  H    0.085824   0.015540
    33  H    0.109137   0.003923
    34  H    0.098295  -0.012036
    35  H    0.117862  -0.005494
    36  H    0.105766  -0.000688
    37  H    0.114947  -0.021525
 Sum of Mulliken charges =  -1.00000   1.00000

 Dipole moment (field-independent basis, Debye):
    X=             -4.0928    Y=              0.7703    Z=             -0.9429  Tot=              4.2700
 Quadrupole moment (field-independent basis, Debye-Ang):
   XX=           -158.8451   YY=           -133.4949   ZZ=           -134.2010
   XY=             -1.6465   XZ=             -2.9126   YZ=              3.9141

 Summary of Natural Population Analysis:

                                       Natural Population
                Natural  -----------------------------------------------
    Atom  No    Charge         Core      Valence    Rydberg      Total
 -----------------------------------------------------------------------
      C    1   -0.28863      0.99965     2.28181    0.00717     3.28863
      C    2   -0.01672      0.99960     2.00494    0.01219     3.01672
      C    3   -0.22066      0.99956     2.21167    0.00943     3.22066
      C    4    0.20098      0.99964     1.77962    0.01975     2.79902
      N    5   -0.13457      0.99961     2.62308    0.01188     3.63457
      O    6   -0.31282      0.99990     3.30704    0.00589     4.31282
      N    7   -0.40373      0.99970     2.89475    0.00929     3.90373
      N    8   -0.34734      0.99974     2.83488    0.01272     3.84734
      C    9   -0.09456      0.99959     2.08309    0.01188     3.09456
      C   10   -0.00132      0.99947     1.99050    0.01135     3.00132
      C   11   -0.08150      0.99952     2.07349    0.00850     3.08150
      C   12   -0.10220      0.99957     2.09381    0.00882     3.10220
      C   13   -0.05582      0.99954     2.04815    0.00814     3.05582
      C   14   -0.06078      0.99949     2.05314    0.00815     3.06078
      C   15    0.07645      0.99944     1.91136    0.01275     2.92355
      N   16   -0.20577      0.99968     2.69342    0.01267     3.70577
      C   17    0.05168      0.99962     1.93456    0.01414     2.94832
      C   18   -0.13455      0.99956     2.12611    0.00887     3.13455
      C   19   -0.00935      0.99953     2.00138    0.00843     3.00935
      H   20    0.09424      0.00000     0.40413    0.00163     0.40576
      H   21    0.10293      0.00000     0.39588    0.00118     0.39707
      H   22    0.08959      0.00000     0.40957    0.00084     0.41041
      H   23    0.11026      0.00000     0.38774    0.00200     0.38974
      H   24    0.12871      0.00000     0.36921    0.00208     0.37129
      H   25    0.10015      0.00000     0.39890    0.00095     0.39985
      H   26    0.23417      0.00000     0.26324    0.00259     0.26583
      H   27    0.19081      0.00000     0.30776    0.00143     0.30919
      H   28    0.19784      0.00000     0.30047    0.00169     0.30216
      H   29    0.17902      0.00000     0.31777    0.00321     0.32098
      H   30    0.09078      0.00000     0.40819    0.00103     0.40922
      H   31    0.10574      0.00000     0.39302    0.00123     0.39426
      H   32    0.08952      0.00000     0.40878    0.00170     0.41048
      H   33    0.08890      0.00000     0.40956    0.00154     0.41110
      H   34    0.08673      0.00000     0.41167    0.00161     0.41327
      H   35    0.07613      0.00000     0.42266    0.00121     0.42387
      H   36    0.09105      0.00000     0.40781    0.00114     0.40895
      H   37    0.08465      0.00000     0.41373    0.00162     0.41535
 =======================================================================
   * Total *    0.00000     18.99239    49.77690    0.23070    69.00000

 Normal termination of Gaussian 16 at Sun Dec 13 17:09:05 2020.
