 Gaussian 16, Revision A.03,

 -----------------------------------------------------------
 # opt freq B3LYP/6-31G(d) empiricaldispersion=gd3bj scf=xqc
 -----------------------------------------------------------

 ------------------------------
 CID_58684072_JID_3685_neutraal
 ------------------------------
 Symbolic Z-matrix:
 Charge =  0 Multiplicity = 1

 SCF Done:  E(RB3LYP) =  -577.839469650     A.U. after   13 cycles
 SCF Done:  E(RB3LYP) =  -577.838523152     A.U. after   14 cycles
 SCF Done:  E(RB3LYP) =  -577.844100749     A.U. after   11 cycles
 SCF Done:  E(RB3LYP) =  -577.845422204     A.U. after   11 cycles
 SCF Done:  E(RB3LYP) =  -577.845693242     A.U. after   12 cycles
 SCF Done:  E(RB3LYP) =  -577.845752187     A.U. after   11 cycles
 SCF Done:  E(RB3LYP) =  -577.845774196     A.U. after   10 cycles
 SCF Done:  E(RB3LYP) =  -577.845781182     A.U. after    8 cycles
 SCF Done:  E(RB3LYP) =  -577.845782371     A.U. after    8 cycles
 SCF Done:  E(RB3LYP) =  -577.845782723     A.U. after    8 cycles
 Optimization completed.
    -- Stationary point found.
 Normal termination of Gaussian 16 at Mon Dec 14 16:34:39 2020.

 --------------------------------------------------------------------
 #N Geom=AllCheck Guess=TCheck SCRF=Check GenChk RB3LYP/6-31G(d) Freq
 --------------------------------------------------------------------

 Structure from the checkpoint file:  "JID_3685.chk"
 ------------------------------
 CID_58684072_JID_3685_neutraal
 ------------------------------
 Charge =  0 Multiplicity = 1

 SCF Done:  E(RB3LYP) =  -577.845782723     A.U. after    1 cycles

  Exact polarizability: 159.996   3.409 112.707   2.390   0.940 101.433
 Approx polarizability: 200.465   2.003 159.016   8.841   0.820 150.662

                      1                      2                      3
                      A                      A                      A
 Frequencies --     33.0528                36.9322                88.1801
 Red. masses --      3.2090                 3.1346                 3.2171
 Frc consts  --      0.0021                 0.0025                 0.0147
 IR Inten    --      0.0587                 0.0465                 1.5939

                      4                      5                      6
                      A                      A                      A
 Frequencies --    107.7302               163.1076               196.4638
 Red. masses --      3.4051                 2.4496                 1.0484
 Frc consts  --      0.0233                 0.0384                 0.0238
 IR Inten    --      0.2646                 0.0924                 0.1132

                      7                      8                      9
                      A                      A                      A
 Frequencies --    217.7889               244.9947               253.9549
 Red. masses --      3.2735                 1.1296                 1.0512
 Frc consts  --      0.0915                 0.0399                 0.0399
 IR Inten    --      1.5909                34.5370                 0.7757

                     10                     11                     12
                      A                      A                      A
 Frequencies --    258.3868               279.6810               301.8034
 Red. masses --      1.0595                 2.2200                 2.9464
 Frc consts  --      0.0417                 0.1023                 0.1581
 IR Inten    --      3.0355                 4.1415                 5.6321

                     13                     14                     15
                      A                      A                      A
 Frequencies --    334.2090               339.5739               354.4650
 Red. masses --      2.8800                 2.4137                 2.8120
 Frc consts  --      0.1895                 0.1640                 0.2082
 IR Inten    --      2.1114                 2.5823                 4.5952

                     16                     17                     18
                      A                      A                      A
 Frequencies --    369.9679               397.4416               429.3230
 Red. masses --      2.6974                 2.5774                 3.0666
 Frc consts  --      0.2175                 0.2399                 0.3330
 IR Inten    --      2.9621                 2.3934                 1.0805

                     19                     20                     21
                      A                      A                      A
 Frequencies --    439.8013               475.1875               520.6812
 Red. masses --      2.9822                 3.3105                 2.8297
 Frc consts  --      0.3399                 0.4404                 0.4520
 IR Inten    --      1.4215                 2.8747                 0.8671

                     22                     23                     24
                      A                      A                      A
 Frequencies --    529.5156               606.3916               667.5498
 Red. masses --      2.3845                 3.5129                 2.9819
 Frc consts  --      0.3939                 0.7611                 0.7829
 IR Inten    --      1.4486                 2.9310                 2.4384

                     25                     26                     27
                      A                      A                      A
 Frequencies --    752.6280               783.4259               851.4701
 Red. masses --      2.9294                 3.0351                 1.6574
 Frc consts  --      0.9777                 1.0975                 0.7080
 IR Inten    --      7.6182                 3.0600                 2.2461

                     28                     29                     30
                      A                      A                      A
 Frequencies --    865.2377               892.7460               924.5152
 Red. masses --      2.5701                 2.2198                 1.9597
 Frc consts  --      1.1336                 1.0424                 0.9869
 IR Inten    --     23.5777                 7.5543                 3.5229

                     31                     32                     33
                      A                      A                      A
 Frequencies --    930.2413               932.9086               942.1958
 Red. masses --      1.6585                 1.8824                 2.2310
 Frc consts  --      0.8456                 0.9652                 1.1669
 IR Inten    --      0.6561                45.4001                29.5009

                     34                     35                     36
                      A                      A                      A
 Frequencies --    947.6701               975.5808               989.4604
 Red. masses --      2.3320                 1.2003                 2.9234
 Frc consts  --      1.2340                 0.6731                 1.6863
 IR Inten    --     79.1610                 0.0617               145.1123

                     37                     38                     39
                      A                      A                      A
 Frequencies --   1003.2520              1048.2906              1057.4783
 Red. masses --      2.0987                 1.6997                 1.4084
 Frc consts  --      1.2446                 1.1005                 0.9279
 IR Inten    --    162.2176                26.8167                 0.5034

                     40                     41                     42
                      A                      A                      A
 Frequencies --   1068.4518              1084.7790              1097.6317
 Red. masses --      1.4521                 1.7241                 1.4429
 Frc consts  --      0.9767                 1.1953                 1.0243
 IR Inten    --      5.2243                 1.6724                15.1928

                     43                     44                     45
                      A                      A                      A
 Frequencies --   1128.6060              1161.1419              1192.5829
 Red. masses --      1.6623                 2.2261                 1.6742
 Frc consts  --      1.2475                 1.7683                 1.4029
 IR Inten    --     10.4614                 1.4650                13.4253

                     46                     47                     48
                      A                      A                      A
 Frequencies --   1225.5154              1243.2521              1270.6885
 Red. masses --      1.6929                 1.9285                 1.6862
 Frc consts  --      1.4981                 1.7563                 1.6041
 IR Inten    --     52.6365                86.8745                 1.5341

                     49                     50                     51
                      A                      A                      A
 Frequencies --   1281.9162              1288.7270              1303.0731
 Red. masses --      2.6566                 1.2904                 2.1976
 Frc consts  --      2.5721                 1.2627                 2.1986
 IR Inten    --     16.1229                 1.0247                13.8594

                     52                     53                     54
                      A                      A                      A
 Frequencies --   1310.6665              1355.8685              1374.2271
 Red. masses --      1.5053                 1.5037                 1.3754
 Frc consts  --      1.5235                 1.6288                 1.5304
 IR Inten    --      0.3573                 5.2685                 0.3384

                     55                     56                     57
                      A                      A                      A
 Frequencies --   1378.3446              1391.2089              1400.9539
 Red. masses --      1.3762                 1.4880                 1.5065
 Frc consts  --      1.5405                 1.6968                 1.7421
 IR Inten    --      1.8947                 3.2621                 0.8250

                     58                     59                     60
                      A                      A                      A
 Frequencies --   1420.9262              1424.1173              1440.8255
 Red. masses --      1.3009                 1.2997                 1.3387
 Frc consts  --      1.5475                 1.5530                 1.6374
 IR Inten    --     15.8689                15.0119                 3.4769

                     61                     62                     63
                      A                      A                      A
 Frequencies --   1448.4899              1499.6377              1505.5691
 Red. masses --      1.2445                 1.0481                 1.0953
 Frc consts  --      1.5384                 1.3888                 1.4628
 IR Inten    --     13.2439                 0.2000                 4.8632

                     64                     65                     66
                      A                      A                      A
 Frequencies --   1515.6925              1517.9051              1518.0984
 Red. masses --      1.0940                 1.0485                 1.0462
 Frc consts  --      1.4808                 1.4233                 1.4205
 IR Inten    --      1.6059                 0.2158                 0.2757

                     67                     68                     69
                      A                      A                      A
 Frequencies --   1519.1110              1525.4005              1527.9816
 Red. masses --      1.0799                 1.0680                 1.0549
 Frc consts  --      1.4682                 1.4641                 1.4512
 IR Inten    --      7.6628                 4.9200                 1.8286

                     70                     71                     72
                      A                      A                      A
 Frequencies --   1531.8506              1551.6344              1712.1127
 Red. masses --      1.0997                 1.0565                 1.0929
 Frc consts  --      1.5204                 1.4987                 1.8876
 IR Inten    --      1.0417                 5.0370                34.4489

                     73                     74                     75
                      A                      A                      A
 Frequencies --   1727.8945              2997.1090              3022.5732
 Red. masses --      9.1712                 1.0814                 1.0700
 Frc consts  --     16.1329                 5.7231                 5.7595
 IR Inten    --      4.0162                14.4627                22.7080

                     76                     77                     78
                      A                      A                      A
 Frequencies --   3024.9450              3032.5758              3040.3917
 Red. masses --      1.0706                 1.0657                 1.0610
 Frc consts  --      5.7716                 5.7746                 5.7784
 IR Inten    --     12.3858                48.2877                34.0951

                     79                     80                     81
                      A                      A                      A
 Frequencies --   3055.1472              3055.8183              3063.4264
 Red. masses --      1.0349                 1.0362                 1.0368
 Frc consts  --      5.6914                 5.7008                 5.7325
 IR Inten    --     13.5851                25.1767                17.1418

                     82                     83                     84
                      A                      A                      A
 Frequencies --   3079.4154              3086.3653              3101.8365
 Red. masses --      1.0951                 1.1033                 1.0965
 Frc consts  --      6.1185                 6.1921                 6.2156
 IR Inten    --     57.3071                58.3519                38.0844

                     85                     86                     87
                      A                      A                      A
 Frequencies --   3116.6436              3120.8413              3123.6777
 Red. masses --      1.0941                 1.1031                 1.1026
 Frc consts  --      6.2616                 6.3301                 6.3388
 IR Inten    --     19.0459                 4.3969                17.1631

                     88                     89                     90
                      A                      A                      A
 Frequencies --   3129.6210              3134.7467              3149.2323
 Red. masses --      1.1028                 1.1022                 1.1012
 Frc consts  --      6.3641                 6.3813                 6.4344
 IR Inten    --     35.4027                56.0520                 2.8249

                     91                     92                     93
                      A                      A                      A
 Frequencies --   3152.8250              3484.9031              3557.8650
 Red. masses --      1.1005                 1.0517                 1.0892
 Frc consts  --      6.4454                 7.5254                 8.1233
 IR Inten    --     32.9457                 0.0208                 0.2386

 - Thermochemistry -
 -------------------
 Temperature   298.150 Kelvin.  Pressure   1.00000 Atm.
 Atom     1 has atomic number  6 and mass  12.00000

 Molecular mass:   184.15756 amu.
 Principal axes and moments of inertia in atomic units:
                           1         2         3
     Eigenvalues --  1218.609374062.197714603.84074
           X            1.00000   0.00299  -0.00037
           Y           -0.00298   0.99998   0.00526
           Z            0.00038  -0.00526   0.99999
 This molecule is an asymmetric top.
 Rotational symmetry number  1.
 Warning -- assumption of classical behavior for rotation
           may cause significant error
 Rotational temperatures (Kelvin)      0.07108     0.02132     0.01881
 Rotational constants (GHZ):           1.48098     0.44428     0.39201
 Zero-point vibrational energy     783662.4 (Joules/Mol)
                                  187.29981 (Kcal/Mol)
 Warning -- explicit consideration of  23 degrees of freedom as
           vibrations may cause significant error
 Vibrational temperatures:     47.56    53.14   126.87   155.00   234.68
          (Kelvin)            282.67   313.35   352.49   365.38   371.76
                              402.40   434.23   480.85   488.57   510.00
                              532.30   571.83   617.70   632.78   683.69
                              749.14   761.85   872.46   960.46  1082.86
                             1127.18  1225.08  1244.88  1284.46  1330.17
                             1338.41  1342.25  1355.61  1363.49  1403.64
                             1423.61  1443.46  1508.26  1521.48  1537.26
                             1560.75  1579.25  1623.81  1670.62  1715.86
                             1763.24  1788.76  1828.24  1844.39  1854.19
                             1874.83  1885.76  1950.79  1977.21  1983.13
                             2001.64  2015.66  2044.40  2048.99  2073.03
                             2084.05  2157.64  2166.18  2180.74  2183.93
                             2184.20  2185.66  2194.71  2198.42  2203.99
                             2232.46  2463.35  2486.05  4312.17  4348.81
                             4352.22  4363.20  4374.45  4395.68  4396.64
                             4407.59  4430.59  4440.59  4462.85  4484.16
                             4490.19  4494.28  4502.83  4510.20  4531.04
                             4536.21  5014.00  5118.97

 Zero-point correction=                           0.298481 (Hartree/Particle)
 Thermal correction to Energy=                    0.312923
 Thermal correction to Enthalpy=                  0.313867
 Thermal correction to Gibbs Free Energy=         0.257459
 Sum of electronic and zero-point Energies=           -577.547301
 Sum of electronic and thermal Energies=              -577.532860
 Sum of electronic and thermal Enthalpies=            -577.531916
 Sum of electronic and thermal Free Energies=         -577.588324

                     E (Thermal)             CV                S
                      KCal/Mol        Cal/Mol-Kelvin    Cal/Mol-Kelvin
 Total                  196.362             55.747            118.721
 Electronic               0.000              0.000              0.000
 Translational            0.889              2.981             41.538
 Rotational               0.889              2.981             31.500
 Vibrational            194.585             49.785             45.683
 Vibration     1          0.594              1.983              5.637
 Vibration     2          0.594              1.982              5.417
 Vibration     3          0.601              1.957              3.700
 Vibration     4          0.606              1.943              3.309
 Vibration     5          0.623              1.888              2.513
 Vibration     6          0.636              1.845              2.166
 Vibration     7          0.646              1.814              1.977
 Vibration     8          0.660              1.771              1.766
 Vibration     9          0.665              1.756              1.703
 Vibration    10          0.667              1.749              1.673
 Vibration    11          0.680              1.711              1.536
 Vibration    12          0.694              1.670              1.407
 Vibration    13          0.716              1.607              1.240
 Vibration    14          0.719              1.596              1.214
 Vibration    15          0.730              1.566              1.146
 Vibration    16          0.742              1.534              1.080
 Vibration    17          0.764              1.476              0.972
 Vibration    18          0.791              1.406              0.861
 Vibration    19          0.800              1.383              0.827
 Vibration    20          0.832              1.305              0.723
 Vibration    21          0.876              1.204              0.608
 Vibration    22          0.884              1.185              0.588
 Vibration    23          0.965              1.018              0.439

                           ! Non-Optimized Parameters !
 Normal termination of Gaussian 16 at Mon Dec 14 16:44:17 2020.

 ----------------------------------------------------------------------
 # B3LYP/6-311++G(d,p) empiricaldispersion=gd3bj scf=xqc pop=npa geom=c
 heck
 ----------------------------------------------------------------------

 --------------------------------------
 CID_58684072_JID_3685_Energie_neutraal
 --------------------------------------
 Structure from the checkpoint file:  "JID_3685.chk"
 Charge =  0 Multiplicity = 1

 SCF Done:  E(RB3LYP) =  -578.012741215     A.U. after   14 cycles
 Normal termination of Gaussian 16 at Mon Dec 14 16:48:51 2020.

 ----------------------------------------------------------------------
 # B3LYP/6-311++G(d,p) empiricaldispersion=gd3bj scf=xqc pop=npa geom=c
 heck
 ----------------------------------------------------------------------

 ------------------------------------
 CID_58684072_JID_3685_Energie_kation
 ------------------------------------
 Structure from the checkpoint file:  "JID_3685.chk"
 Charge =  1 Multiplicity = 2

 SCF Done:  E(UB3LYP) =  -577.710373662     A.U. after   30 cycles
 Normal termination of Gaussian 16 at Mon Dec 14 17:02:36 2020.
 Gaussian 16:  ES64L-G16RevA.03 25-Dec-2016

 ----------------------------------------------------------------------
 # B3LYP/6-311++G(d,p) empiricaldispersion=gd3bj scf=xqc pop=npa geom=c
 heck
 ----------------------------------------------------------------------

 -----------------------------------
 CID_58684072_JID_3685_Energie_anion
 -----------------------------------
 Structure from the checkpoint file:  "JID_3685.chk"
 Charge = -1 Multiplicity = 2

                         Standard orientation:
 ---------------------------------------------------------------------
 Center     Atomic      Atomic             Coordinates (Angstroms)
 Number     Number       Type             X           Y           Z
 ---------------------------------------------------------------------
      1          6           0        3.409068    1.131707    0.377947
      2          6           0        2.591746   -0.137735    0.142537
      3          6           0        3.064333   -0.875379   -1.111944
      4          6           0        2.612040   -1.045294    1.374424
      5          8           0        1.247975    0.377939   -0.066024
      6          7           0        0.350238   -0.678677   -0.303122
      7          6           0       -0.863380   -0.319280   -0.498644
      8          6           0       -1.837593   -1.459146   -0.703015
      9          6           0       -2.921144   -1.436830    0.391110
     10          6           0       -3.615752   -0.071256    0.444674
     11          6           0       -2.604547    1.069586    0.606249
     12          6           0       -1.522924    1.061788   -0.496339
     13          7           0       -0.700666    2.263541   -0.379159
     14          1           0        4.460094    0.879156    0.551146
     15          1           0        3.034744    1.674227    1.252314
     16          1           0        3.350730    1.794048   -0.491973
     17          1           0        4.096793   -1.219638   -0.986964
     18          1           0        2.426797   -1.740906   -1.307395
     19          1           0        3.023600   -0.210199   -1.981205
     20          1           0        2.251664   -0.499788    2.253241
     21          1           0        1.968460   -1.914208    1.217547
     22          1           0        3.630870   -1.393615    1.576318
     23          1           0       -2.320114   -1.351059   -1.685944
     24          1           0       -1.289202   -2.405150   -0.702279
     25          1           0       -2.447795   -1.646619    1.359848
     26          1           0       -3.650979   -2.235274    0.211103
     27          1           0       -4.343820   -0.045711    1.264364
     28          1           0       -4.183998    0.081901   -0.484212
     29          1           0       -2.104788    0.986250    1.582554
     30          1           0       -3.099797    2.045790    0.581078
     31          1           0       -2.052662    1.132131   -1.459779
     32          1           0       -0.172909    2.205147    0.489847
     33          1           0        0.020427    2.236988   -1.097443
 ---------------------------------------------------------------------

 SCF Done:  E(UB3LYP) =  -577.997616628     A.U. after   31 cycles

 The electronic state is 2-A.
 Alpha  occ. eigenvalues --  -19.05077 -14.24738 -14.18974 -10.13269 -10.10910
 Alpha  occ. eigenvalues --  -10.10489 -10.07167 -10.06947 -10.06843 -10.06742
 Alpha  occ. eigenvalues --  -10.06429 -10.05736 -10.05727  -0.97568  -0.80298
 Alpha  occ. eigenvalues --   -0.76979  -0.71650  -0.68201  -0.63452  -0.60212
 Alpha  occ. eigenvalues --   -0.59257  -0.59244  -0.51337  -0.49359  -0.46698
 Alpha  occ. eigenvalues --   -0.43448  -0.40154  -0.38272  -0.37885  -0.35941
 Alpha  occ. eigenvalues --   -0.35831  -0.34480  -0.33066  -0.32128  -0.31758
 Alpha  occ. eigenvalues --   -0.30827  -0.30030  -0.29176  -0.28364  -0.27121
 Alpha  occ. eigenvalues --   -0.26888  -0.26498  -0.24965  -0.24376  -0.24202
 Alpha  occ. eigenvalues --   -0.23070  -0.22689  -0.22290  -0.18567  -0.14104
 Alpha  occ. eigenvalues --   -0.13276   0.04432
 Alpha virt. eigenvalues --    0.05994   0.07444   0.07836   0.08484   0.08712
 Alpha virt. eigenvalues --    0.08761   0.09805   0.10512   0.10677   0.10743
 Alpha virt. eigenvalues --    0.10957   0.11527   0.11810   0.12165   0.13469

  Beta  occ. eigenvalues --  -19.05066 -14.24677 -14.18963 -10.13267 -10.10902
  Beta  occ. eigenvalues --  -10.10477 -10.07154 -10.06933 -10.06821 -10.06715
  Beta  occ. eigenvalues --  -10.06401 -10.05710 -10.05703  -0.97528  -0.80266
  Beta  occ. eigenvalues --   -0.76934  -0.71613  -0.68169  -0.63411  -0.60158
  Beta  occ. eigenvalues --   -0.59211  -0.59189  -0.51290  -0.49288  -0.46639
  Beta  occ. eigenvalues --   -0.43392  -0.40113  -0.38240  -0.37843  -0.35895
  Beta  occ. eigenvalues --   -0.35801  -0.34435  -0.33024  -0.32084  -0.31707
  Beta  occ. eigenvalues --   -0.30784  -0.29986  -0.29143  -0.28317  -0.27079
  Beta  occ. eigenvalues --   -0.26844  -0.26463  -0.24928  -0.24336  -0.24161
  Beta  occ. eigenvalues --   -0.23017  -0.22634  -0.22245  -0.18511  -0.13982
  Beta  occ. eigenvalues --   -0.13238
  Beta virt. eigenvalues --    0.06491   0.07066   0.07979   0.08268   0.09035
  Beta virt. eigenvalues --    0.09174   0.09239   0.10099   0.10798   0.10905
  Beta virt. eigenvalues --    0.11191   0.11275   0.11910   0.12077   0.12478

 Mulliken charges and spin densities:
               1          2
     1  C    0.085855  -0.486694
     2  C   -1.668683   1.436631
     3  C    0.890227  -1.315377
     4  C    0.670071  -1.109747
     5  O    0.228298  -0.040228
     6  N   -0.310101   0.267429
     7  C    0.593777  -0.481106
     8  C    0.739693  -1.038208
     9  C   -0.350629   0.212949
    10  C    0.916609  -1.461866
    11  C   -0.138293   0.063899
    12  C   -0.807628  -0.041238
    13  N   -0.093207  -0.048384
    14  H   -0.107761   0.251841
    15  H   -0.117476   0.268290
    16  H   -0.084185   0.232451
    17  H   -0.193531   0.335549
    18  H   -0.049296   0.217666
    19  H   -0.025617   0.168134
    20  H    0.003968   0.135606
    21  H    0.038815   0.130091
    22  H   -0.281756   0.425163
    23  H   -0.270790   0.427738
    24  H    0.123494   0.029338
    25  H    0.157703  -0.038904
    26  H   -0.637736   0.826361
    27  H   -0.526822   0.703057
    28  H    0.057248   0.070294
    29  H   -0.041081   0.175189
    30  H    0.019524   0.166092
    31  H   -0.292032   0.502596
    32  H    0.253425  -0.002848
    33  H    0.217918   0.018234
 Sum of Mulliken charges =  -1.00000   1.00000

 Dipole moment (field-independent basis, Debye):
    X=              1.4432    Y=              1.3210    Z=              0.1144  Tot=              1.9598
 Quadrupole moment (field-independent basis, Debye-Ang):
   XX=           -173.6623   YY=           -123.0736   ZZ=           -114.4730
   XY=             -2.4176   XZ=             -2.3998   YZ=             -0.5354

 Summary of Natural Population Analysis:

                                       Natural Population
                Natural  -----------------------------------------------
    Atom  No    Charge         Core      Valence    Rydberg      Total
 -----------------------------------------------------------------------
      C    1   -0.29001      0.99960     2.28337    0.00704     3.29001
      C    2    0.13379      0.99955     1.85029    0.01637     2.86621
      C    3   -0.29955      0.99960     2.29344    0.00650     3.29955
      C    4   -0.29959      0.99960     2.29337    0.00661     3.29959
      O    5   -0.24495      0.99987     3.23168    0.01340     4.24495
      N    6   -0.08652      0.99958     2.57298    0.01396     3.58652
      C    7    0.12328      0.99958     1.86012    0.01702     2.87672
      C    8   -0.20337      0.99959     2.19404    0.00974     3.20337
      C    9   -0.18614      0.99962     2.17821    0.00831     3.18614
      C   10   -0.19079      0.99963     2.18265    0.00851     3.19079
      C   11   -0.18715      0.99961     2.17757    0.00997     3.18715
      C   12   -0.03583      0.99954     2.02427    0.01203     3.03583
      N   13   -0.41474      0.99977     2.90643    0.00855     3.91474
      H   14    0.10272      0.00000     0.39619    0.00110     0.39728
      H   15    0.10224      0.00000     0.39659    0.00117     0.39776
      H   16    0.10176      0.00000     0.39706    0.00118     0.39824
      H   17    0.10091      0.00000     0.39801    0.00109     0.39909
      H   18    0.11014      0.00000     0.38853    0.00133     0.38986
      H   19    0.10070      0.00000     0.39829    0.00101     0.39930
      H   20    0.10129      0.00000     0.39766    0.00104     0.39871
      H   21    0.10981      0.00000     0.38889    0.00130     0.39019
      H   22    0.10083      0.00000     0.39812    0.00104     0.39917
      H   23    0.09994      0.00000     0.39821    0.00184     0.40006
      H   24    0.10929      0.00000     0.38948    0.00122     0.39071
      H   25    0.09411      0.00000     0.40454    0.00135     0.40589
      H   26    0.10222      0.00000     0.39587    0.00191     0.39778
      H   27    0.10062      0.00000     0.39815    0.00123     0.39938
      H   28    0.09498      0.00000     0.40320    0.00182     0.40502
      H   29    0.09343      0.00000     0.40502    0.00155     0.40657
      H   30    0.10495      0.00000     0.39389    0.00117     0.39505
      H   31    0.09699      0.00000     0.40094    0.00207     0.40301
      H   32    0.17696      0.00000     0.32056    0.00248     0.32304
      H   33    0.17763      0.00000     0.32022    0.00215     0.32237
 =======================================================================
   * Total *    0.00000     12.99513    37.83784    0.16704    51.00000

 Normal termination of Gaussian 16 at Mon Dec 14 17:16:46 2020.
