 Gaussian 16, Revision A.03,

 -----------------------------------------------------------
 # opt freq B3LYP/6-31G(d) empiricaldispersion=gd3bj scf=xqc
 -----------------------------------------------------------

 -------------------------------
 CID_130564247_JID_4049_neutraal
 -------------------------------
 Symbolic Z-matrix:
 Charge =  0 Multiplicity = 1

 SCF Done:  E(RB3LYP) =  -1005.69783912     A.U. after   14 cycles
 SCF Done:  E(RB3LYP) =  -1005.70280391     A.U. after   12 cycles
 SCF Done:  E(RB3LYP) =  -1005.70376758     A.U. after   12 cycles
 SCF Done:  E(RB3LYP) =  -1005.70414832     A.U. after   12 cycles
 SCF Done:  E(RB3LYP) =  -1005.70430461     A.U. after   12 cycles
 SCF Done:  E(RB3LYP) =  -1005.70440887     A.U. after   11 cycles
 SCF Done:  E(RB3LYP) =  -1005.70449189     A.U. after   11 cycles
 SCF Done:  E(RB3LYP) =  -1005.70455824     A.U. after   11 cycles
 SCF Done:  E(RB3LYP) =  -1005.70456590     A.U. after   10 cycles
 SCF Done:  E(RB3LYP) =  -1005.70457110     A.U. after   10 cycles
 SCF Done:  E(RB3LYP) =  -1005.70457238     A.U. after    9 cycles
 SCF Done:  E(RB3LYP) =  -1005.70457253     A.U. after    8 cycles
 SCF Done:  E(RB3LYP) =  -1005.70457262     A.U. after    8 cycles
 SCF Done:  E(RB3LYP) =  -1005.70457263     A.U. after    7 cycles
 Optimization completed.
    -- Stationary point found.
 Normal termination of Gaussian 16 at Thu Dec 10 09:17:13 2020.

 --------------------------------------------------------------------
 #N Geom=AllCheck Guess=TCheck SCRF=Check GenChk RB3LYP/6-31G(d) Freq
 --------------------------------------------------------------------

 Structure from the checkpoint file:  "JID_4049.chk"
 -------------------------------
 CID_130564247_JID_4049_neutraal
 -------------------------------
 Charge =  0 Multiplicity = 1

 SCF Done:  E(RB3LYP) =  -1005.70457263     A.U. after    1 cycles

  Exact polarizability: 174.066   2.426 117.995  -6.818  -1.341  92.847
 Approx polarizability: 214.629   7.671 193.241 -15.817  -9.117 147.780

                      1                      2                      3
                      A                      A                      A
 Frequencies --     26.1749                42.5946                52.7268
 Red. masses --      4.1427                 5.1737                 4.8018
 Frc consts  --      0.0017                 0.0055                 0.0079
 IR Inten    --      1.0513                 0.2039                 0.2719

                      4                      5                      6
                      A                      A                      A
 Frequencies --     80.0356               112.5554               137.4412
 Red. masses --      3.7985                 8.3606                 2.5949
 Frc consts  --      0.0143                 0.0624                 0.0289
 IR Inten    --      2.8393                 0.5445                 1.3578

                      7                      8                      9
                      A                      A                      A
 Frequencies --    171.0658               214.9194               240.8738
 Red. masses --      1.1704                 3.7679                 3.5744
 Frc consts  --      0.0202                 0.1025                 0.1222
 IR Inten    --      1.5557                 2.1828                12.3820

                     10                     11                     12
                      A                      A                      A
 Frequencies --    280.2035               299.8585               343.7197
 Red. masses --      2.2604                 2.8892                 6.5563
 Frc consts  --      0.1046                 0.1531                 0.4564
 IR Inten    --      1.8288                 7.4823                 1.5468

                     13                     14                     15
                      A                      A                      A
 Frequencies --    363.0304               399.7034               461.0482
 Red. masses --      2.3023                 2.8720                 2.8358
 Frc consts  --      0.1788                 0.2703                 0.3552
 IR Inten    --      2.3503                 1.6958                 3.0708

                     16                     17                     18
                      A                      A                      A
 Frequencies --    464.8717               545.2973               582.6345
 Red. masses --      2.8712                 3.8208                 4.1570
 Frc consts  --      0.3656                 0.6694                 0.8314
 IR Inten    --      1.3245                 5.1740                 6.3204

                     19                     20                     21
                      A                      A                      A
 Frequencies --    608.6001               643.8121               704.3716
 Red. masses --      1.7133                 6.5000                 5.8136
 Frc consts  --      0.3739                 1.5874                 1.6994
 IR Inten    --     10.0545                 1.5903                 4.8941

                     22                     23                     24
                      A                      A                      A
 Frequencies --    733.1474               759.6932               789.8091
 Red. masses --      8.4360                 5.1416                 9.1778
 Frc consts  --      2.6716                 1.7483                 3.3731
 IR Inten    --     13.0423                15.8858                19.7604

                     25                     26                     27
                      A                      A                      A
 Frequencies --    803.6632               847.7188               867.0936
 Red. masses --      2.1578                 1.6024                 1.8418
 Frc consts  --      0.8211                 0.6785                 0.8159
 IR Inten    --    146.0473                 0.3635                 4.6184

                     28                     29                     30
                      A                      A                      A
 Frequencies --    867.7589               905.5777               921.5060
 Red. masses --      2.1125                 2.6570                 5.4805
 Frc consts  --      0.9372                 1.2838                 2.7420
 IR Inten    --     33.7190                 6.6464                32.0472

                     31                     32                     33
                      A                      A                      A
 Frequencies --    946.9102               999.5276              1006.9806
 Red. masses --      2.7346                 1.2019                 2.8557
 Frc consts  --      1.4447                 0.7075                 1.7061
 IR Inten    --      1.4050                 3.8850                 1.7891

                     34                     35                     36
                      A                      A                      A
 Frequencies --   1017.1806              1040.9113              1043.4723
 Red. masses --      1.5483                 1.6386                 2.9773
 Frc consts  --      0.9439                 1.0460                 1.9100
 IR Inten    --      6.0913                 8.4687                14.4373

                     37                     38                     39
                      A                      A                      A
 Frequencies --   1048.7815              1084.2217              1144.9083
 Red. masses --      3.3930                 3.1727                 4.0562
 Frc consts  --      2.1989                 2.1974                 3.1326
 IR Inten    --     19.5171                 7.7429                29.2016

                     40                     41                     42
                      A                      A                      A
 Frequencies --   1184.1512              1197.4459              1202.7842
 Red. masses --      1.4597                 2.4482                 2.0123
 Frc consts  --      1.2059                 2.0683                 1.7152
 IR Inten    --     14.8015                 8.2189                 8.4839

                     43                     44                     45
                      A                      A                      A
 Frequencies --   1227.3107              1286.0153              1297.0565
 Red. masses --      1.3780                 1.2549                 1.3789
 Frc consts  --      1.2230                 1.2228                 1.3668
 IR Inten    --      4.1575                 5.7059                23.7924

                     46                     47                     48
                      A                      A                      A
 Frequencies --   1332.2499              1347.5075              1355.0396
 Red. masses --      1.9838                 2.4193                 1.2928
 Frc consts  --      2.0745                 2.5882                 1.3985
 IR Inten    --     89.5494                67.4975                 3.6166

                     49                     50                     51
                      A                      A                      A
 Frequencies --   1369.1138              1391.3644              1394.4408
 Red. masses --      1.2622                 1.2669                 1.1583
 Frc consts  --      1.3940                 1.4450                 1.3270
 IR Inten    --      2.7220                 5.9118                 1.2413

                     52                     53                     54
                      A                      A                      A
 Frequencies --   1412.9523              1421.6266              1446.6224
 Red. masses --      1.3513                 1.3857                 3.8231
 Frc consts  --      1.5895                 1.6500                 4.7139
 IR Inten    --      2.8470                 6.6425                85.2254

                     55                     56                     57
                      A                      A                      A
 Frequencies --   1476.0019              1497.0008              1497.9765
 Red. masses --      1.1744                 1.0521                 1.0929
 Frc consts  --      1.5074                 1.3891                 1.4449
 IR Inten    --     17.1390                 5.9300                 4.9644

                     58                     59                     60
                      A                      A                      A
 Frequencies --   1504.9077              1510.1414              1513.9413
 Red. masses --      1.1104                 1.1124                 1.1248
 Frc consts  --      1.4817                 1.4946                 1.5190
 IR Inten    --     10.6219                 9.8953                 3.1726

                     61                     62                     63
                      A                      A                      A
 Frequencies --   1515.7001              1515.9056              1616.9174
 Red. masses --      1.1368                 1.0581                 7.0492
 Frc consts  --      1.5388                 1.4326                10.8585
 IR Inten    --      3.2961                15.2842               263.1883

                     64                     65                     66
                      A                      A                      A
 Frequencies --   1646.7494              3036.0072              3041.4250
 Red. masses --      9.8266                 1.0703                 1.0705
 Frc consts  --     15.7003                 5.8125                 5.8346
 IR Inten    --    364.1130                21.2442                44.0112

                     67                     68                     69
                      A                      A                      A
 Frequencies --   3046.7845              3055.0150              3066.9933
 Red. masses --      1.0624                 1.0604                 1.0314
 Frc consts  --      5.8106                 5.8308                 5.7162
 IR Inten    --     47.0170                37.1424                21.0964

                     70                     71                     72
                      A                      A                      A
 Frequencies --   3091.0381              3096.0130              3102.2794
 Red. masses --      1.0625                 1.1041                 1.1056
 Frc consts  --      5.9813                 6.2355                 6.2691
 IR Inten    --      7.4152                51.7423                48.4093

                     73                     74                     75
                      A                      A                      A
 Frequencies --   3141.4925              3151.0544              3154.4268
 Red. masses --      1.0960                 1.1046                 1.0943
 Frc consts  --      6.3730                 6.4623                 6.4153
 IR Inten    --      7.1221                 8.8091                 5.9150

                     76                     77                     78
                      A                      A                      A
 Frequencies --   3164.5465              3170.5760              3461.4251
 Red. masses --      1.1032                 1.1062                 1.0736
 Frc consts  --      6.5093                 6.5516                 7.5787
 IR Inten    --      0.1854                 3.2348                 3.6541

 - Thermochemistry -
 -------------------
 Temperature   298.150 Kelvin.  Pressure   1.00000 Atm.
 Atom     1 has atomic number  6 and mass  12.00000

 Molecular mass:   214.08883 amu.
 Principal axes and moments of inertia in atomic units:
                           1         2         3
     Eigenvalues --   994.877686645.334477091.45525
           X            0.99995   0.00895  -0.00475
           Y           -0.00881   0.99957   0.02789
           Z            0.00499  -0.02785   0.99960
 This molecule is an asymmetric top.
 Rotational symmetry number  1.
 Warning -- assumption of classical behavior for rotation
           may cause significant error
 Rotational temperatures (Kelvin)      0.08706     0.01303     0.01221
 Rotational constants (GHZ):           1.81403     0.27158     0.25450
 Zero-point vibrational energy     613351.7 (Joules/Mol)
                                  146.59458 (Kcal/Mol)
 Warning -- explicit consideration of  19 degrees of freedom as
           vibrations may cause significant error
 Vibrational temperatures:     37.66    61.28    75.86   115.15   161.94
          (Kelvin)            197.75   246.13   309.22   346.56   403.15
                              431.43   494.54   522.32   575.08   663.35
                              668.85   784.56   838.28   875.64   926.30
                             1013.43  1054.84  1093.03  1136.36  1156.29
                             1219.68  1247.55  1248.51  1302.92  1325.84
                             1362.39  1438.10  1448.82  1463.50  1497.64
                             1501.32  1508.96  1559.95  1647.27  1703.73
                             1722.86  1730.54  1765.83  1850.29  1866.17
                             1916.81  1938.76  1949.60  1969.85  2001.86
                             2006.29  2032.92  2045.40  2081.37  2123.64
                             2153.85  2155.25  2165.23  2172.76  2178.22
                             2180.75  2181.05  2326.38  2369.31  4368.14
                             4375.93  4383.64  4395.49  4412.72  4447.31
                             4454.47  4463.49  4519.91  4533.66  4538.52
                             4553.08  4561.75  4980.22

 Zero-point correction=                           0.233613 (Hartree/Particle)
 Thermal correction to Energy=                    0.247107
 Thermal correction to Enthalpy=                  0.248051
 Thermal correction to Gibbs Free Energy=         0.191446
 Sum of electronic and zero-point Energies=          -1005.470959
 Sum of electronic and thermal Energies=             -1005.457465
 Sum of electronic and thermal Enthalpies=           -1005.456521
 Sum of electronic and thermal Free Energies=        -1005.513127

                     E (Thermal)             CV                S
                      KCal/Mol        Cal/Mol-Kelvin    Cal/Mol-Kelvin
 Total                  155.062             50.162            119.137
 Electronic               0.000              0.000              0.000
 Translational            0.889              2.981             41.987
 Rotational               0.889              2.981             32.217
 Vibrational            153.285             44.200             44.933
 Vibration     1          0.593              1.985              6.100
 Vibration     2          0.595              1.980              5.135
 Vibration     3          0.596              1.977              4.712
 Vibration     4          0.600              1.963              3.890
 Vibration     5          0.607              1.939              3.224
 Vibration     6          0.614              1.916              2.839
 Vibration     7          0.626              1.878              2.424
 Vibration     8          0.645              1.818              2.001
 Vibration     9          0.658              1.778              1.796
 Vibration    10          0.680              1.710              1.532
 Vibration    11          0.692              1.674              1.418
 Vibration    12          0.722              1.588              1.195
 Vibration    13          0.737              1.548              1.109
 Vibration    14          0.766              1.471              0.964
 Vibration    15          0.819              1.336              0.763
 Vibration    16          0.822              1.328              0.752
 Vibration    17          0.900              1.150              0.554
 Vibration    18          0.939              1.069              0.481
 Vibration    19          0.967              1.014              0.435

 Optimization completed.
    -- Stationary point found.
 Normal termination of Gaussian 16 at Thu Dec 10 09:24:25 2020.

 ----------------------------------------------------------------------
 # B3LYP/6-311++G(d,p) empiricaldispersion=gd3bj scf=xqc pop=npa geom=c
 heck
 ----------------------------------------------------------------------

 ---------------------------------------
 CID_130564247_JID_4049_Energie_neutraal
 ---------------------------------------
 Structure from the checkpoint file:  "JID_4049.chk"
 Charge =  0 Multiplicity = 1

 SCF Done:  E(RB3LYP) =  -1005.89837912     A.U. after   15 cycles
 Normal termination of Gaussian 16 at Thu Dec 10 09:27:24 2020.

 ----------------------------------------------------------------------
 # B3LYP/6-311++G(d,p) empiricaldispersion=gd3bj scf=xqc pop=npa geom=c
 heck
 ----------------------------------------------------------------------

 -------------------------------------
 CID_130564247_JID_4049_Energie_kation
 -------------------------------------
 Structure from the checkpoint file:  "JID_4049.chk"
 Charge =  1 Multiplicity = 2

 SCF Done:  E(UB3LYP) =  -1005.62046818     A.U. after   27 cycles
 Normal termination of Gaussian 16 at Thu Dec 10 09:35:09 2020.
 Gaussian 16:  ES64L-G16RevA.03 25-Dec-2016

 ----------------------------------------------------------------------
 # B3LYP/6-311++G(d,p) empiricaldispersion=gd3bj scf=xqc pop=npa geom=c
 heck
 ----------------------------------------------------------------------

 ------------------------------------
 CID_130564247_JID_4049_Energie_anion
 ------------------------------------
 Structure from the checkpoint file:  "JID_4049.chk"
 Charge = -1 Multiplicity = 2

                         Standard orientation:
 ---------------------------------------------------------------------
 Center     Atomic      Atomic             Coordinates (Angstroms)
 Number     Number       Type             X           Y           Z
 ---------------------------------------------------------------------
      1          6           0        4.347554    1.100799    0.215386
      2         16           0        3.986665   -0.678809    0.417050
      3          6           0        2.683968   -0.884666   -0.868739
      4          6           0        1.388622   -0.262233   -0.488072
      5          7           0        0.349092   -0.838000    0.039595
      6          6           0       -0.518901    0.226516    0.225127
      7          7           0       -0.056284    1.397323   -0.190097
      8          8           0        1.246882    1.059765   -0.660070
      9          7           0       -1.732843    0.069581    0.830859
     10          6           0       -2.679495    1.187563    0.768820
     11          6           0       -3.577799    1.051652   -0.470341
     12          7           0       -4.244569   -0.252347   -0.560026
     13          6           0       -3.290217   -1.359183   -0.436288
     14          6           0       -2.376579   -1.247141    0.794736
     15          1           0        5.119338    1.345013    0.949693
     16          1           0        3.460534    1.707475    0.407660
     17          1           0        4.730697    1.311010   -0.787582
     18          1           0        3.043902   -0.474569   -1.816890
     19          1           0        2.535179   -1.960185   -0.977885
     20          1           0       -3.289970    1.154241    1.681434
     21          1           0       -2.118711    2.124501    0.765111
     22          1           0       -2.959974    1.178797   -1.368127
     23          1           0       -4.339745    1.839218   -0.480331
     24          1           0       -4.931088   -0.323973    0.191645
     25          1           0       -2.664937   -1.366243   -1.339001
     26          1           0       -3.846220   -2.303591   -0.414790
     27          1           0       -1.601869   -2.015212    0.796945
     28          1           0       -2.969520   -1.349400    1.713792
 ---------------------------------------------------------------------

 SCF Done:  E(UB3LYP) =  -1005.88784507     A.U. after   32 cycles

 The electronic state is 2-A.
 Alpha  occ. eigenvalues --  -88.74078 -19.08599 -14.23210 -14.22687 -14.19906
 Alpha  occ. eigenvalues --  -14.19742 -10.15156 -10.14954 -10.11334 -10.09893
 Alpha  occ. eigenvalues --  -10.09854 -10.09526 -10.09319 -10.09246  -7.82669
 Alpha  occ. eigenvalues --   -5.79081  -5.78725  -5.78006  -1.03468  -0.87436
 Alpha  occ. eigenvalues --   -0.81617  -0.79233  -0.74690  -0.69778  -0.66811
 Alpha  occ. eigenvalues --   -0.62559  -0.59868  -0.55224  -0.52464  -0.52194
 Alpha  occ. eigenvalues --   -0.48481  -0.46549  -0.42681  -0.38273  -0.37551
 Alpha  occ. eigenvalues --   -0.36732  -0.36068  -0.35365  -0.34675  -0.34174
 Alpha  occ. eigenvalues --   -0.32922  -0.32521  -0.31428  -0.30597  -0.29483
 Alpha  occ. eigenvalues --   -0.27468  -0.26022  -0.25408  -0.25076  -0.24062
 Alpha  occ. eigenvalues --   -0.22761  -0.22072  -0.18539  -0.18027  -0.14651
 Alpha  occ. eigenvalues --   -0.12854  -0.10257   0.04545
 Alpha virt. eigenvalues --    0.05850   0.07371   0.07877   0.08199   0.08840
 Alpha virt. eigenvalues --    0.09403   0.09942   0.10996   0.11275   0.11790
 Alpha virt. eigenvalues --    0.12095   0.12487   0.13248   0.13756   0.14096

  Beta  occ. eigenvalues --  -88.74036 -19.08425 -14.23228 -14.22565 -14.19878
  Beta  occ. eigenvalues --  -14.19705 -10.14942 -10.14936 -10.11320 -10.09881
  Beta  occ. eigenvalues --  -10.09841 -10.09519 -10.09306 -10.09209  -7.82626
  Beta  occ. eigenvalues --   -5.78977  -5.78693  -5.77979  -1.03195  -0.87395
  Beta  occ. eigenvalues --   -0.81501  -0.79119  -0.74468  -0.69630  -0.66776
  Beta  occ. eigenvalues --   -0.62407  -0.59806  -0.55167  -0.52311  -0.52040
  Beta  occ. eigenvalues --   -0.48337  -0.46434  -0.42587  -0.37778  -0.37426
  Beta  occ. eigenvalues --   -0.36666  -0.35996  -0.35245  -0.34620  -0.34085
  Beta  occ. eigenvalues --   -0.32765  -0.32434  -0.31345  -0.30442  -0.29441
  Beta  occ. eigenvalues --   -0.27274  -0.25988  -0.25370  -0.25033  -0.23669
  Beta  occ. eigenvalues --   -0.22482  -0.21885  -0.18052  -0.17908  -0.14378
  Beta  occ. eigenvalues --   -0.12727  -0.10025
  Beta virt. eigenvalues --    0.06932   0.07189   0.08095   0.08506   0.08828
  Beta virt. eigenvalues --    0.09229   0.09736   0.10285   0.11214   0.11423
  Beta virt. eigenvalues --    0.12028   0.12165   0.12599   0.13304   0.14072

 Mulliken charges and spin densities:
               1          2
     1  C   -0.044121  -0.723352
     2  S    0.143415   0.243367
     3  C   -0.209890  -0.120708
     4  C   -0.677930   0.245125
     5  N   -0.083784   0.012963
     6  C    0.038205   0.072497
     7  N   -0.482103   0.052643
     8  O    0.231619   0.035794
     9  N    0.154024   0.034332
    10  C   -0.233704  -0.027329
    11  C    0.499102  -0.863575
    12  N   -0.232397   0.103245
    13  C    0.121169  -0.480258
    14  C   -0.038631  -0.279339
    15  H   -0.247498   0.399434
    16  H    0.183508   0.013688
    17  H   -0.153192   0.323460
    18  H    0.102577   0.079520
    19  H    0.210752  -0.006941
    20  H   -0.314516   0.486637
    21  H    0.229398  -0.049260
    22  H    0.139300   0.024901
    23  H   -0.219031   0.390921
    24  H   -0.171538   0.409212
    25  H    0.182813  -0.020068
    26  H   -0.128051   0.290836
    27  H    0.208040  -0.021398
    28  H   -0.207536   0.373651
 Sum of Mulliken charges =  -1.00000   1.00000

 Dipole moment (field-independent basis, Debye):
    X=              2.6959    Y=             -0.9794    Z=             -2.1323  Tot=              3.5740
 Quadrupole moment (field-independent basis, Debye-Ang):
   XX=           -202.0763   YY=           -115.4709   ZZ=           -114.4802
   XY=             -2.3264   XZ=              1.9944   YZ=              3.8823

 Summary of Natural Population Analysis:

                                       Natural Population
                Natural  -----------------------------------------------
    Atom  No    Charge         Core      Valence    Rydberg      Total
 -----------------------------------------------------------------------
      C    1   -0.35419      0.99962     2.34739    0.00718     3.35419
      S    2    0.10520      4.99967     2.87453    0.02061     7.89480
      C    3   -0.27524      0.99953     2.26430    0.01141     3.27524
      C    4    0.31180      0.99962     1.66846    0.02013     2.68820
      N    5   -0.28312      0.99966     2.77602    0.00744     3.78312
      C    6    0.26533      0.99961     1.71622    0.01884     2.73467
      N    7   -0.12541      0.99967     2.61472    0.01102     3.62541
      O    8   -0.16748      0.99985     3.15937    0.00826     4.16748
      N    9   -0.25717      0.99964     2.74615    0.01137     3.75717
      C   10   -0.09509      0.99962     2.08413    0.01134     3.09509
      C   11   -0.09809      0.99962     2.08666    0.01180     3.09809
      N   12   -0.33798      0.99976     2.82397    0.01425     3.83798
      C   13   -0.09743      0.99962     2.08635    0.01146     3.09743
      C   14   -0.09428      0.99961     2.08317    0.01149     3.09428
      H   15    0.10605      0.00000     0.39282    0.00113     0.39395
      H   16    0.10907      0.00000     0.38915    0.00178     0.39093
      H   17    0.09954      0.00000     0.39855    0.00191     0.40046
      H   18    0.11071      0.00000     0.38794    0.00135     0.38929
      H   19    0.11795      0.00000     0.38130    0.00076     0.38205
      H   20    0.09379      0.00000     0.40456    0.00166     0.40621
      H   21    0.11093      0.00000     0.38779    0.00129     0.38907
      H   22    0.09363      0.00000     0.40525    0.00112     0.40637
      H   23    0.09673      0.00000     0.40219    0.00108     0.40327
      H   24    0.17299      0.00000     0.32012    0.00689     0.32701
      H   25    0.09085      0.00000     0.40797    0.00118     0.40915
      H   26    0.09566      0.00000     0.40337    0.00097     0.40434
      H   27    0.11260      0.00000     0.38600    0.00140     0.38740
      H   28    0.09266      0.00000     0.40578    0.00156     0.40734
 =======================================================================
   * Total *    0.00000     17.99511    38.80422    0.20067    57.00000

 Normal termination of Gaussian 16 at Thu Dec 10 09:44:23 2020.
