 Gaussian 16, Revision A.03,

 -----------------------------------------------------------
 # opt freq B3LYP/6-31G(d) empiricaldispersion=gd3bj scf=xqc
 -----------------------------------------------------------

 ------------------------------
 CID_61711292_JID_7055_neutraal
 ------------------------------
 Symbolic Z-matrix:
 Charge =  0 Multiplicity = 1

 SCF Done:  E(RB3LYP) =  -708.056474747     A.U. after   14 cycles
 SCF Done:  E(RB3LYP) =  -708.062483696     A.U. after   12 cycles
 SCF Done:  E(RB3LYP) =  -708.063829293     A.U. after   11 cycles
 SCF Done:  E(RB3LYP) =  -708.064687609     A.U. after   12 cycles
 SCF Done:  E(RB3LYP) =  -708.064918606     A.U. after   12 cycles
 SCF Done:  E(RB3LYP) =  -708.065154381     A.U. after   12 cycles
 SCF Done:  E(RB3LYP) =  -708.065233348     A.U. after   12 cycles
 SCF Done:  E(RB3LYP) =  -708.065352615     A.U. after   11 cycles
 SCF Done:  E(RB3LYP) =  -708.065422085     A.U. after   12 cycles
 SCF Done:  E(RB3LYP) =  -708.065447553     A.U. after   11 cycles
 SCF Done:  E(RB3LYP) =  -708.065495263     A.U. after    9 cycles
 SCF Done:  E(RB3LYP) =  -708.065496086     A.U. after    9 cycles
 SCF Done:  E(RB3LYP) =  -708.065496240     A.U. after    8 cycles
 SCF Done:  E(RB3LYP) =  -708.065496280     A.U. after    7 cycles
 SCF Done:  E(RB3LYP) =  -708.065496284     A.U. after    6 cycles
 Optimization completed.
    -- Stationary point found.
 Normal termination of Gaussian 16 at Sun Dec 13 16:14:27 2020.

 --------------------------------------------------------------------
 #N Geom=AllCheck Guess=TCheck SCRF=Check GenChk RB3LYP/6-31G(d) Freq
 --------------------------------------------------------------------

 Structure from the checkpoint file:  "JID_7055.chk"
 ------------------------------
 CID_61711292_JID_7055_neutraal
 ------------------------------
 Charge =  0 Multiplicity = 1

 SCF Done:  E(RB3LYP) =  -708.065496284     A.U. after    1 cycles

  Exact polarizability: 254.479   1.618 141.889 -12.848   3.233 112.073
 Approx polarizability: 333.629   6.308 229.658 -23.650   7.245 187.343

                      1                      2                      3
                      A                      A                      A
 Frequencies --     19.9436                26.9955                36.6545
 Red. masses --      1.1240                 3.0304                 4.2514
 Frc consts  --      0.0003                 0.0013                 0.0034
 IR Inten    --      0.1179                 0.2153                 2.9994

                      4                      5                      6
                      A                      A                      A
 Frequencies --     36.9859                81.4512               132.4045
 Red. masses --      4.3225                 3.5153                 4.2433
 Frc consts  --      0.0035                 0.0137                 0.0438
 IR Inten    --      0.5792                 1.8228                 1.7729

                      7                      8                      9
                      A                      A                      A
 Frequencies --    162.4364               206.0420               224.5246
 Red. masses --      4.3250                 4.3755                 4.5430
 Frc consts  --      0.0672                 0.1094                 0.1349
 IR Inten    --      2.8353                 0.7606                 1.0463

                     10                     11                     12
                      A                      A                      A
 Frequencies --    230.0997               280.5255               306.4368
 Red. masses --      3.7299                 3.1159                 1.1319
 Frc consts  --      0.1164                 0.1445                 0.0626
 IR Inten    --      1.0757                 2.2952                 0.6269

                     13                     14                     15
                      A                      A                      A
 Frequencies --    325.2409               345.3332               355.2300
 Red. masses --      3.0085                 1.6349                 1.3931
 Frc consts  --      0.1875                 0.1149                 0.1036
 IR Inten    --      0.9010                 3.0675                18.4841

                     16                     17                     18
                      A                      A                      A
 Frequencies --    395.7529               417.7278               435.4345
 Red. masses --      3.1342                 2.9604                 1.9342
 Frc consts  --      0.2892                 0.3044                 0.2161
 IR Inten    --      3.9842                 5.0332                39.2227

                     19                     20                     21
                      A                      A                      A
 Frequencies --    459.4937               472.9862               497.6594
 Red. masses --      2.5874                 2.0777                 3.1118
 Frc consts  --      0.3219                 0.2739                 0.4541
 IR Inten    --     41.8012                72.1115                61.1842

                     22                     23                     24
                      A                      A                      A
 Frequencies --    531.3360               532.4123               561.8333
 Red. masses --      4.0850                 5.2503                 1.5624
 Frc consts  --      0.6795                 0.8769                 0.2906
 IR Inten    --     22.3246                27.4468               234.5467

                     25                     26                     27
                      A                      A                      A
 Frequencies --    563.5298               659.2170               662.7138
 Red. masses --      2.0617                 6.8161                 5.4292
 Frc consts  --      0.3858                 1.7452                 1.4049
 IR Inten    --    121.6317                 0.1288                 2.6473

                     28                     29                     30
                      A                      A                      A
 Frequencies --    668.9337               725.5471               746.0712
 Red. masses --      4.2202                 3.4364                 2.5558
 Frc consts  --      1.1126                 1.0658                 0.8382
 IR Inten    --     14.0764                 1.5287                 0.4518

                     31                     32                     33
                      A                      A                      A
 Frequencies --    758.7225               787.5319               816.4773
 Red. masses --      3.1319                 1.3582                 2.1023
 Frc consts  --      1.0622                 0.4963                 0.8257
 IR Inten    --      1.6907                17.6983                56.4993

                     34                     35                     36
                      A                      A                      A
 Frequencies --    821.6756               832.3790               856.9857
 Red. masses --      2.0284                 3.9050                 1.4569
 Frc consts  --      0.8069                 1.5941                 0.6304
 IR Inten    --     13.8868                 3.2697                 1.5444

                     37                     38                     39
                      A                      A                      A
 Frequencies --    861.2702               916.4528               959.0823
 Red. masses --      1.8619                 2.3855                 1.3093
 Frc consts  --      0.8137                 1.1805                 0.7096
 IR Inten    --      5.6460                 1.9453                 0.1045

                     40                     41                     42
                      A                      A                      A
 Frequencies --    967.4373               972.0315               994.0528
 Red. masses --      1.3396                 1.2947                 4.2016
 Frc consts  --      0.7387                 0.7207                 2.4462
 IR Inten    --      0.2664                 0.5732                 5.9845

                     43                     44                     45
                      A                      A                      A
 Frequencies --   1013.4373              1020.3400              1040.9783
 Red. masses --      2.4349                 1.7174                 2.7564
 Frc consts  --      1.4734                 1.0535                 1.7598
 IR Inten    --      1.8935                 8.6412                13.9776

                     46                     47                     48
                      A                      A                      A
 Frequencies --   1068.4613              1076.2222              1102.1101
 Red. masses --      1.6728                 1.5170                 2.4139
 Frc consts  --      1.1251                 1.0352                 1.7275
 IR Inten    --      2.9552                 4.7281                 9.7079

                     49                     50                     51
                      A                      A                      A
 Frequencies --   1114.1174              1150.6728              1153.4239
 Red. masses --      1.5705                 1.3411                 1.5480
 Frc consts  --      1.1486                 1.0462                 1.2134
 IR Inten    --     18.6113                11.5483                 8.6730

                     52                     53                     54
                      A                      A                      A
 Frequencies --   1168.0554              1221.6666              1232.5102
 Red. masses --      1.7712                 1.2601                 1.7992
 Frc consts  --      1.4238                 1.1081                 1.6103
 IR Inten    --     19.5959                15.6557                17.9958

                     55                     56                     57
                      A                      A                      A
 Frequencies --   1242.4426              1248.3473              1312.7757
 Red. masses --      1.9241                 2.3226                 2.0867
 Frc consts  --      1.7500                 2.1326                 2.1188
 IR Inten    --    159.2604                11.6801                20.7248

                     58                     59                     60
                      A                      A                      A
 Frequencies --   1345.6603              1349.8189              1357.9309
 Red. masses --      1.9131                 2.7112                 2.4681
 Frc consts  --      2.0411                 2.9105                 2.6815
 IR Inten    --     10.9391                38.4921                 5.8572

                     61                     62                     63
                      A                      A                      A
 Frequencies --   1363.2295              1390.9157              1401.1149
 Red. masses --      1.7102                 1.4404                 3.1725
 Frc consts  --      1.8726                 1.6419                 3.6695
 IR Inten    --     23.0741                 3.5706                12.5948

                     64                     65                     66
                      A                      A                      A
 Frequencies --   1426.7142              1442.7336              1458.3322
 Red. masses --      1.2888                 1.2510                 1.9031
 Frc consts  --      1.5457                 1.5342                 2.3847
 IR Inten    --      9.3329                 0.5820                 5.2088

                     67                     68                     69
                      A                      A                      A
 Frequencies --   1460.5735              1515.4618              1522.5089
 Red. masses --      2.1478                 1.0444                 1.1225
 Frc consts  --      2.6996                 1.4133                 1.5330
 IR Inten    --      4.4294                 5.1467                33.8406

                     70                     71                     72
                      A                      A                      A
 Frequencies --   1525.2620              1535.0841              1541.4524
 Red. masses --      1.1080                 1.1759                 2.2103
 Frc consts  --      1.5187                 1.6327                 3.0943
 IR Inten    --      9.4325                81.5551               227.8804

                     73                     74                     75
                      A                      A                      A
 Frequencies --   1562.8464              1567.7837              1627.9468
 Red. masses --      2.2321                 2.5032                 5.3770
 Frc consts  --      3.2121                 3.6251                 8.3960
 IR Inten    --     77.0697                46.7444                67.8228

                     76                     77                     78
                      A                      A                      A
 Frequencies --   1635.5296              1669.9576              1680.3064
 Red. masses --      5.6111                 3.6860                 5.8056
 Frc consts  --      8.8433                 6.0565                 9.6577
 IR Inten    --      3.7157               476.7989                 0.4554

                     79                     80                     81
                      A                      A                      A
 Frequencies --   1695.1826              3042.4230              3050.2305
 Red. masses --      1.3073                 1.0374                 1.0385
 Frc consts  --      2.2134                 5.6576                 5.6930
 IR Inten    --    240.3129                40.6596                22.4079

                     82                     83                     84
                      A                      A                      A
 Frequencies --   3081.4877              3093.5474              3117.2065
 Red. masses --      1.0829                 1.1009                 1.1015
 Frc consts  --      6.0582                 6.2072                 6.3059
 IR Inten    --      5.4914                21.5968                34.6504

                     85                     86                     87
                      A                      A                      A
 Frequencies --   3124.5818              3149.3538              3161.7466
 Red. masses --      1.1008                 1.1001                 1.0886
 Frc consts  --      6.3321                 6.4289                 6.4114
 IR Inten    --     18.2422                19.0154                39.9938

                     88                     89                     90
                      A                      A                      A
 Frequencies --   3172.6739              3172.9663              3177.9608
 Red. masses --      1.0882                 1.0903                 1.0888
 Frc consts  --      6.4534                 6.4672                 6.4785
 IR Inten    --     18.4575                13.4874                24.0973

                     91                     92                     93
                      A                      A                      A
 Frequencies --   3201.2183              3201.2519              3214.7317
 Red. masses --      1.0928                 1.0935                 1.0913
 Frc consts  --      6.5981                 6.6027                 6.6450
 IR Inten    --      9.2675                27.8749                13.5877

                     94                     95                     96
                      A                      A                      A
 Frequencies --   3562.5386              3600.7272              3663.9054
 Red. masses --      1.0475                 1.0761                 1.0991
 Frc consts  --      7.8325                 8.2202                 8.6932
 IR Inten    --     18.9411                18.1912                10.6040

 - Thermochemistry -
 -------------------
 Temperature   298.150 Kelvin.  Pressure   1.00000 Atm.
 Atom     1 has atomic number  6 and mass  12.00000

 Molecular mass:   227.14225 amu.
 Principal axes and moments of inertia in atomic units:
                           1         2         3
     Eigenvalues --  1394.199829704.70385**********
           X            1.00000  -0.00167  -0.00039
           Y            0.00166   0.99982  -0.01899
           Z            0.00042   0.01899   0.99982
 This molecule is an asymmetric top.
 Rotational symmetry number  1.
 Warning -- assumption of classical behavior for rotation
           may cause significant error
 Rotational temperatures (Kelvin)      0.06212     0.00892     0.00839
 Rotational constants (GHZ):           1.29446     0.18597     0.17484
 Zero-point vibrational energy     757687.8 (Joules/Mol)
                                  181.09173 (Kcal/Mol)
 Warning -- explicit consideration of  25 degrees of freedom as
           vibrations may cause significant error
 Vibrational temperatures:     28.69    38.84    52.74    53.21   117.19
          (Kelvin)            190.50   233.71   296.45   323.04   331.06
                              403.61   440.89   467.95   496.86   511.10
                              569.40   601.02   626.49   661.11   680.52
                              716.02   764.47   766.02   808.35   810.79
                              948.47   953.50   962.45  1043.90  1073.43
                             1091.63  1133.08  1174.73  1182.21  1197.61
                             1233.01  1239.18  1318.57  1379.91  1391.93
                             1398.54  1430.22  1458.11  1468.04  1497.74
                             1537.28  1548.44  1585.69  1602.97  1655.56
                             1659.52  1680.57  1757.71  1773.31  1787.60
                             1796.09  1888.79  1936.10  1942.09  1953.76
                             1961.38  2001.22  2015.89  2052.72  2075.77
                             2098.21  2101.44  2180.41  2190.55  2194.51
                             2208.64  2217.81  2248.59  2255.69  2342.25
                             2353.16  2402.70  2417.59  2438.99  4377.37
                             4388.60  4433.57  4450.92  4484.96  4495.58
                             4531.22  4549.05  4564.77  4565.19  4572.38
                             4605.84  4605.89  4625.28  5125.70  5180.64
                             5271.54

 Zero-point correction=                           0.288588 (Hartree/Particle)
 Thermal correction to Energy=                    0.304693
 Thermal correction to Enthalpy=                  0.305637
 Thermal correction to Gibbs Free Energy=         0.242742
 Sum of electronic and zero-point Energies=           -707.776908
 Sum of electronic and thermal Energies=              -707.760803
 Sum of electronic and thermal Enthalpies=            -707.759859
 Sum of electronic and thermal Free Energies=         -707.822754

                     E (Thermal)             CV                S
                      KCal/Mol        Cal/Mol-Kelvin    Cal/Mol-Kelvin
 Total                  191.198             62.242            132.374
 Electronic               0.000              0.000              0.000
 Translational            0.889              2.981             42.163
 Rotational               0.889              2.981             33.301
 Vibrational            189.420             56.280             56.909
 Vibration     1          0.593              1.986              6.640
 Vibration     2          0.593              1.984              6.039
 Vibration     3          0.594              1.982              5.432
 Vibration     4          0.594              1.982              5.414
 Vibration     5          0.600              1.962              3.856
 Vibration     6          0.613              1.921              2.911
 Vibration     7          0.623              1.889              2.521
 Vibration     8          0.641              1.831              2.078
 Vibration     9          0.649              1.804              1.922
 Vibration    10          0.652              1.795              1.878
 Vibration    11          0.680              1.710              1.530
 Vibration    12          0.697              1.661              1.381
 Vibration    13          0.709              1.625              1.284
 Vibration    14          0.724              1.585              1.187
 Vibration    15          0.731              1.565              1.143
 Vibration    16          0.762              1.479              0.978
 Vibration    17          0.781              1.432              0.900
 Vibration    18          0.796              1.393              0.841
 Vibration    19          0.817              1.340              0.768
 Vibration    20          0.830              1.310              0.729
 Vibration    21          0.853              1.255              0.664
 Vibration    22          0.886              1.181              0.584
 Vibration    23          0.887              1.178              0.582
 Vibration    24          0.918              1.114              0.520
 Vibration    25          0.919              1.110              0.517

                           ! Non-Optimized Parameters !
 Normal termination of Gaussian 16 at Sun Dec 13 16:25:20 2020.

 ----------------------------------------------------------------------
 # B3LYP/6-311++G(d,p) empiricaldispersion=gd3bj scf=xqc pop=npa geom=c
 heck
 ----------------------------------------------------------------------

 --------------------------------------
 CID_61711292_JID_7055_Energie_neutraal
 --------------------------------------
 Structure from the checkpoint file:  "JID_7055.chk"
 Charge =  0 Multiplicity = 1

 SCF Done:  E(RB3LYP) =  -708.260238602     A.U. after   14 cycles
 Normal termination of Gaussian 16 at Sun Dec 13 16:30:38 2020.

 ----------------------------------------------------------------------
 # B3LYP/6-311++G(d,p) empiricaldispersion=gd3bj scf=xqc pop=npa geom=c
 heck
 ----------------------------------------------------------------------

 ------------------------------------
 CID_61711292_JID_7055_Energie_kation
 ------------------------------------
 Structure from the checkpoint file:  "JID_7055.chk"
 Charge =  1 Multiplicity = 2

 SCF Done:  E(UB3LYP) =  -707.993911950     A.U. after   23 cycles
 Normal termination of Gaussian 16 at Sun Dec 13 16:42:56 2020.
 Gaussian 16:  ES64L-G16RevA.03 25-Dec-2016

 ----------------------------------------------------------------------
 # B3LYP/6-311++G(d,p) empiricaldispersion=gd3bj scf=xqc pop=npa geom=c
 heck
 ----------------------------------------------------------------------

 -----------------------------------
 CID_61711292_JID_7055_Energie_anion
 -----------------------------------
 Structure from the checkpoint file:  "JID_7055.chk"
 Charge = -1 Multiplicity = 2

                         Standard orientation:
 ---------------------------------------------------------------------
 Center     Atomic      Atomic             Coordinates (Angstroms)
 Number     Number       Type             X           Y           Z
 ---------------------------------------------------------------------
      1          6           0        5.772352   -1.251753    0.110179
      2          6           0        4.388949   -0.648855    0.089965
      3          6           0        4.114786    0.522658   -0.616937
      4          6           0        2.832009    1.078260   -0.630942
      5          6           0        1.783382    0.476104    0.065710
      6          6           0        2.056925   -0.703862    0.775427
      7          6           0        3.332661   -1.253935    0.788338
      8          6           0        0.369607    1.040299    0.093328
      9          6           0        0.165788    2.321016   -0.722953
     10          7           0       -0.554710   -0.020609   -0.314992
     11          6           0       -1.902089    0.024853   -0.023510
     12          7           0       -2.298392    0.916163    0.902092
     13          6           0       -3.601072    0.919508    1.216854
     14          6           0       -4.556814    0.087368    0.659342
     15          6           0       -4.137484   -0.841521   -0.316716
     16          6           0       -2.785842   -0.868983   -0.657445
     17          7           0       -5.057136   -1.664240   -0.951725
     18          1           0        5.767847   -2.277362   -0.279139
     19          1           0        6.471210   -0.667194   -0.496121
     20          1           0        6.172942   -1.298124    1.130480
     21          1           0        4.913654    1.012273   -1.169028
     22          1           0        2.661238    1.990419   -1.192726
     23          1           0        1.248629   -1.190664    1.313844
     24          1           0        3.517663   -2.167584    1.349374
     25          1           0        0.105436    1.267311    1.131228
     26          1           0        0.376449    2.154441   -1.785993
     27          1           0       -0.872857    2.643335   -0.618254
     28          1           0        0.812930    3.129104   -0.364624
     29          1           0       -0.300920   -0.508023   -1.164005
     30          1           0       -3.896628    1.647344    1.971403
     31          1           0       -5.599408    0.155430    0.954644
     32          1           0       -2.416891   -1.572004   -1.400644
     33          1           0       -4.678937   -2.502020   -1.374508
     34          1           0       -5.909651   -1.842830   -0.437391
 ---------------------------------------------------------------------

 SCF Done:  E(UB3LYP) =  -708.249816787     A.U. after   33 cycles
 SCF Done:  E(UB3LYP) =  -708.249816787     a.u. after    1 cycles

 The electronic state is 2-A.
 Alpha  occ. eigenvalues --  -14.23257 -14.22413 -14.19707 -10.14783 -10.13014
 Alpha  occ. eigenvalues --  -10.12480 -10.10949 -10.09995 -10.09648 -10.09048
 Alpha  occ. eigenvalues --  -10.08904 -10.08871 -10.08823 -10.08555 -10.07538
 Alpha  occ. eigenvalues --  -10.07007 -10.06922  -0.87576  -0.82990  -0.80812
 Alpha  occ. eigenvalues --   -0.77579  -0.70914  -0.67962  -0.66741  -0.66368
 Alpha  occ. eigenvalues --   -0.63701  -0.60402  -0.55378  -0.54473  -0.52232
 Alpha  occ. eigenvalues --   -0.50984  -0.48804  -0.45698  -0.43499  -0.41766
 Alpha  occ. eigenvalues --   -0.39355  -0.38922  -0.37970  -0.37015  -0.36079
 Alpha  occ. eigenvalues --   -0.34770  -0.34358  -0.33929  -0.33614  -0.33262
 Alpha  occ. eigenvalues --   -0.32572  -0.30987  -0.30116  -0.29118  -0.28428
 Alpha  occ. eigenvalues --   -0.27703  -0.26899  -0.25871  -0.25356  -0.24775
 Alpha  occ. eigenvalues --   -0.20781  -0.17269  -0.17195  -0.15592  -0.13330
 Alpha  occ. eigenvalues --   -0.11797   0.03791
 Alpha virt. eigenvalues --    0.04861   0.06384   0.06561   0.06682   0.06947
 Alpha virt. eigenvalues --    0.07320   0.07799   0.08389   0.08620   0.09044
 Alpha virt. eigenvalues --    0.09552   0.09885   0.10329   0.10456   0.11071

  Beta  occ. eigenvalues --  -14.23251 -14.22332 -14.19703 -10.14781 -10.13005
  Beta  occ. eigenvalues --  -10.12479 -10.10947 -10.09993 -10.09647 -10.09043
  Beta  occ. eigenvalues --  -10.08896 -10.08858 -10.08819 -10.08524 -10.07532
  Beta  occ. eigenvalues --  -10.06989 -10.06908  -0.87566  -0.82917  -0.80779
  Beta  occ. eigenvalues --   -0.77568  -0.70900  -0.67903  -0.66720  -0.66353
  Beta  occ. eigenvalues --   -0.63681  -0.60368  -0.55350  -0.54443  -0.52207
  Beta  occ. eigenvalues --   -0.50930  -0.48778  -0.45654  -0.43446  -0.41725
  Beta  occ. eigenvalues --   -0.39313  -0.38905  -0.37936  -0.36977  -0.36036
  Beta  occ. eigenvalues --   -0.34738  -0.34338  -0.33898  -0.33595  -0.33232
  Beta  occ. eigenvalues --   -0.32550  -0.30960  -0.30092  -0.29101  -0.28411
  Beta  occ. eigenvalues --   -0.27675  -0.26878  -0.25849  -0.25336  -0.24741
  Beta  occ. eigenvalues --   -0.20769  -0.17257  -0.17182  -0.15579  -0.13271
  Beta  occ. eigenvalues --   -0.11785
  Beta virt. eigenvalues --    0.05558   0.06405   0.06599   0.06716   0.06820
  Beta virt. eigenvalues --    0.07538   0.07718   0.07842   0.08728   0.08874
  Beta virt. eigenvalues --    0.09391   0.09742   0.09941   0.10467   0.10717

 Mulliken charges and spin densities:
               1          2
     1  C    2.189603  -2.761451
     2  C   -0.534494   0.995907
     3  C   -1.464002   0.621159
     4  C    0.544686  -1.063039
     5  C    0.789263  -0.167349
     6  C   -1.160632   1.090900
     7  C   -0.009075  -0.313515
     8  C    0.040817  -0.030656
     9  C   -0.364156  -0.240370
    10  N    0.265244  -0.042609
    11  C    1.117821  -2.159809
    12  N   -0.095417   0.016393
    13  C    0.013621  -0.386872
    14  C   -0.495339   0.763179
    15  C    1.191914  -2.171071
    16  C   -1.221301   2.331987
    17  N   -0.220739  -0.060676
    18  H   -0.045487   0.198310
    19  H   -0.343613   0.496977
    20  H   -0.091149   0.244593
    21  H   -0.385420   0.533572
    22  H    0.070573   0.078176
    23  H    0.029444   0.146678
    24  H   -0.048434   0.220088
    25  H    0.226053   0.009520
    26  H    0.044691   0.107116
    27  H    0.164124   0.008162
    28  H    0.081928   0.038580
    29  H    0.316291  -0.103024
    30  H    0.142312   0.009962
    31  H   -0.354370   0.526103
    32  H   -0.716318   0.876540
    33  H   -0.316920   0.572204
    34  H   -0.361520   0.614337
 Sum of Mulliken charges =  -1.00000   1.00000

 Dipole moment (field-independent basis, Debye):
    X=              4.1052    Y=              5.0241    Z=              1.6766  Tot=              6.7011
 Quadrupole moment (field-independent basis, Debye-Ang):
   XX=           -253.6803   YY=           -142.3217   ZZ=           -131.0091
   XY=            -21.1820   XZ=             -6.7061   YZ=             -5.8139

 Summary of Natural Population Analysis:

                                       Natural Population
                Natural  -----------------------------------------------
    Atom  No    Charge         Core      Valence    Rydberg      Total
 -----------------------------------------------------------------------
      C    1   -0.29134      0.99964     2.28657    0.00513     3.29134
      C    2   -0.01920      0.99952     2.00900    0.01069     3.01920
      C    3   -0.10047      0.99952     2.09096    0.00999     3.10047
      C    4   -0.10191      0.99951     2.09268    0.00972     3.10191
      C    5   -0.02340      0.99949     2.01336    0.01054     3.02340
      C    6   -0.09041      0.99952     2.08252    0.00837     3.09041
      C    7   -0.09861      0.99951     2.09021    0.00889     3.09861
      C    8   -0.02056      0.99956     2.00855    0.01244     3.02056
      C    9   -0.29308      0.99965     2.28887    0.00455     3.29308
      N   10   -0.31197      0.99967     2.80204    0.01026     3.81197
      C   11    0.21024      0.99954     1.77523    0.01499     2.78976
      N   12   -0.28782      0.99968     2.77823    0.00991     3.78782
      C   13    0.03933      0.99959     1.94777    0.01331     2.96067
      C   14   -0.16741      0.99951     2.15756    0.01034     3.16741
      C   15    0.10946      0.99950     1.87910    0.01194     2.89054
      C   16   -0.16787      0.99948     2.15903    0.00937     3.16787
      N   17   -0.38748      0.99971     2.87736    0.01041     3.88748
      H   18    0.10390      0.00000     0.39490    0.00121     0.39610
      H   19    0.10331      0.00000     0.39531    0.00138     0.39669
      H   20    0.10410      0.00000     0.39456    0.00133     0.39590
      H   21    0.09982      0.00000     0.39914    0.00104     0.40018
      H   22    0.10234      0.00000     0.39654    0.00112     0.39766
      H   23    0.10686      0.00000     0.39209    0.00105     0.39314
      H   24    0.09929      0.00000     0.39983    0.00088     0.40071
      H   25    0.11323      0.00000     0.38479    0.00198     0.38677
      H   26    0.09602      0.00000     0.40290    0.00108     0.40398
      H   27    0.11146      0.00000     0.38762    0.00092     0.38854
      H   28    0.09834      0.00000     0.40080    0.00087     0.40166
      H   29    0.18779      0.00000     0.31039    0.00183     0.31221
      H   30    0.08642      0.00000     0.41256    0.00102     0.41358
      H   31    0.10391      0.00000     0.39516    0.00094     0.39609
      H   32    0.10219      0.00000     0.39621    0.00161     0.39781
      H   33    0.19191      0.00000     0.29932    0.00877     0.30809
      H   34    0.19161      0.00000     0.30004    0.00834     0.30839
 =======================================================================
   * Total *    0.00000     16.99259    43.80119    0.20622    61.00000

 Normal termination of Gaussian 16 at Sun Dec 13 17:00:44 2020.
