 Gaussian 16, Revision A.03,

 -----------------------------------------------------------
 # opt freq B3LYP/6-31G(d) empiricaldispersion=gd3bj scf=xqc
 -----------------------------------------------------------

 ------------------------------
 CID_13635723_JID_4574_neutraal
 ------------------------------
 Symbolic Z-matrix:
 Charge =  0 Multiplicity = 1

 SCF Done:  E(RB3LYP) =  -711.210790591     A.U. after   12 cycles
 SCF Done:  E(RB3LYP) =  -711.214154983     A.U. after   11 cycles
 SCF Done:  E(RB3LYP) =  -711.213410538     A.U. after   11 cycles
 SCF Done:  E(RB3LYP) =  -711.215444084     A.U. after   11 cycles
 SCF Done:  E(RB3LYP) =  -711.216868258     A.U. after   11 cycles
 SCF Done:  E(RB3LYP) =  -711.218371333     A.U. after   11 cycles
 SCF Done:  E(RB3LYP) =  -711.217841924     A.U. after   13 cycles
 SCF Done:  E(RB3LYP) =  -711.219578806     A.U. after   11 cycles
 SCF Done:  E(RB3LYP) =  -711.220311897     A.U. after   11 cycles
 SCF Done:  E(RB3LYP) =  -711.220467889     A.U. after   10 cycles
 SCF Done:  E(RB3LYP) =  -711.220540925     A.U. after   10 cycles
 SCF Done:  E(RB3LYP) =  -711.220560043     A.U. after    9 cycles
 SCF Done:  E(RB3LYP) =  -711.220564877     A.U. after    9 cycles
 SCF Done:  E(RB3LYP) =  -711.220565920     A.U. after    7 cycles
 SCF Done:  E(RB3LYP) =  -711.220566819     A.U. after    7 cycles
 SCF Done:  E(RB3LYP) =  -711.220566868     A.U. after    6 cycles
 Optimization completed.
    -- Stationary point found.
 Normal termination of Gaussian 16 at Thu Dec 10 10:14:45 2020.

 --------------------------------------------------------------------
 #N Geom=AllCheck Guess=TCheck SCRF=Check GenChk RB3LYP/6-31G(d) Freq
 --------------------------------------------------------------------

 Structure from the checkpoint file:  "JID_4574.chk"
 ------------------------------
 CID_13635723_JID_4574_neutraal
 ------------------------------
 Charge =  0 Multiplicity = 1

 SCF Done:  E(RB3LYP) =  -711.220566868     A.U. after    1 cycles

  Exact polarizability: 128.946  -3.624 119.285   0.682   0.240 105.750
 Approx polarizability: 162.925  -3.142 156.760   1.449  -2.690 157.447

                      1                      2                      3
                      A                      A                      A
 Frequencies --     33.1193                42.7398                58.9632
 Red. masses --      4.9017                 3.5826                 3.8554
 Frc consts  --      0.0032                 0.0039                 0.0079
 IR Inten    --      0.1868                 0.5770                 2.5036

                      4                      5                      6
                      A                      A                      A
 Frequencies --     61.9243                65.6534                85.2579
 Red. masses --      4.9798                 3.0139                 3.1706
 Frc consts  --      0.0113                 0.0077                 0.0136
 IR Inten    --      0.4243                 0.7441                 4.4426

                      7                      8                      9
                      A                      A                      A
 Frequencies --    100.4633               130.1622               152.7426
 Red. masses --      1.9977                 3.6841                 2.6415
 Frc consts  --      0.0119                 0.0368                 0.0363
 IR Inten    --      6.5395                 4.8817                 2.5283

                     10                     11                     12
                      A                      A                      A
 Frequencies --    163.9288               173.3127               197.6645
 Red. masses --      3.4615                 3.3125                 1.6355
 Frc consts  --      0.0548                 0.0586                 0.0377
 IR Inten    --      2.3795                 4.3281                14.9194

                     13                     14                     15
                      A                      A                      A
 Frequencies --    237.3118               279.4014               279.9489
 Red. masses --      3.2847                 2.0276                 2.7117
 Frc consts  --      0.1090                 0.0933                 0.1252
 IR Inten    --      5.7848                35.8829                 1.2425

                     16                     17                     18
                      A                      A                      A
 Frequencies --    313.7157               322.9070               342.9025
 Red. masses --      1.3035                 1.9414                 1.5995
 Frc consts  --      0.0756                 0.1193                 0.1108
 IR Inten    --     95.3619                41.8691                96.6849

                     19                     20                     21
                      A                      A                      A
 Frequencies --    358.0092               404.5158               429.4114
 Red. masses --      2.7062                 1.9026                 2.1416
 Frc consts  --      0.2044                 0.1834                 0.2327
 IR Inten    --     45.3621                23.2170                 2.6946

                     22                     23                     24
                      A                      A                      A
 Frequencies --    445.5174               475.6959               513.6728
 Red. masses --      1.7572                 2.4085                 2.0674
 Frc consts  --      0.2055                 0.3211                 0.3214
 IR Inten    --      1.2719                 5.3389                12.1820

                     25                     26                     27
                      A                      A                      A
 Frequencies --    551.5330               585.0087               726.2762
 Red. masses --      2.1092                 2.1223                 2.7592
 Frc consts  --      0.3780                 0.4279                 0.8575
 IR Inten    --     13.9076                12.0227                 4.6091

                     28                     29                     30
                      A                      A                      A
 Frequencies --    826.7913               862.4169               867.6932
 Red. masses --      2.4792                 2.3947                 2.2167
 Frc consts  --      0.9985                 1.0494                 0.9833
 IR Inten    --      2.5905                14.7741                15.0655

                     31                     32                     33
                      A                      A                      A
 Frequencies --    871.3106               912.5447               937.6392
 Red. masses --      2.7392                 2.0995                 2.0055
 Frc consts  --      1.2252                 1.0301                 1.0388
 IR Inten    --     10.6685                12.3009                12.8653

                     34                     35                     36
                      A                      A                      A
 Frequencies --    948.3051              1002.7817              1012.0290
 Red. masses --      2.1699                 2.4184                 2.3643
 Frc consts  --      1.1497                 1.4328                 1.4267
 IR Inten    --     25.4681                20.0721                28.0115

                     37                     38                     39
                      A                      A                      A
 Frequencies --   1046.1247              1060.3583              1070.4832
 Red. masses --      1.8928                 2.5880                 2.2594
 Frc consts  --      1.2205                 1.7144                 1.5255
 IR Inten    --     51.8010                31.1714                34.5230

                     40                     41                     42
                      A                      A                      A
 Frequencies --   1089.5268              1096.9531              1110.5506
 Red. masses --      2.3656                 2.9519                 3.2468
 Frc consts  --      1.6545                 2.0928                 2.3593
 IR Inten    --     10.2491                90.8247                52.9980

                     43                     44                     45
                      A                      A                      A
 Frequencies --   1134.1822              1157.8794              1182.3237
 Red. masses --      1.9614                 3.6369                 1.9303
 Frc consts  --      1.4866                 2.8729                 1.5898
 IR Inten    --     36.9764                84.6733                24.1450

                     46                     47                     48
                      A                      A                      A
 Frequencies --   1182.8053              1192.1553              1195.6463
 Red. masses --      2.9556                 1.3705                 1.5644
 Frc consts  --      2.4363                 1.1476                 1.3177
 IR Inten    --     81.0644                 8.0132                41.7364

                     49                     50                     51
                      A                      A                      A
 Frequencies --   1227.4665              1234.1271              1240.4359
 Red. masses --      1.4845                 1.5785                 1.5422
 Frc consts  --      1.3178                 1.4165                 1.3981
 IR Inten    --     25.2062                 4.4064                30.9965

                     52                     53                     54
                      A                      A                      A
 Frequencies --   1283.3607              1299.7040              1319.9942
 Red. masses --      1.1548                 1.1649                 1.1615
 Frc consts  --      1.1206                 1.1594                 1.1924
 IR Inten    --      1.7364                 8.3473                 5.7573

                     55                     56                     57
                      A                      A                      A
 Frequencies --   1346.0415              1374.0934              1386.0376
 Red. masses --      1.1934                 1.2976                 1.3871
 Frc consts  --      1.2739                 1.4435                 1.5701
 IR Inten    --     13.2169                17.2121                 5.7554

                     58                     59                     60
                      A                      A                      A
 Frequencies --   1400.5786              1403.5774              1414.3427
 Red. masses --      1.2504                 1.2209                 1.2652
 Frc consts  --      1.4452                 1.4171                 1.4911
 IR Inten    --     11.3262                39.1330                 0.4853

                     61                     62                     63
                      A                      A                      A
 Frequencies --   1415.5976              1419.7085              1427.4721
 Red. masses --      1.3151                 1.3009                 1.2875
 Frc consts  --      1.5527                 1.5449                 1.5457
 IR Inten    --      9.8503                55.1353                15.5513

                     64                     65                     66
                      A                      A                      A
 Frequencies --   1434.8170              1435.6592              1444.8401
 Red. masses --      1.3502                 1.2796                 1.3144
 Frc consts  --      1.6377                 1.5539                 1.6167
 IR Inten    --     36.6286                28.4462                 9.6817

                     67                     68                     69
                      A                      A                      A
 Frequencies --   1450.4835              1490.9273              1494.5221
 Red. masses --      1.3861                 1.1090                 1.1138
 Frc consts  --      1.7182                 1.4524                 1.4658
 IR Inten    --      1.2131                 4.0909                 4.6600

                     70                     71                     72
                      A                      A                      A
 Frequencies --   1498.3956              1511.4625              1517.4167
 Red. masses --      1.0838                 1.0514                 1.1163
 Frc consts  --      1.4337                 1.4152                 1.5143
 IR Inten    --      2.1087                 1.6800                 3.0329

                     73                     74                     75
                      A                      A                      A
 Frequencies --   1520.1888              1521.2971              1527.4936
 Red. masses --      1.1041                 1.1045                 1.0924
 Frc consts  --      1.5034                 1.5061                 1.5017
 IR Inten    --      1.6932                 3.1528                 6.1413

                     76                     77                     78
                      A                      A                      A
 Frequencies --   1529.7153              1546.6195              1548.9764
 Red. masses --      1.0978                 1.0886                 1.0534
 Frc consts  --      1.5136                 1.5342                 1.4892
 IR Inten    --      0.2976                 1.2979                 3.5026

                     79                     80                     81
                      A                      A                      A
 Frequencies --   2859.6346              2973.8567              2996.0393
 Red. masses --      1.0732                 1.0705                 1.0717
 Frc consts  --      5.1708                 5.5781                 5.6677
 IR Inten    --    117.6372                62.0122                95.1958

                     82                     83                     84
                      A                      A                      A
 Frequencies --   3002.2516              3004.8137              3011.0512
 Red. masses --      1.0668                 1.0479                 1.0635
 Frc consts  --      5.6652                 5.5746                 5.6810
 IR Inten    --     24.1599                58.1157                55.1756

                     85                     86                     87
                      A                      A                      A
 Frequencies --   3018.9793              3042.4946              3058.8391
 Red. masses --      1.0630                 1.0613                 1.0914
 Frc consts  --      5.7084                 5.7884                 6.0163
 IR Inten    --     80.0872                75.1480                33.4288

                     88                     89                     90
                      A                      A                      A
 Frequencies --   3061.2242              3078.1519              3092.6218
 Red. masses --      1.0731                 1.0966                 1.0934
 Frc consts  --      5.9249                 6.1220                 6.1616
 IR Inten    --     21.5402                28.7711                27.0739

                     91                     92                     93
                      A                      A                      A
 Frequencies --   3093.0584              3093.6975              3100.8118
 Red. masses --      1.0878                 1.0930                 1.0865
 Frc consts  --      6.1318                 6.1632                 6.1552
 IR Inten    --     34.7927                42.8466                24.0844

                     94                     95                     96
                      A                      A                      A
 Frequencies --   3104.9458              3112.5211              3120.4277
 Red. masses --      1.1036                 1.1028                 1.0935
 Frc consts  --      6.2686                 6.2944                 6.2732
 IR Inten    --     26.1982                21.7887                28.8362

                     97                     98                     99
                      A                      A                      A
 Frequencies --   3136.4779              3731.4805              3766.6329
 Red. masses --      1.1059                 1.0660                 1.0660
 Frc consts  --      6.4097                 8.7453                 8.9110
 IR Inten    --     29.4615                 8.9106                 8.2724

 - Thermochemistry -
 -------------------
 Temperature   298.150 Kelvin.  Pressure   1.00000 Atm.
 Atom     1 has atomic number  6 and mass  12.00000

 Molecular mass:   207.14706 amu.
 Principal axes and moments of inertia in atomic units:
                           1         2         3
     Eigenvalues --  2428.243233968.216085471.71560
           X            0.99993  -0.01117  -0.00374
           Y            0.01122   0.99984   0.01393
           Z            0.00359  -0.01397   0.99990
 This molecule is an asymmetric top.
 Rotational symmetry number  1.
 Warning -- assumption of classical behavior for rotation
           may cause significant error
 Rotational temperatures (Kelvin)      0.03567     0.02183     0.01583
 Rotational constants (GHZ):           0.74323     0.45480     0.32983
 Zero-point vibrational energy     821939.9 (Joules/Mol)
                                  196.44836 (Kcal/Mol)
 Warning -- explicit consideration of  26 degrees of freedom as
           vibrations may cause significant error
 Vibrational temperatures:     47.65    61.49    84.83    89.10    94.46
          (Kelvin)            122.67   144.54   187.27   219.76   235.86
                              249.36   284.40   341.44   402.00   402.78
                              451.37   464.59   493.36   515.10   582.01
                              617.83   641.00   684.42   739.06   793.53
                              841.70  1044.95  1189.57  1240.83  1248.42
                             1253.62  1312.95  1349.05  1364.40  1442.78
                             1456.08  1505.14  1525.62  1540.19  1567.59
                             1578.27  1597.83  1631.84  1665.93  1701.10
                             1701.79  1715.25  1720.27  1766.05  1775.63
                             1784.71  1846.47  1869.98  1899.18  1936.65
                             1977.01  1994.20  2015.12  2019.43  2034.92
                             2036.73  2042.64  2053.81  2064.38  2065.59
                             2078.80  2086.92  2145.11  2150.28  2155.86
                             2174.66  2183.22  2187.21  2188.81  2197.72
                             2200.92  2225.24  2228.63  4114.38  4278.72
                             4310.63  4319.57  4323.26  4332.23  4343.64
                             4377.47  4400.99  4404.42  4428.77  4449.59
                             4450.22  4451.14  4461.38  4467.32  4478.22
                             4489.60  4512.69  5368.77  5419.34

 Zero-point correction=                           0.313060 (Hartree/Particle)
 Thermal correction to Energy=                    0.330294
 Thermal correction to Enthalpy=                  0.331238
 Thermal correction to Gibbs Free Energy=         0.266833
 Sum of electronic and zero-point Energies=           -710.907506
 Sum of electronic and thermal Energies=              -710.890273
 Sum of electronic and thermal Enthalpies=            -710.889329
 Sum of electronic and thermal Free Energies=         -710.953734

                     E (Thermal)             CV                S
                      KCal/Mol        Cal/Mol-Kelvin    Cal/Mol-Kelvin
 Total                  207.263             61.135            135.551
 Electronic               0.000              0.000              0.000
 Translational            0.889              2.981             41.889
 Rotational               0.889              2.981             32.333
 Vibrational            205.485             55.174             61.329
 Vibration     1          0.594              1.983              5.633
 Vibration     2          0.595              1.980              5.128
 Vibration     3          0.596              1.974              4.492
 Vibration     4          0.597              1.972              4.395
 Vibration     5          0.597              1.971              4.280
 Vibration     6          0.601              1.959              3.766
 Vibration     7          0.604              1.949              3.445
 Vibration     8          0.612              1.923              2.944
 Vibration     9          0.619              1.900              2.638
 Vibration    10          0.623              1.887              2.504
 Vibration    11          0.627              1.875              2.399
 Vibration    12          0.637              1.843              2.155
 Vibration    13          0.656              1.784              1.823
 Vibration    14          0.680              1.712              1.537
 Vibration    15          0.680              1.711              1.534
 Vibration    16          0.702              1.648              1.343
 Vibration    17          0.708              1.630              1.295
 Vibration    18          0.722              1.590              1.199
 Vibration    19          0.733              1.559              1.131
 Vibration    20          0.770              1.460              0.946
 Vibration    21          0.791              1.406              0.861
 Vibration    22          0.805              1.371              0.809
 Vibration    23          0.832              1.304              0.722
 Vibration    24          0.869              1.220              0.625
 Vibration    25          0.907              1.136              0.541
 Vibration    26          0.942              1.064              0.476

                           ! Non-Optimized Parameters !
 Normal termination of Gaussian 16 at Thu Dec 10 10:26:43 2020.

 ----------------------------------------------------------------------
 # B3LYP/6-311++G(d,p) empiricaldispersion=gd3bj scf=xqc pop=npa geom=c
 heck
 ----------------------------------------------------------------------

 --------------------------------------
 CID_13635723_JID_4574_Energie_neutraal
 --------------------------------------
 Structure from the checkpoint file:  "JID_4574.chk"
 Charge =  0 Multiplicity = 1

 SCF Done:  E(RB3LYP) =  -711.452000947     A.U. after   13 cycles
 Normal termination of Gaussian 16 at Thu Dec 10 10:32:02 2020.

 ----------------------------------------------------------------------
 # B3LYP/6-311++G(d,p) empiricaldispersion=gd3bj scf=xqc pop=npa geom=c
 heck
 ----------------------------------------------------------------------

 ------------------------------------
 CID_13635723_JID_4574_Energie_kation
 ------------------------------------
 Structure from the checkpoint file:  "JID_4574.chk"
 Charge =  1 Multiplicity = 2

 SCF Done:  E(UB3LYP) =  -711.175161641     A.U. after   21 cycles
 Normal termination of Gaussian 16 at Thu Dec 10 10:45:52 2020.
 Gaussian 16:  ES64L-G16RevA.03 25-Dec-2016

 ----------------------------------------------------------------------
 # B3LYP/6-311++G(d,p) empiricaldispersion=gd3bj scf=xqc pop=npa geom=c
 heck
 ----------------------------------------------------------------------

 -----------------------------------
 CID_13635723_JID_4574_Energie_anion
 -----------------------------------
 Structure from the checkpoint file:  "JID_4574.chk"
 Charge = -1 Multiplicity = 2

                         Standard orientation:
 ---------------------------------------------------------------------
 Center     Atomic      Atomic             Coordinates (Angstroms)
 Number     Number       Type             X           Y           Z
 ---------------------------------------------------------------------
      1          6           0       -3.473824    1.085668    0.445739
      2          8           0       -3.066625    0.579216   -0.815673
      3          6           0       -3.062363   -0.838359   -0.897486
      4          6           0       -1.725974   -1.454803   -0.521527
      5          8           0       -1.495691   -1.239556    0.863575
      6          6           0       -0.170404   -1.529166    1.294758
      7          6           0        0.728565   -0.293237    1.259409
      8          7           0        1.032407    0.194824   -0.085153
      9          6           0        0.367045    1.435546   -0.484929
     10          6           0        0.797167    2.705759    0.253135
     11          8           0        2.164736    3.046043    0.033457
     12          6           0        2.392794   -0.000252   -0.549794
     13          6           0        2.692811   -1.428067   -1.010469
     14          8           0        2.665915   -2.392825    0.037699
     15          1           0       -3.478132    2.175883    0.357183
     16          1           0       -2.792703    0.779963    1.246819
     17          1           0       -4.491343    0.747592    0.697748
     18          1           0       -3.859616   -1.263437   -0.269119
     19          1           0       -3.279990   -1.093269   -1.942038
     20          1           0       -1.750387   -2.536742   -0.742544
     21          1           0       -0.927749   -1.003872   -1.121369
     22          1           0       -0.254029   -1.876676    2.332952
     23          1           0        0.275836   -2.332732    0.698478
     24          1           0        0.229917    0.495196    1.839109
     25          1           0        1.661259   -0.533399    1.790806
     26          1           0        0.551419    1.583133   -1.555378
     27          1           0       -0.714392    1.299419   -0.373666
     28          1           0        0.212157    3.551999   -0.123851
     29          1           0        0.584212    2.620915    1.330457
     30          1           0        2.701684    2.394109    0.506984
     31          1           0        2.569751    0.671388   -1.395985
     32          1           0        3.148932    0.267508    0.222090
     33          1           0        1.923473   -1.742974   -1.720864
     34          1           0        3.666434   -1.442474   -1.527538
     35          1           0        3.374833   -2.166855    0.660323
 ---------------------------------------------------------------------

 SCF Done:  E(UB3LYP) =  -711.440205538     A.U. after   28 cycles

 The electronic state is 2-A.
 Alpha  occ. eigenvalues --  -19.03649 -19.02616 -19.02186 -19.01638 -14.20159
 Alpha  occ. eigenvalues --  -10.12976 -10.12061 -10.11735 -10.11371 -10.11023
 Alpha  occ. eigenvalues --  -10.10775 -10.09222 -10.09106 -10.08902  -0.95135
 Alpha  occ. eigenvalues --   -0.93310  -0.92292  -0.91798  -0.81926  -0.68078
 Alpha  occ. eigenvalues --   -0.65552  -0.64587  -0.60273  -0.58017  -0.53215
 Alpha  occ. eigenvalues --   -0.52775  -0.50675  -0.47468  -0.42059  -0.41420
 Alpha  occ. eigenvalues --   -0.40580  -0.39870  -0.39334  -0.38029  -0.36924
 Alpha  occ. eigenvalues --   -0.36716  -0.35616  -0.34440  -0.33588  -0.33099
 Alpha  occ. eigenvalues --   -0.31847  -0.30753  -0.29675  -0.29195  -0.28018
 Alpha  occ. eigenvalues --   -0.26700  -0.26317  -0.26183  -0.23710  -0.23275
 Alpha  occ. eigenvalues --   -0.23045  -0.22106  -0.18957  -0.17870  -0.17253
 Alpha  occ. eigenvalues --   -0.16248  -0.10366   0.04470
 Alpha virt. eigenvalues --    0.06069   0.06899   0.07731   0.08221   0.08705
 Alpha virt. eigenvalues --    0.09236   0.09937   0.09999   0.10719   0.11268
 Alpha virt. eigenvalues --    0.11954   0.12260   0.13052   0.13246   0.13554

  Beta  occ. eigenvalues --  -19.03645 -19.02609 -19.02166 -19.01588 -14.20149
  Beta  occ. eigenvalues --  -10.12967 -10.12058 -10.11715 -10.11353 -10.11003
  Beta  occ. eigenvalues --  -10.10765 -10.09181 -10.09103 -10.08876  -0.95126
  Beta  occ. eigenvalues --   -0.93299  -0.92251  -0.91691  -0.81896  -0.68059
  Beta  occ. eigenvalues --   -0.65496  -0.64550  -0.60228  -0.57972  -0.53176
  Beta  occ. eigenvalues --   -0.52694  -0.50644  -0.47394  -0.42026  -0.41379
  Beta  occ. eigenvalues --   -0.40539  -0.39815  -0.39312  -0.38001  -0.36883
  Beta  occ. eigenvalues --   -0.36658  -0.35560  -0.34411  -0.33563  -0.33046
  Beta  occ. eigenvalues --   -0.31816  -0.30709  -0.29640  -0.29175  -0.27988
  Beta  occ. eigenvalues --   -0.26674  -0.26266  -0.26147  -0.23679  -0.23253
  Beta  occ. eigenvalues --   -0.22995  -0.22086  -0.18923  -0.17823  -0.17231
  Beta  occ. eigenvalues --   -0.16214  -0.10286
  Beta virt. eigenvalues --    0.06302   0.07161   0.07542   0.08144   0.08720
  Beta virt. eigenvalues --    0.09134   0.09843   0.10082   0.10117   0.10969
  Beta virt. eigenvalues --    0.11590   0.12143   0.12483   0.13271   0.13325

 Mulliken charges and spin densities:
               1          2
     1  C    0.233001  -0.537923
     2  O   -0.112625   0.027258
     3  C    0.018515  -0.432372
     4  C   -0.296484   0.089502
     5  O   -0.079019   0.001798
     6  C   -0.756192   0.230786
     7  C    0.743592  -0.866598
     8  N   -0.158106   0.220120
     9  C   -0.435283   0.309419
    10  C    0.130500  -0.581682
    11  O   -0.248657   0.019349
    12  C   -0.171960  -0.010848
    13  C    0.990536  -1.495831
    14  O   -0.277008   0.039603
    15  H   -0.029422   0.175031
    16  H    0.009704   0.162139
    17  H   -0.216488   0.315510
    18  H    0.068009   0.083210
    19  H    0.033924   0.130589
    20  H   -0.080632   0.195290
    21  H    0.247149  -0.051886
    22  H   -0.279336   0.434049
    23  H    0.402474  -0.196972
    24  H    0.353325  -0.221001
    25  H   -0.280418   0.436881
    26  H    0.040875   0.131641
    27  H    0.334385  -0.273326
    28  H   -0.015126   0.186772
    29  H   -0.181680   0.338311
    30  H    0.096969   0.158784
    31  H    0.145156   0.011392
    32  H   -0.699437   0.863970
    33  H    0.116670   0.053259
    34  H   -0.488173   0.637117
    35  H   -0.158735   0.416658
 Sum of Mulliken charges =  -1.00000   1.00000

 Dipole moment (field-independent basis, Debye):
    X=             -6.8716    Y=             -0.4000    Z=             -2.8890  Tot=              7.4649
 Quadrupole moment (field-independent basis, Debye-Ang):
   XX=           -170.8359   YY=           -135.4822   ZZ=           -118.6117
   XY=              6.4757   XZ=             -5.7441   YZ=              2.9187

 Summary of Natural Population Analysis:

                                       Natural Population
                Natural  -----------------------------------------------
    Atom  No    Charge         Core      Valence    Rydberg      Total
 -----------------------------------------------------------------------
      C    1   -0.10222      0.99961     2.09271    0.00990     3.10222
      O    2   -0.30222      0.99989     3.29220    0.01013     4.30222
      C    3   -0.01779      0.99957     2.00445    0.01376     3.01779
      C    4   -0.02327      0.99957     2.01330    0.01040     3.02327
      O    5   -0.31152      0.99988     3.30161    0.01003     4.31152
      C    6   -0.01256      0.99956     2.00094    0.01206     3.01256
      C    7   -0.09629      0.99959     2.08394    0.01276     3.09629
      N    8   -0.29491      0.99971     2.78021    0.01500     3.79491
      C    9   -0.09701      0.99960     2.08638    0.01104     3.09701
      C   10   -0.01937      0.99959     2.00724    0.01254     3.01937
      O   11   -0.37193      0.99990     3.36549    0.00653     4.37193
      C   12   -0.09697      0.99959     2.08388    0.01350     3.09697
      C   13   -0.01154      0.99959     1.99851    0.01344     3.01154
      O   14   -0.37420      0.99990     3.36679    0.00751     4.37420
      H   15    0.08766      0.00000     0.41121    0.00114     0.41234
      H   16    0.09170      0.00000     0.40661    0.00169     0.40830
      H   17    0.07622      0.00000     0.42250    0.00127     0.42378
      H   18    0.08074      0.00000     0.41760    0.00165     0.41926
      H   19    0.08846      0.00000     0.41059    0.00095     0.41154
      H   20    0.07766      0.00000     0.42101    0.00133     0.42234
      H   21    0.09377      0.00000     0.40415    0.00208     0.40623
      H   22    0.08505      0.00000     0.41382    0.00113     0.41495
      H   23    0.09223      0.00000     0.40580    0.00197     0.40777
      H   24    0.09021      0.00000     0.40799    0.00181     0.40979
      H   25    0.09922      0.00000     0.39813    0.00265     0.40078
      H   26    0.09350      0.00000     0.40535    0.00115     0.40650
      H   27    0.10495      0.00000     0.39247    0.00259     0.39505
      H   28    0.08447      0.00000     0.41434    0.00119     0.41553
      H   29    0.07706      0.00000     0.42157    0.00137     0.42294
      H   30    0.23156      0.00000     0.26466    0.00378     0.26844
      H   31    0.10200      0.00000     0.39664    0.00135     0.39800
      H   32    0.08139      0.00000     0.41367    0.00494     0.41861
      H   33    0.08323      0.00000     0.41507    0.00170     0.41677
      H   34    0.07715      0.00000     0.42138    0.00147     0.42285
      H   35    0.23357      0.00000     0.25635    0.01009     0.26643
 =======================================================================
   * Total *    0.00000     13.99556    42.79855    0.20589    57.00000

 Normal termination of Gaussian 16 at Thu Dec 10 11:02:18 2020.
