 Gaussian 16, Revision A.03,

 -----------------------------------------------------------
 # opt freq B3LYP/6-31G(d) empiricaldispersion=gd3bj scf=xqc
 -----------------------------------------------------------

 ------------------------------
 CID_43511289_JID_7284_neutraal
 ------------------------------
 Symbolic Z-matrix:
 Charge =  0 Multiplicity = 1

 SCF Done:  E(RB3LYP) =  -1089.22327003     A.U. after   15 cycles
 SCF Done:  E(RB3LYP) =  -1089.22716946     A.U. after   12 cycles
 SCF Done:  E(RB3LYP) =  -1089.22721768     A.U. after   13 cycles
 SCF Done:  E(RB3LYP) =  -1089.22791810     A.U. after   12 cycles
 SCF Done:  E(RB3LYP) =  -1089.22829926     A.U. after   12 cycles
 SCF Done:  E(RB3LYP) =  -1089.22870540     A.U. after   13 cycles
 SCF Done:  E(RB3LYP) =  -1089.22905139     A.U. after   13 cycles
 SCF Done:  E(RB3LYP) =  -1089.22936846     A.U. after   11 cycles
 SCF Done:  E(RB3LYP) =  -1089.22951084     A.U. after   13 cycles
 SCF Done:  E(RB3LYP) =  -1089.22954962     A.U. after   11 cycles
 SCF Done:  E(RB3LYP) =  -1089.22961056     A.U. after   10 cycles
 SCF Done:  E(RB3LYP) =  -1089.22961244     A.U. after    9 cycles
 SCF Done:  E(RB3LYP) =  -1089.22961329     A.U. after    8 cycles
 SCF Done:  E(RB3LYP) =  -1089.22961352     A.U. after    7 cycles
 SCF Done:  E(RB3LYP) =  -1089.22961372     A.U. after    7 cycles
 Optimization completed.
    -- Stationary point found.
 Normal termination of Gaussian 16 at Fri Dec 11 12:04:01 2020.

 --------------------------------------------------------------------
 #N Geom=AllCheck Guess=TCheck SCRF=Check GenChk RB3LYP/6-31G(d) Freq
 --------------------------------------------------------------------

 Structure from the checkpoint file:  "JID_7284.chk"
 ------------------------------
 CID_43511289_JID_7284_neutraal
 ------------------------------
 Charge =  0 Multiplicity = 1

 SCF Done:  E(RB3LYP) =  -1089.22961372     A.U. after    1 cycles

  Exact polarizability: 239.548  -1.481 157.661  11.029  -4.490 115.561
 Approx polarizability: 314.993  -0.861 264.664  25.564 -14.998 178.685

                      1                      2                      3
                      A                      A                      A
 Frequencies --     20.1917                43.3245                49.7422
 Red. masses --      6.3875                 3.3832                 6.6543
 Frc consts  --      0.0015                 0.0037                 0.0097
 IR Inten    --      1.1209                 0.7906                 2.8164

                      4                      5                      6
                      A                      A                      A
 Frequencies --     66.2613                87.3661                96.0269
 Red. masses --      6.8469                 3.9720                 4.2187
 Frc consts  --      0.0177                 0.0179                 0.0229
 IR Inten    --      0.4446                 1.3101                 0.7524

                      7                      8                      9
                      A                      A                      A
 Frequencies --    168.4598               186.8090               216.2045
 Red. masses --      3.9305                 1.0610                 4.2497
 Frc consts  --      0.0657                 0.0218                 0.1170
 IR Inten    --      2.7279                 0.1684                 2.0326

                     10                     11                     12
                      A                      A                      A
 Frequencies --    227.4998               232.2876               276.5057
 Red. masses --      2.9521                 2.5542                 2.2121
 Frc consts  --      0.0900                 0.0812                 0.0996
 IR Inten    --      0.1884                 0.6630                 2.1067

                     13                     14                     15
                      A                      A                      A
 Frequencies --    283.9009               344.4524               347.0670
 Red. masses --      3.8996                 3.0733                 4.2808
 Frc consts  --      0.1852                 0.2148                 0.3038
 IR Inten    --      2.7484                 4.6283                 3.3397

                     16                     17                     18
                      A                      A                      A
 Frequencies --    384.3199               408.9245               435.0084
 Red. masses --      6.2591                 3.4765                 2.7270
 Frc consts  --      0.5447                 0.3425                 0.3040
 IR Inten    --      4.1984                10.0051                 2.2789

                     19                     20                     21
                      A                      A                      A
 Frequencies --    448.5962               455.5902               471.4845
 Red. masses --      1.5916                 2.7506                 2.8382
 Frc consts  --      0.1887                 0.3364                 0.3717
 IR Inten    --     29.5650                15.9459                40.8017

                     22                     23                     24
                      A                      A                      A
 Frequencies --    526.6989               532.1741               566.3245
 Red. masses --      1.8749                 2.6774                 3.1711
 Frc consts  --      0.3064                 0.4468                 0.5992
 IR Inten    --     27.3219                10.8840                 2.7047

                     25                     26                     27
                      A                      A                      A
 Frequencies --    619.8899               650.4771               656.2909
 Red. masses --      4.7895                 2.1316                 4.5734
 Frc consts  --      1.0843                 0.5314                 1.1606
 IR Inten    --     15.1774                66.2197                 3.3291

                     28                     29                     30
                      A                      A                      A
 Frequencies --    674.9056               691.3899               693.7907
 Red. masses --      3.2199                 4.0433                 3.5116
 Frc consts  --      0.8641                 1.1388                 0.9959
 IR Inten    --     16.9751                 0.5833                 8.7422

                     31                     32                     33
                      A                      A                      A
 Frequencies --    718.2200               760.7085               782.5236
 Red. masses --      2.2304                 2.7376                 1.6592
 Frc consts  --      0.6779                 0.9334                 0.5986
 IR Inten    --     25.9631                 8.7692                20.7654

                     34                     35                     36
                      A                      A                      A
 Frequencies --    803.4779               823.4939               851.5952
 Red. masses --      1.5375                 2.5141                 1.6355
 Frc consts  --      0.5848                 1.0045                 0.6988
 IR Inten    --      0.2632                 0.2202                25.9864

                     37                     38                     39
                      A                      A                      A
 Frequencies --    859.2196               865.2057               930.5653
 Red. masses --      1.4485                 3.4195                 1.3825
 Frc consts  --      0.6301                 1.5082                 0.7053
 IR Inten    --      2.9357                 4.8723                 4.4268

                     40                     41                     42
                      A                      A                      A
 Frequencies --    952.2817               960.6766              1003.1163
 Red. masses --      2.2336                 1.2515                 2.2173
 Frc consts  --      1.1934                 0.6805                 1.3146
 IR Inten    --      7.2455                 0.2774                 5.1056

                     43                     44                     45
                      A                      A                      A
 Frequencies --   1006.9358              1016.4035              1026.1711
 Red. masses --      3.1503                 4.7487                 2.1466
 Frc consts  --      1.8819                 2.8904                 1.3318
 IR Inten    --      5.1311                 2.7316                 0.0562

                     46                     47                     48
                      A                      A                      A
 Frequencies --   1039.3426              1068.4210              1078.0310
 Red. masses --      1.5883                 1.7113                 1.8986
 Frc consts  --      1.0109                 1.1510                 1.3000
 IR Inten    --     27.3382                 6.5965                 4.7882

                     49                     50                     51
                      A                      A                      A
 Frequencies --   1095.7924              1125.4551              1136.5471
 Red. masses --      1.7171                 1.7473                 1.8827
 Frc consts  --      1.2148                 1.3040                 1.4329
 IR Inten    --      3.6793                19.9812                13.5370

                     52                     53                     54
                      A                      A                      A
 Frequencies --   1149.8842              1207.7033              1232.9343
 Red. masses --      1.4371                 1.1383                 1.3635
 Frc consts  --      1.1195                 0.9782                 1.2212
 IR Inten    --      6.1355                32.0051                 2.0327

                     55                     56                     57
                      A                      A                      A
 Frequencies --   1236.7934              1242.2536              1278.3535
 Red. masses --      1.3768                 1.8282                 1.4056
 Frc consts  --      1.2408                 1.6622                 1.3534
 IR Inten    --     18.2361                75.6962                 6.0933

                     58                     59                     60
                      A                      A                      A
 Frequencies --   1296.5637              1317.5179              1337.1266
 Red. masses --      2.0977                 1.2635                 1.7110
 Frc consts  --      2.0777                 1.2922                 1.8024
 IR Inten    --     87.2978                20.7637                73.8114

                     61                     62                     63
                      A                      A                      A
 Frequencies --   1347.6165              1350.6890              1357.6721
 Red. masses --      1.3219                 2.4311                 1.2603
 Frc consts  --      1.4145                 2.6131                 1.3688
 IR Inten    --      1.4564               302.4915                 0.4616

                     64                     65                     66
                      A                      A                      A
 Frequencies --   1373.5768              1400.1767              1403.1769
 Red. masses --      1.9634                 1.7091                 1.3895
 Frc consts  --      2.1826                 1.9742                 1.6119
 IR Inten    --     17.4657                40.2496                12.3893

                     67                     68                     69
                      A                      A                      A
 Frequencies --   1427.1687              1437.5012              1452.9432
 Red. masses --      1.4073                 1.7314                 1.8822
 Frc consts  --      1.6889                 2.1079                 2.3410
 IR Inten    --     80.2088                18.9201                16.0917

                     70                     71                     72
                      A                      A                      A
 Frequencies --   1494.9883              1496.9354              1502.5941
 Red. masses --      1.3570                 1.2969                 1.0582
 Frc consts  --      1.7870                 1.7123                 1.4077
 IR Inten    --     11.5975                 7.4768                24.6964

                     73                     74                     75
                      A                      A                      A
 Frequencies --   1504.1699              1507.9786              1516.2345
 Red. masses --      1.1213                 1.0925                 1.0775
 Frc consts  --      1.4948                 1.4638                 1.4594
 IR Inten    --      4.3518                 2.1030                 9.6366

                     76                     77                     78
                      A                      A                      A
 Frequencies --   1520.6106              1556.6125              1574.2106
 Red. masses --      1.1179                 2.5321                 1.8166
 Frc consts  --      1.5230                 3.6149                 2.6523
 IR Inten    --      7.0359               176.7283                37.1949

                     79                     80                     81
                      A                      A                      A
 Frequencies --   1648.9562              1670.8724              1792.4180
 Red. masses --      4.6700                 5.8950                 7.8495
 Frc consts  --      7.4815                 9.6966                14.8584
 IR Inten    --     47.2648               309.5493               471.3911

                     82                     83                     84
                      A                      A                      A
 Frequencies --   3023.6543              3042.7799              3048.7750
 Red. masses --      1.0845                 1.0684                 1.0665
 Frc consts  --      5.8416                 5.8280                 5.8406
 IR Inten    --     25.1802                24.7473                29.1849

                     85                     86                     87
                      A                      A                      A
 Frequencies --   3051.0847              3061.5258              3068.4150
 Red. masses --      1.0669                 1.0670                 1.0400
 Frc consts  --      5.8515                 5.8923                 5.7694
 IR Inten    --     41.6154                27.8340                 3.5512

                     88                     89                     90
                      A                      A                      A
 Frequencies --   3114.9036              3116.7712              3126.6973
 Red. masses --      1.0964                 1.0972                 1.0971
 Frc consts  --      6.2679                 6.2796                 6.3194
 IR Inten    --      9.9483                12.2310                 2.4914

                     91                     92                     93
                      A                      A                      A
 Frequencies --   3128.6791              3137.9537              3174.3879
 Red. masses --      1.0971                 1.0954                 1.1047
 Frc consts  --      6.3273                 6.3550                 6.5584
 IR Inten    --     39.9635                 8.7092                11.8418

                     94                     95                     96
                      A                      A                      A
 Frequencies --   3189.9014              3202.2722              3207.6586
 Red. masses --      1.0871                 1.0895                 1.0945
 Frc consts  --      6.5173                 6.5828                 6.6350
 IR Inten    --      8.7892                12.3436                13.4008

                     97                     98                     99
                      A                      A                      A
 Frequencies --   3253.1877              3583.2569              3592.9136
 Red. masses --      1.0904                 1.0753                 1.0759
 Frc consts  --      6.7990                 8.1347                 8.1829
 IR Inten    --     10.8418                24.0294                 8.8368

 - Thermochemistry -
 -------------------
 Temperature   298.150 Kelvin.  Pressure   1.00000 Atm.
 Atom     1 has atomic number  6 and mass  12.00000

 Molecular mass:   250.11399 amu.
 Principal axes and moments of inertia in atomic units:
                           1         2         3
     Eigenvalues --  1506.85884********************
           X            0.99999   0.00205  -0.00310
           Y           -0.00201   0.99990   0.01404
           Z            0.00313  -0.01404   0.99990
 This molecule is an asymmetric top.
 Rotational symmetry number  1.
 Warning -- assumption of classical behavior for rotation
           may cause significant error
 Rotational temperatures (Kelvin)      0.05748     0.00754     0.00721
 Rotational constants (GHZ):           1.19768     0.15702     0.15018
 Zero-point vibrational energy     780726.0 (Joules/Mol)
                                  186.59800 (Kcal/Mol)
 Warning -- explicit consideration of  25 degrees of freedom as
           vibrations may cause significant error
 Vibrational temperatures:     29.05    62.33    71.57    95.34   125.70
          (Kelvin)            138.16   242.38   268.78   311.07   327.32
                              334.21   397.83   408.47   495.59   499.35
                              552.95   588.35   625.88   645.43   655.49
                              678.36   757.80   765.68   814.81   891.88
                              935.89   944.26   971.04   994.76   998.21
                             1033.36  1094.49  1125.88  1156.03  1184.82
                             1225.26  1236.23  1244.84  1338.88  1370.12
                             1382.20  1443.26  1448.76  1462.38  1476.43
                             1495.38  1537.22  1551.05  1576.60  1619.28
                             1635.24  1654.43  1737.62  1773.92  1779.47
                             1787.33  1839.27  1865.47  1895.61  1923.83
                             1938.92  1943.34  1953.39  1976.27  2014.54
                             2018.86  2053.38  2068.24  2090.46  2150.95
                             2153.76  2161.90  2164.17  2169.64  2181.52
                             2187.82  2239.62  2264.94  2372.48  2404.01
                             2578.89  4350.36  4377.88  4386.51  4389.83
                             4404.85  4414.76  4481.65  4484.34  4498.62
                             4501.47  4514.82  4567.24  4589.56  4607.36
                             4615.11  4680.61  5155.51  5169.40

 Zero-point correction=                           0.297363 (Hartree/Particle)
 Thermal correction to Energy=                    0.313783
 Thermal correction to Enthalpy=                  0.314727
 Thermal correction to Gibbs Free Energy=         0.251853
 Sum of electronic and zero-point Energies=          -1088.932251
 Sum of electronic and thermal Energies=             -1088.915831
 Sum of electronic and thermal Enthalpies=           -1088.914887
 Sum of electronic and thermal Free Energies=        -1088.977761

                     E (Thermal)             CV                S
                      KCal/Mol        Cal/Mol-Kelvin    Cal/Mol-Kelvin
 Total                  196.902             63.682            132.330
 Electronic               0.000              0.000              0.000
 Translational            0.889              2.981             42.451
 Rotational               0.889              2.981             33.698
 Vibrational            195.124             57.720             56.182
 Vibration     1          0.593              1.986              6.615
 Vibration     2          0.595              1.980              5.101
 Vibration     3          0.595              1.978              4.828
 Vibration     4          0.598              1.970              4.261
 Vibration     5          0.601              1.958              3.718
 Vibration     6          0.603              1.952              3.533
 Vibration     7          0.625              1.881              2.453
 Vibration     8          0.632              1.858              2.259
 Vibration     9          0.645              1.816              1.991
 Vibration    10          0.651              1.799              1.899
 Vibration    11          0.653              1.792              1.861
 Vibration    12          0.678              1.717              1.555
 Vibration    13          0.682              1.704              1.510
 Vibration    14          0.723              1.587              1.191
 Vibration    15          0.725              1.581              1.179
 Vibration    16          0.753              1.504              1.022
 Vibration    17          0.773              1.451              0.930
 Vibration    18          0.796              1.394              0.842
 Vibration    19          0.808              1.364              0.800
 Vibration    20          0.814              1.349              0.779
 Vibration    21          0.828              1.313              0.733
 Vibration    22          0.882              1.191              0.595
 Vibration    23          0.887              1.179              0.582
 Vibration    24          0.922              1.104              0.511
 Vibration    25          0.980              0.990              0.417

                           ! Non-Optimized Parameters !
 Normal termination of Gaussian 16 at Fri Dec 11 12:16:43 2020.

 ----------------------------------------------------------------------
 # B3LYP/6-311++G(d,p) empiricaldispersion=gd3bj scf=xqc pop=npa geom=c
 heck
 ----------------------------------------------------------------------

 --------------------------------------
 CID_43511289_JID_7284_Energie_neutraal
 --------------------------------------
 Structure from the checkpoint file:  "JID_7284.chk"
 Charge =  0 Multiplicity = 1

 SCF Done:  E(RB3LYP) =  -1089.45123711     A.U. after   15 cycles
 Normal termination of Gaussian 16 at Fri Dec 11 12:23:18 2020.

 ----------------------------------------------------------------------
 # B3LYP/6-311++G(d,p) empiricaldispersion=gd3bj scf=xqc pop=npa geom=c
 heck
 ----------------------------------------------------------------------

 ------------------------------------
 CID_43511289_JID_7284_Energie_kation
 ------------------------------------
 Structure from the checkpoint file:  "JID_7284.chk"
 Charge =  1 Multiplicity = 2

 SCF Done:  E(UB3LYP) =  -1089.17689900     A.U. after   29 cycles
 Normal termination of Gaussian 16 at Fri Dec 11 12:45:01 2020.
 Gaussian 16:  ES64L-G16RevA.03 25-Dec-2016

 ----------------------------------------------------------------------
 # B3LYP/6-311++G(d,p) empiricaldispersion=gd3bj scf=xqc pop=npa geom=c
 heck
 ----------------------------------------------------------------------

 -----------------------------------
 CID_43511289_JID_7284_Energie_anion
 -----------------------------------
 Structure from the checkpoint file:  "JID_7284.chk"
 Charge = -1 Multiplicity = 2

                         Standard orientation:
 ---------------------------------------------------------------------
 Center     Atomic      Atomic             Coordinates (Angstroms)
 Number     Number       Type             X           Y           Z
 ---------------------------------------------------------------------
      1          6           0        4.329587   -1.714837   -0.637872
      2          6           0        4.870779   -0.556318    0.178243
      3          8           0        6.027991   -0.526908    0.572467
      4          7           0        4.024840    0.499953    0.463768
      5          6           0        2.678937    0.737467    0.104462
      6          6           0        2.313885    2.024776   -0.314256
      7          6           0        0.984545    2.273909   -0.638065
      8          6           0        0.015701    1.274451   -0.574174
      9          6           0        0.368951   -0.018319   -0.145493
     10          6           0        1.709295   -0.258817    0.213668
     11          7           0       -0.524571   -1.084531   -0.078466
     12          6           0       -1.977030   -0.979539    0.098558
     13          6           0       -2.697219   -0.673273   -1.227614
     14          6           0       -4.218311   -0.773957   -1.100495
     15         16           0       -4.905046    0.424780    0.104647
     16          6           0       -3.893021   -0.098014    1.540635
     17          6           0       -2.390839   -0.048347    1.254659
     18          1           0        5.178030   -2.178207   -1.144210
     19          1           0        3.574178   -1.407630   -1.364837
     20          1           0        3.880948   -2.466370    0.021539
     21          1           0        4.522592    1.272844    0.890569
     22          1           0        3.067285    2.801854   -0.398574
     23          1           0        0.692170    3.267616   -0.965800
     24          1           0       -1.002173    1.506451   -0.855021
     25          1           0        1.985003   -1.232812    0.604500
     26          1           0       -0.131045   -1.882824    0.401005
     27          1           0       -2.288199   -1.994602    0.382400
     28          1           0       -2.438032    0.324447   -1.591543
     29          1           0       -2.342068   -1.391622   -1.976795
     30          1           0       -4.703496   -0.554244   -2.055831
     31          1           0       -4.517903   -1.787212   -0.804124
     32          1           0       -4.198760   -1.108521    1.840144
     33          1           0       -4.155368    0.580000    2.357994
     34          1           0       -1.843420   -0.355397    2.156051
     35          1           0       -2.096387    0.981958    1.037786
 ---------------------------------------------------------------------

 SCF Done:  E(UB3LYP) =  -1089.44507603     A.U. after   33 cycles
 SCF Done:  E(UB3LYP) =  -1089.44507603     a.u. after    1 cycles

 The electronic state is 2-A.
 Alpha  occ. eigenvalues --  -88.74750 -19.00606 -14.26043 -14.22547 -10.19484
 Alpha  occ. eigenvalues --  -10.13234 -10.12840 -10.11665 -10.10987 -10.10841
 Alpha  occ. eigenvalues --  -10.09037 -10.08671 -10.08120 -10.08003 -10.07859
 Alpha  occ. eigenvalues --  -10.07853 -10.07680  -7.83382  -5.79757  -5.79431
 Alpha  occ. eigenvalues --   -5.78754  -0.95849  -0.85326  -0.84154  -0.75695
 Alpha  occ. eigenvalues --   -0.73861  -0.67156  -0.67009  -0.66149  -0.65148
 Alpha  occ. eigenvalues --   -0.62958  -0.54712  -0.54233  -0.53612  -0.51214
 Alpha  occ. eigenvalues --   -0.48706  -0.47789  -0.44117  -0.42060  -0.40829
 Alpha  occ. eigenvalues --   -0.39121  -0.38866  -0.37026  -0.36836  -0.35451
 Alpha  occ. eigenvalues --   -0.35100  -0.34143  -0.33114  -0.32679  -0.32406
 Alpha  occ. eigenvalues --   -0.31633  -0.30911  -0.30458  -0.29825  -0.28701
 Alpha  occ. eigenvalues --   -0.27785  -0.27303  -0.26429  -0.24282  -0.23892
 Alpha  occ. eigenvalues --   -0.21874  -0.21611  -0.19761  -0.17819  -0.14521
 Alpha  occ. eigenvalues --   -0.13723  -0.11232   0.03986
 Alpha virt. eigenvalues --    0.06005   0.06625   0.06763   0.06984   0.07746
 Alpha virt. eigenvalues --    0.07928   0.08425   0.08792   0.09597   0.09999
 Alpha virt. eigenvalues --    0.10379   0.10641   0.10916   0.11328   0.11829

  Beta  occ. eigenvalues --  -88.74749 -19.00603 -14.26038 -14.22509 -10.19483
  Beta  occ. eigenvalues --  -10.13220 -10.12845 -10.11638 -10.10967 -10.10820
  Beta  occ. eigenvalues --  -10.09027 -10.08649 -10.08108 -10.08001 -10.07844
  Beta  occ. eigenvalues --  -10.07827 -10.07665  -7.83381  -5.79757  -5.79429
  Beta  occ. eigenvalues --   -5.78751  -0.95842  -0.85302  -0.84096  -0.75667
  Beta  occ. eigenvalues --   -0.73831  -0.67122  -0.66975  -0.66116  -0.65110
  Beta  occ. eigenvalues --   -0.62917  -0.54674  -0.54196  -0.53556  -0.51173
  Beta  occ. eigenvalues --   -0.48674  -0.47733  -0.44066  -0.41985  -0.40788
  Beta  occ. eigenvalues --   -0.39097  -0.38833  -0.36996  -0.36804  -0.35403
  Beta  occ. eigenvalues --   -0.35067  -0.34103  -0.33073  -0.32653  -0.32384
  Beta  occ. eigenvalues --   -0.31612  -0.30878  -0.30420  -0.29789  -0.28671
  Beta  occ. eigenvalues --   -0.27752  -0.27260  -0.26392  -0.24228  -0.23851
  Beta  occ. eigenvalues --   -0.21843  -0.21581  -0.19723  -0.17811  -0.14467
  Beta  occ. eigenvalues --   -0.13695  -0.11192
  Beta virt. eigenvalues --    0.05967   0.06749   0.06818   0.07226   0.07272
  Beta virt. eigenvalues --    0.07906   0.08234   0.08731   0.09132   0.09830
  Beta virt. eigenvalues --    0.10364   0.10683   0.10828   0.11090   0.11423

 Mulliken charges and spin densities:
               1          2
     1  C    0.197808  -0.673078
     2  C    0.020915   0.065758
     3  O   -0.361980   0.018093
     4  N   -0.142105  -0.008041
     5  C    0.346527  -0.940369
     6  C   -0.777695   0.591309
     7  C    0.126453  -0.302627
     8  C    0.669238  -0.696970
     9  C   -0.516816   0.864592
    10  C    0.116775  -0.211778
    11  N   -0.150411   0.267128
    12  C    0.619579  -1.205097
    13  C   -0.106489   0.069451
    14  C   -0.231847  -0.392364
    15  S   -0.009022   0.099476
    16  C    0.140979  -0.739664
    17  C    0.220609  -0.267944
    18  H    0.124852   0.051346
    19  H    0.019289   0.151277
    20  H   -0.191942   0.386199
    21  H    0.189546   0.104048
    22  H   -0.011669   0.149643
    23  H    0.004770   0.157990
    24  H    0.436503  -0.292062
    25  H   -0.107775   0.279800
    26  H   -0.405780   0.715340
    27  H   -0.858550   1.042894
    28  H   -0.144641   0.212597
    29  H   -0.010812   0.210431
    30  H    0.080175   0.122160
    31  H   -0.062215   0.255535
    32  H   -0.068601   0.266377
    33  H    0.078998   0.124624
    34  H   -0.233987   0.439483
    35  H   -0.000679   0.084443
 Sum of Mulliken charges =  -1.00000   1.00000

 Dipole moment (field-independent basis, Debye):
    X=             -1.0179    Y=              6.9530    Z=             -3.1251  Tot=              7.6906
 Quadrupole moment (field-independent basis, Debye-Ang):
   XX=           -215.4990   YY=           -155.2323   ZZ=           -139.4946
   XY=             -1.6678   XZ=             -2.2105   YZ=              6.6239

 Summary of Natural Population Analysis:

                                       Natural Population
                Natural  -----------------------------------------------
    Atom  No    Charge         Core      Valence    Rydberg      Total
 -----------------------------------------------------------------------
      C    1   -0.33606      0.99962     2.33138    0.00506     3.33606
      C    2    0.34711      0.99970     1.63232    0.02087     2.65289
      O    3   -0.32253      0.99988     3.31656    0.00610     4.32253
      N    4   -0.31211      0.99964     2.80280    0.00967     3.81211
      C    5    0.08200      0.99947     1.90684    0.01170     2.91800
      C    6   -0.13944      0.99952     2.13069    0.00924     3.13944
      C    7   -0.08510      0.99957     2.07641    0.00911     3.08510
      C    8   -0.13716      0.99952     2.13015    0.00750     3.13716
      C    9    0.10255      0.99949     1.88618    0.01178     2.89745
      C   10   -0.13070      0.99948     2.12188    0.00934     3.13070
      N   11   -0.31169      0.99967     2.79802    0.01400     3.81169
      C   12   -0.01272      0.99956     1.99539    0.01777     3.01272
      C   13   -0.19655      0.99959     2.18689    0.01008     3.19655
      C   14   -0.24890      0.99959     2.23870    0.01061     3.24890
      S   15    0.07922      4.99964     2.90367    0.01748     7.92078
      C   16   -0.24786      0.99959     2.23744    0.01083     3.24786
      C   17   -0.20306      0.99959     2.19309    0.01038     3.20306
      H   18    0.11142      0.00000     0.38782    0.00076     0.38858
      H   19    0.11177      0.00000     0.38730    0.00093     0.38823
      H   20    0.11664      0.00000     0.38206    0.00130     0.38336
      H   21    0.19587      0.00000     0.30148    0.00265     0.30413
      H   22    0.09976      0.00000     0.39930    0.00094     0.40024
      H   23    0.09853      0.00000     0.40073    0.00074     0.40147
      H   24    0.10191      0.00000     0.39638    0.00172     0.39809
      H   25    0.10714      0.00000     0.39042    0.00244     0.39286
      H   26    0.19585      0.00000     0.29355    0.01060     0.30415
      H   27    0.10448      0.00000     0.38818    0.00733     0.39552
      H   28    0.09646      0.00000     0.40183    0.00170     0.40354
      H   29    0.10758      0.00000     0.39113    0.00128     0.39242
      H   30    0.10537      0.00000     0.39384    0.00079     0.39463
      H   31    0.10223      0.00000     0.39623    0.00154     0.39777
      H   32    0.10264      0.00000     0.39570    0.00166     0.39736
      H   33    0.10590      0.00000     0.39330    0.00080     0.39410
      H   34    0.10822      0.00000     0.39026    0.00151     0.39178
      H   35    0.10124      0.00000     0.39699    0.00177     0.39876
 =======================================================================
   * Total *   -0.00000     20.99312    45.77493    0.23196    67.00000

 Normal termination of Gaussian 16 at Fri Dec 11 13:07:30 2020.
