 Gaussian 16, Revision A.03,

 -----------------------------------------------------------
 # opt freq B3LYP/6-31G(d) empiricaldispersion=gd3bj scf=xqc
 -----------------------------------------------------------

 -------------------------------
 CID_106651093_JID_2573_neutraal
 -------------------------------
 Symbolic Z-matrix:
 Charge =  0 Multiplicity = 1

 SCF Done:  E(RB3LYP) =  -506.465059766     A.U. after   13 cycles
 SCF Done:  E(RB3LYP) =  -506.468373784     A.U. after   12 cycles
 SCF Done:  E(RB3LYP) =  -506.469174101     A.U. after   11 cycles
 SCF Done:  E(RB3LYP) =  -506.469837628     A.U. after   12 cycles
 SCF Done:  E(RB3LYP) =  -506.470240887     A.U. after   11 cycles
 SCF Done:  E(RB3LYP) =  -506.470448433     A.U. after   11 cycles
 SCF Done:  E(RB3LYP) =  -506.470532682     A.U. after   11 cycles
 SCF Done:  E(RB3LYP) =  -506.470546184     A.U. after   11 cycles
 SCF Done:  E(RB3LYP) =  -506.470571389     A.U. after   10 cycles
 SCF Done:  E(RB3LYP) =  -506.470570640     A.U. after    9 cycles
 SCF Done:  E(RB3LYP) =  -506.470573702     A.U. after    9 cycles
 SCF Done:  E(RB3LYP) =  -506.470573827     A.U. after    7 cycles
 Optimization completed.
    -- Stationary point found.
 Normal termination of Gaussian 16 at Wed Dec  9 17:41:12 2020.

 --------------------------------------------------------------------
 #N Geom=AllCheck Guess=TCheck SCRF=Check GenChk RB3LYP/6-31G(d) Freq
 --------------------------------------------------------------------

 Structure from the checkpoint file:  "JID_2573.chk"
 -------------------------------
 CID_106651093_JID_2573_neutraal
 -------------------------------
 Charge =  0 Multiplicity = 1

 SCF Done:  E(RB3LYP) =  -506.470573827     A.U. after    1 cycles

  Exact polarizability: 128.114   4.251 116.061  -1.275  -4.370 102.682
 Approx polarizability: 160.812  11.929 181.317  -1.497  -5.932 148.214

                      1                      2                      3
                      A                      A                      A
 Frequencies --     46.5322                60.4054               115.0289
 Red. masses --      3.2079                 3.2992                 2.2911
 Frc consts  --      0.0041                 0.0071                 0.0179
 IR Inten    --      0.2700                 0.7641                 0.0906

                      4                      5                      6
                      A                      A                      A
 Frequencies --    135.2618               176.2592               205.8226
 Red. masses --      2.8286                 1.3967                 3.0754
 Frc consts  --      0.0305                 0.0256                 0.0768
 IR Inten    --      0.7555                 0.2480                 0.1677

                      7                      8                      9
                      A                      A                      A
 Frequencies --    237.1260               251.8893               259.2995
 Red. masses --      1.9343                 2.8770                 2.7612
 Frc consts  --      0.0641                 0.1076                 0.1094
 IR Inten    --      1.0405                 1.5802                 0.4327

                     10                     11                     12
                      A                      A                      A
 Frequencies --    285.3698               315.7497               338.9425
 Red. masses --      2.0472                 1.6451                 1.4645
 Frc consts  --      0.0982                 0.0966                 0.0991
 IR Inten    --      0.4704                13.9730                34.6818

                     13                     14                     15
                      A                      A                      A
 Frequencies --    357.5675               391.7414               416.6818
 Red. masses --      2.6049                 2.4554                 2.0086
 Frc consts  --      0.1962                 0.2220                 0.2055
 IR Inten    --     23.2590                53.2539                 1.7860

                     16                     17                     18
                      A                      A                      A
 Frequencies --    476.2346               503.7014               530.7681
 Red. masses --      3.9671                 2.8661                 1.8481
 Frc consts  --      0.5301                 0.4284                 0.3068
 IR Inten    --      5.3331                 3.7733                 2.5466

                     19                     20                     21
                      A                      A                      A
 Frequencies --    604.8584               692.5299               731.2561
 Red. masses --      2.4188                 2.6624                 1.6616
 Frc consts  --      0.5214                 0.7523                 0.5235
 IR Inten    --      0.6982                 9.0110                 0.3126

                     22                     23                     24
                      A                      A                      A
 Frequencies --    763.8855               812.3617               827.6461
 Red. masses --      2.4480                 1.5822                 1.7485
 Frc consts  --      0.8416                 0.6152                 0.7057
 IR Inten    --      0.8051                 6.1644                 6.7507

                     25                     26                     27
                      A                      A                      A
 Frequencies --    838.8114               858.3507               861.2099
 Red. masses --      1.6680                 1.7268                 1.8246
 Frc consts  --      0.6915                 0.7496                 0.7973
 IR Inten    --      5.5268                 3.6527                 7.2330

                     28                     29                     30
                      A                      A                      A
 Frequencies --    889.7880               944.6214               955.8295
 Red. masses --      2.0220                 1.5569                 1.9052
 Frc consts  --      0.9432                 0.8185                 1.0256
 IR Inten    --      8.7287                 4.4824                 6.5848

                     31                     32                     33
                      A                      A                      A
 Frequencies --   1005.5752              1014.4186              1022.6933
 Red. masses --      1.6403                 2.1023                 2.9670
 Frc consts  --      0.9772                 1.2746                 1.8283
 IR Inten    --      2.5619                23.4083                39.8503

                     34                     35                     36
                      A                      A                      A
 Frequencies --   1033.8072              1065.8886              1085.7832
 Red. masses --      2.2899                 2.0695                 1.9829
 Frc consts  --      1.4419                 1.3853                 1.3773
 IR Inten    --     19.6280                23.6217                 3.6258

                     37                     38                     39
                      A                      A                      A
 Frequencies --   1103.9358              1123.7494              1136.6408
 Red. masses --      2.0460                 1.7692                 2.0971
 Frc consts  --      1.4690                 1.3163                 1.5963
 IR Inten    --      4.3482                 4.5918                 1.7413

                     40                     41                     42
                      A                      A                      A
 Frequencies --   1155.2015              1170.9844              1194.7042
 Red. masses --      1.6556                 1.4209                 1.7694
 Frc consts  --      1.3017                 1.1480                 1.4880
 IR Inten    --      2.4949                 7.6446                 7.3971

                     43                     44                     45
                      A                      A                      A
 Frequencies --   1202.7884              1265.6179              1266.9038
 Red. masses --      1.2828                 1.3404                 1.3387
 Frc consts  --      1.0934                 1.2650                 1.2660
 IR Inten    --      0.6796                16.3189                 1.6272

                     46                     47                     48
                      A                      A                      A
 Frequencies --   1289.8280              1297.6569              1321.5308
 Red. masses --      1.2179                 1.3234                 1.1603
 Frc consts  --      1.1938                 1.3130                 1.1939
 IR Inten    --      1.8369                 8.4395                 3.2995

                     49                     50                     51
                      A                      A                      A
 Frequencies --   1325.6734              1360.0414              1368.4763
 Red. masses --      1.2182                 1.2775                 1.3603
 Frc consts  --      1.2613                 1.3923                 1.5009
 IR Inten    --      1.3482                 5.1455                 3.6021

                     52                     53                     54
                      A                      A                      A
 Frequencies --   1390.2435              1393.0424              1407.1819
 Red. masses --      1.3453                 1.4058                 1.3831
 Frc consts  --      1.5320                 1.6073                 1.6136
 IR Inten    --      2.8772                10.2019                 2.4057

                     55                     56                     57
                      A                      A                      A
 Frequencies --   1415.2192              1422.7740              1425.6242
 Red. masses --      1.3928                 1.5324                 1.4091
 Frc consts  --      1.6436                 1.8276                 1.6873
 IR Inten    --      2.3086                 4.0132                 6.9522

                     58                     59                     60
                      A                      A                      A
 Frequencies --   1432.9296              1441.2711              1446.4032
 Red. masses --      1.2595                 1.2536                 1.4545
 Frc consts  --      1.5237                 1.5343                 1.7928
 IR Inten    --     43.0214                24.5171                 4.7056

                     61                     62                     63
                      A                      A                      A
 Frequencies --   1500.6198              1510.0843              1517.1581
 Red. masses --      1.0885                 1.0816                 1.0761
 Frc consts  --      1.4441                 1.4531                 1.4594
 IR Inten    --      4.7413                 0.9116                 0.7781

                     64                     65                     66
                      A                      A                      A
 Frequencies --   1524.7758              1527.9330              1528.1211
 Red. masses --      1.0986                 1.0632                 1.0493
 Frc consts  --      1.5049                 1.4625                 1.4437
 IR Inten    --      4.4901                 1.6795                 3.5146

                     67                     68                     69
                      A                      A                      A
 Frequencies --   1529.3856              1542.1508              1565.1651
 Red. masses --      1.0845                 1.0747                 1.0844
 Frc consts  --      1.4945                 1.5059                 1.5652
 IR Inten    --      8.9172                 7.2193                 8.1934

                     70                     71                     72
                      A                      A                      A
 Frequencies --   1745.8542              2996.5777              3015.8035
 Red. masses --      6.6285                 1.0622                 1.0951
 Frc consts  --     11.9038                 5.6196                 5.8681
 IR Inten    --      1.9334                31.1852                15.3198

                     73                     74                     75
                      A                      A                      A
 Frequencies --   3019.8813              3024.7922              3028.9895
 Red. masses --      1.0644                 1.0610                 1.0792
 Frc consts  --      5.7193                 5.7195                 5.8337
 IR Inten    --     27.0535                23.7398                 8.5445

                     76                     77                     78
                      A                      A                      A
 Frequencies --   3041.6434              3042.3522              3048.2947
 Red. masses --      1.0690                 1.0679                 1.0781
 Frc consts  --      5.8269                 5.8237                 5.9022
 IR Inten    --     42.2920                48.4750                69.0695

                     79                     80                     81
                      A                      A                      A
 Frequencies --   3051.0436              3053.8709              3058.5512
 Red. masses --      1.0390                 1.0946                 1.1012
 Frc consts  --      5.6986                 6.0147                 6.0695
 IR Inten    --     32.1798                28.4437                22.7566

                     82                     83                     84
                      A                      A                      A
 Frequencies --   3079.2362              3084.4887              3086.8477
 Red. masses --      1.0703                 1.0958                 1.0977
 Frc consts  --      5.9793                 6.1425                 6.1626
 IR Inten    --     12.3245                19.9767                67.1027

                     85                     86                     87
                      A                      A                      A
 Frequencies --   3106.6908              3112.1700              3131.7160
 Red. masses --      1.0951                 1.1012                 1.1011
 Frc consts  --      6.2272                 6.2842                 6.3625
 IR Inten    --     39.5699                38.1312                49.7669

                     88                     89                     90
                      A                      A                      A
 Frequencies --   3143.1413              3150.7491              3723.1987
 Red. masses --      1.0891                 1.0856                 1.0660
 Frc consts  --      6.3392                 6.3497                 8.7060
 IR Inten    --     42.8336                21.0463                 8.4145

 - Thermochemistry -
 -------------------
 Temperature   298.150 Kelvin.  Pressure   1.00000 Atm.
 Atom     1 has atomic number  6 and mass  12.00000

 Molecular mass:   168.15142 amu.
 Principal axes and moments of inertia in atomic units:
                           1         2         3
     Eigenvalues --  1319.014443134.432093270.58945
           X            0.99975  -0.01684  -0.01461
           Y            0.01619   0.99892  -0.04345
           Z            0.01533   0.04320   0.99895
 This molecule is an asymmetric top.
 Rotational symmetry number  1.
 Warning -- assumption of classical behavior for rotation
           may cause significant error
 Rotational temperatures (Kelvin)      0.06567     0.02763     0.02648
 Rotational constants (GHZ):           1.36825     0.57578     0.55181
 Zero-point vibrational energy     777353.8 (Joules/Mol)
                                  185.79201 (Kcal/Mol)
 Warning -- explicit consideration of  19 degrees of freedom as
           vibrations may cause significant error
 Vibrational temperatures:     66.95    86.91   165.50   194.61   253.60
          (Kelvin)            296.13   341.17   362.41   373.07   410.58
                              454.29   487.66   514.46   563.63   599.51
                              685.20   724.71   763.66   870.26   996.40
                             1052.11  1099.06  1168.81  1190.80  1206.86
                             1234.98  1239.09  1280.21  1359.10  1375.23
                             1446.80  1459.52  1471.43  1487.42  1533.58
                             1562.20  1588.32  1616.82  1635.37  1662.08
                             1684.79  1718.91  1730.54  1820.94  1822.79
                             1855.77  1867.04  1901.39  1907.35  1956.80
                             1968.93  2000.25  2004.28  2024.62  2036.18
                             2047.05  2051.16  2061.67  2073.67  2081.05
                             2159.06  2172.67  2182.85  2193.81  2198.35
                             2198.63  2200.44  2218.81  2251.92  2511.89
                             4311.41  4339.07  4344.94  4352.00  4358.04
                             4376.25  4377.27  4385.82  4389.77  4393.84
                             4400.57  4430.33  4437.89  4441.29  4469.84
                             4477.72  4505.84  4522.28  4533.23  5356.85

 Zero-point correction=                           0.296078 (Hartree/Particle)
 Thermal correction to Energy=                    0.308868
 Thermal correction to Enthalpy=                  0.309813
 Thermal correction to Gibbs Free Energy=         0.257445
 Sum of electronic and zero-point Energies=           -506.174495
 Sum of electronic and thermal Energies=              -506.161705
 Sum of electronic and thermal Enthalpies=            -506.160761
 Sum of electronic and thermal Free Energies=         -506.213129

                     E (Thermal)             CV                S
                      KCal/Mol        Cal/Mol-Kelvin    Cal/Mol-Kelvin
 Total                  193.818             49.961            110.218
 Electronic               0.000              0.000              0.000
 Translational            0.889              2.981             41.267
 Rotational               0.889              2.981             30.981
 Vibrational            192.040             43.999             37.970
 Vibration     1          0.595              1.979              4.960
 Vibration     2          0.597              1.973              4.444
 Vibration     3          0.608              1.937              3.182
 Vibration     4          0.613              1.918              2.870
 Vibration     5          0.628              1.872              2.368
 Vibration     6          0.640              1.832              2.080
 Vibration     7          0.656              1.784              1.824
 Vibration     8          0.664              1.760              1.717
 Vibration     9          0.668              1.747              1.666
 Vibration    10          0.683              1.701              1.501
 Vibration    11          0.703              1.644              1.332
 Vibration    12          0.719              1.598              1.217
 Vibration    13          0.733              1.560              1.133
 Vibration    14          0.759              1.488              0.994
 Vibration    15          0.780              1.434              0.903
 Vibration    16          0.833              1.303              0.720
 Vibration    17          0.859              1.242              0.649
 Vibration    18          0.886              1.182              0.585
 Vibration    19          0.963              1.022              0.441

                           ! Non-Optimized Parameters !
 Normal termination of Gaussian 16 at Wed Dec  9 17:51:00 2020.

 ----------------------------------------------------------------------
 # B3LYP/6-311++G(d,p) empiricaldispersion=gd3bj scf=xqc pop=npa geom=c
 heck
 ----------------------------------------------------------------------

 ---------------------------------------
 CID_106651093_JID_2573_Energie_neutraal
 ---------------------------------------
 Structure from the checkpoint file:  "JID_2573.chk"
 Charge =  0 Multiplicity = 1

 SCF Done:  E(RB3LYP) =  -506.619972463     A.U. after   13 cycles
 Normal termination of Gaussian 16 at Wed Dec  9 17:55:06 2020.

 ----------------------------------------------------------------------
 # B3LYP/6-311++G(d,p) empiricaldispersion=gd3bj scf=xqc pop=npa geom=c
 heck
 ----------------------------------------------------------------------

 -------------------------------------
 CID_106651093_JID_2573_Energie_kation
 -------------------------------------
 Structure from the checkpoint file:  "JID_2573.chk"
 Charge =  1 Multiplicity = 2

 SCF Done:  E(UB3LYP) =  -506.306334159     A.U. after   21 cycles
 Normal termination of Gaussian 16 at Wed Dec  9 18:04:01 2020.
 Gaussian 16:  ES64L-G16RevA.03 25-Dec-2016

 ----------------------------------------------------------------------
 # B3LYP/6-311++G(d,p) empiricaldispersion=gd3bj scf=xqc pop=npa geom=c
 heck
 ----------------------------------------------------------------------

 ------------------------------------
 CID_106651093_JID_2573_Energie_anion
 ------------------------------------
 Structure from the checkpoint file:  "JID_2573.chk"
 Charge = -1 Multiplicity = 2

                         Standard orientation:
 ---------------------------------------------------------------------
 Center     Atomic      Atomic             Coordinates (Angstroms)
 Number     Number       Type             X           Y           Z
 ---------------------------------------------------------------------
      1          6           0        2.545717   -1.177617   -1.631804
      2          6           0        2.855648   -0.616650   -0.241068
      3          6           0        1.936358    0.532182    0.181589
      4          6           0        0.467198    0.215385    0.425950
      5          6           0        0.042654   -1.041055    0.628453
      6          6           0       -1.330434   -1.612495    0.904613
      7          6           0       -2.567874   -0.703061    0.939024
      8          6           0       -3.037480   -0.161722   -0.426883
      9          6           0       -1.966808    0.399101   -1.375579
     10          6           0       -1.200458    1.635237   -0.891433
     11          6           0       -0.411672    1.450642    0.423984
     12          8           0        2.468051    1.205684    1.338057
     13          1           0        1.545166   -1.618186   -1.676704
     14          1           0        3.270106   -1.948584   -1.915743
     15          1           0        2.590790   -0.384744   -2.388458
     16          1           0        2.830074   -1.416970    0.511231
     17          1           0        3.875758   -0.216512   -0.221278
     18          1           0        1.984084    1.296544   -0.606377
     19          1           0        0.795090   -1.827764    0.584468
     20          1           0       -1.504378   -2.408811    0.162744
     21          1           0       -1.269405   -2.145711    1.866247
     22          1           0       -2.411659    0.111156    1.650888
     23          1           0       -3.392887   -1.294551    1.357414
     24          1           0       -3.806522    0.603730   -0.251743
     25          1           0       -3.543559   -0.980774   -0.956805
     26          1           0       -1.248074   -0.393345   -1.614753
     27          1           0       -2.459389    0.654218   -2.323368
     28          1           0       -0.499976    1.932343   -1.683975
     29          1           0       -1.894749    2.477244   -0.764195
     30          1           0        0.227277    2.326200    0.581381
     31          1           0       -1.102947    1.438997    1.267663
     32          1           0        2.273706    0.630366    2.095835
 ---------------------------------------------------------------------

 SCF Done:  E(UB3LYP) =  -506.604199483     A.U. after   33 cycles
 SCF Done:  E(UB3LYP) =  -506.604199483     a.u. after    1 cycles

 The electronic state is 2-A.
 Alpha  occ. eigenvalues --  -19.02328 -10.12204 -10.06978 -10.06792 -10.06659
 Alpha  occ. eigenvalues --  -10.06633 -10.06414 -10.06270 -10.06181 -10.05915
 Alpha  occ. eigenvalues --  -10.05794 -10.05596  -0.92349  -0.72954  -0.69166
 Alpha  occ. eigenvalues --   -0.67034  -0.66178  -0.59316  -0.58287  -0.55619
 Alpha  occ. eigenvalues --   -0.50402  -0.48728  -0.46126  -0.42100  -0.38704
 Alpha  occ. eigenvalues --   -0.37413  -0.36936  -0.35820  -0.34556  -0.32523
 Alpha  occ. eigenvalues --   -0.32371  -0.31787  -0.30232  -0.28918  -0.28246
 Alpha  occ. eigenvalues --   -0.27086  -0.26106  -0.25700  -0.25234  -0.24615
 Alpha  occ. eigenvalues --   -0.23951  -0.22312  -0.21466  -0.20640  -0.19804
 Alpha  occ. eigenvalues --   -0.17763  -0.13978   0.04589
 Alpha virt. eigenvalues --    0.06685   0.06933   0.07638   0.08781   0.08857
 Alpha virt. eigenvalues --    0.09224   0.09895   0.10279   0.10699   0.11428
 Alpha virt. eigenvalues --    0.11444   0.12063   0.12223   0.13400   0.13737

  Beta  occ. eigenvalues --  -19.02317 -10.12198 -10.06978 -10.06776 -10.06639
  Beta  occ. eigenvalues --  -10.06612 -10.06400 -10.06263 -10.06156 -10.05897
  Beta  occ. eigenvalues --  -10.05772 -10.05580  -0.92325  -0.72928  -0.69134
  Beta  occ. eigenvalues --   -0.66996  -0.66145  -0.59273  -0.58249  -0.55568
  Beta  occ. eigenvalues --   -0.50345  -0.48676  -0.46069  -0.42061  -0.38672
  Beta  occ. eigenvalues --   -0.37375  -0.36907  -0.35779  -0.34521  -0.32494
  Beta  occ. eigenvalues --   -0.32341  -0.31741  -0.30201  -0.28880  -0.28215
  Beta  occ. eigenvalues --   -0.27051  -0.26067  -0.25668  -0.25201  -0.24583
  Beta  occ. eigenvalues --   -0.23916  -0.22280  -0.21422  -0.20603  -0.19773
  Beta  occ. eigenvalues --   -0.17747  -0.13960
  Beta virt. eigenvalues --    0.06762   0.07439   0.07685   0.08177   0.09118
  Beta virt. eigenvalues --    0.09466   0.09634   0.10190   0.10743   0.10909
  Beta virt. eigenvalues --    0.11884   0.11940   0.12343   0.12707   0.13636

 Mulliken charges and spin densities:
               1          2
     1  C    0.653875  -1.242930
     2  C   -0.850686   0.998952
     3  C    0.599202  -1.617720
     4  C   -2.163524   3.228509
     5  C    1.629084  -2.459713
     6  C    1.697969  -2.333837
     7  C   -0.876807   0.854156
     8  C    1.801942  -2.395364
     9  C   -0.657514   0.555410
    10  C   -0.045670  -0.425163
    11  C   -0.584745   0.558951
    12  O   -0.154011   0.037958
    13  H   -0.186188   0.356107
    14  H   -0.271546   0.406265
    15  H   -0.094825   0.217597
    16  H   -0.244044   0.391658
    17  H   -0.021678   0.197470
    18  H    0.143078   0.041681
    19  H    0.140670   0.023202
    20  H   -0.232648   0.396676
    21  H   -0.541102   0.722151
    22  H    0.081879   0.030391
    23  H   -0.521475   0.717502
    24  H   -0.090556   0.223019
    25  H   -0.297547   0.448919
    26  H    0.377521  -0.269818
    27  H   -0.420361   0.606611
    28  H   -0.110560   0.246041
    29  H   -0.161510   0.305030
    30  H    0.247056  -0.054078
    31  H    0.012459   0.148565
    32  H    0.142262   0.085802
 Sum of Mulliken charges =  -1.00000   1.00000

 Dipole moment (field-independent basis, Debye):
    X=              2.6691    Y=              3.4865    Z=              0.4189  Tot=              4.4108
 Quadrupole moment (field-independent basis, Debye-Ang):
   XX=           -146.0861   YY=           -122.7735   ZZ=           -116.1266
   XY=             -3.6410   XZ=             -0.6530   YZ=              3.9559

 Summary of Natural Population Analysis:

                                       Natural Population
                Natural  -----------------------------------------------
    Atom  No    Charge         Core      Valence    Rydberg      Total
 -----------------------------------------------------------------------
      C    1   -0.28714      0.99966     2.28235    0.00513     3.28714
      C    2   -0.20238      0.99962     2.19375    0.00902     3.20238
      C    3    0.05664      0.99949     1.93058    0.01329     2.94336
      C    4   -0.02884      0.99945     2.01752    0.01187     3.02884
      C    5   -0.08274      0.99945     2.07274    0.01055     3.08274
      C    6   -0.20790      0.99961     2.19793    0.01037     3.20790
      C    7   -0.18896      0.99962     2.18071    0.00863     3.18896
      C    8   -0.18782      0.99962     2.17970    0.00850     3.18782
      C    9   -0.19347      0.99962     2.18548    0.00836     3.19347
      C   10   -0.18352      0.99962     2.17579    0.00811     3.18352
      C   11   -0.20654      0.99958     2.19844    0.00853     3.20654
      O   12   -0.37215      0.99990     3.36620    0.00605     4.37215
      H   13    0.10188      0.00000     0.39669    0.00143     0.39812
      H   14    0.09913      0.00000     0.39987    0.00099     0.40087
      H   15    0.09523      0.00000     0.40368    0.00109     0.40477
      H   16    0.09562      0.00000     0.40291    0.00147     0.40438
      H   17    0.10111      0.00000     0.39769    0.00119     0.39889
      H   18    0.08448      0.00000     0.41372    0.00180     0.41552
      H   19    0.09648      0.00000     0.40183    0.00170     0.40352
      H   20    0.10176      0.00000     0.39657    0.00166     0.39824
      H   21    0.10743      0.00000     0.39063    0.00194     0.39257
      H   22    0.09144      0.00000     0.40703    0.00154     0.40856
      H   23    0.10147      0.00000     0.39684    0.00169     0.39853
      H   24    0.09398      0.00000     0.40470    0.00132     0.40602
      H   25    0.09725      0.00000     0.40116    0.00159     0.40275
      H   26    0.09742      0.00000     0.40073    0.00185     0.40258
      H   27    0.09940      0.00000     0.39933    0.00127     0.40060
      H   28    0.09391      0.00000     0.40485    0.00123     0.40609
      H   29    0.09445      0.00000     0.40447    0.00108     0.40555
      H   30    0.10481      0.00000     0.39405    0.00115     0.39519
      H   31    0.10068      0.00000     0.39782    0.00150     0.39932
      H   32    0.22690      0.00000     0.27020    0.00290     0.27310
 =======================================================================
   * Total *    0.00000     11.99525    34.86595    0.13880    47.00000

 Normal termination of Gaussian 16 at Wed Dec  9 18:16:23 2020.
