 Gaussian 16, Revision A.03,

 -----------------------------------------------------------
 # opt freq B3LYP/6-31G(d) empiricaldispersion=gd3bj scf=xqc
 -----------------------------------------------------------

 ------------------------------
 CID_63714040_JID_3872_neutraal
 ------------------------------
 Symbolic Z-matrix:
 Charge =  0 Multiplicity = 1

 SCF Done:  E(RB3LYP) =  -1010.89501474     A.U. after   14 cycles
 SCF Done:  E(RB3LYP) =  -1010.90002797     A.U. after   12 cycles
 SCF Done:  E(RB3LYP) =  -1010.90138579     A.U. after   12 cycles
 SCF Done:  E(RB3LYP) =  -1010.90242523     A.U. after   12 cycles
 SCF Done:  E(RB3LYP) =  -1010.90277989     A.U. after   14 cycles
 SCF Done:  E(RB3LYP) =  -1010.90320671     A.U. after   13 cycles
 SCF Done:  E(RB3LYP) =  -1010.90295030     A.U. after   13 cycles
 SCF Done:  E(RB3LYP) =  -1010.90376768     A.U. after   12 cycles
 SCF Done:  E(RB3LYP) =  -1010.90383782     A.U. after   11 cycles
 SCF Done:  E(RB3LYP) =  -1010.90389498     A.U. after   11 cycles
 SCF Done:  E(RB3LYP) =  -1010.90391389     A.U. after    9 cycles
 SCF Done:  E(RB3LYP) =  -1010.90391526     A.U. after    8 cycles
 SCF Done:  E(RB3LYP) =  -1010.90391626     A.U. after    8 cycles
 SCF Done:  E(RB3LYP) =  -1010.90391654     A.U. after    8 cycles
 SCF Done:  E(RB3LYP) =  -1010.90391674     A.U. after    7 cycles
 SCF Done:  E(RB3LYP) =  -1010.90391678     A.U. after    7 cycles
 Optimization completed.
    -- Stationary point found.
 Normal termination of Gaussian 16 at Sun Dec 13 12:26:06 2020.

 --------------------------------------------------------------------
 #N Geom=AllCheck Guess=TCheck SCRF=Check GenChk RB3LYP/6-31G(d) Freq
 --------------------------------------------------------------------

 Structure from the checkpoint file:  "JID_3872.chk"
 ------------------------------
 CID_63714040_JID_3872_neutraal
 ------------------------------
 Charge =  0 Multiplicity = 1

 SCF Done:  E(RB3LYP) =  -1010.90391678     A.U. after    1 cycles

  Exact polarizability: 128.331  -2.756 116.706  -0.111   0.018  99.436
 Approx polarizability: 158.020  -0.163 164.995  -2.840  -2.472 157.174

                      1                      2                      3
                      A                      A                      A
 Frequencies --     40.4902                46.9241                55.3720
 Red. masses --      5.4343                 5.8723                 2.8319
 Frc consts  --      0.0052                 0.0076                 0.0051
 IR Inten    --      2.9507                 1.8748                 0.9930

                      4                      5                      6
                      A                      A                      A
 Frequencies --     58.8249                82.2503               125.5271
 Red. masses --      3.4890                 3.0240                 2.5612
 Frc consts  --      0.0071                 0.0121                 0.0238
 IR Inten    --      3.3819                 2.9518                 3.5418

                      7                      8                      9
                      A                      A                      A
 Frequencies --    150.1306               178.8717               193.4835
 Red. masses --      3.2148                 1.6472                 1.8209
 Frc consts  --      0.0427                 0.0311                 0.0402
 IR Inten    --      5.0840                 2.1339                 2.0652

                     10                     11                     12
                      A                      A                      A
 Frequencies --    220.1549               224.1323               258.3694
 Red. masses --      1.1114                 2.0692                 2.0652
 Frc consts  --      0.0317                 0.0612                 0.0812
 IR Inten    --      0.1690                 7.5458                 0.4116

                     13                     14                     15
                      A                      A                      A
 Frequencies --    283.7790               299.1991               322.9478
 Red. masses --      2.8652                 1.9795                 2.7879
 Frc consts  --      0.1359                 0.1044                 0.1713
 IR Inten    --      0.4023                 0.1718                 1.2375

                     16                     17                     18
                      A                      A                      A
 Frequencies --    333.0984               382.9818               408.8376
 Red. masses --      3.6988                 2.5214                 2.2039
 Frc consts  --      0.2418                 0.2179                 0.2170
 IR Inten    --      9.0295                 2.6937                 8.5091

                     19                     20                     21
                      A                      A                      A
 Frequencies --    439.4290               441.0790               479.8774
 Red. masses --      3.7640                 2.2368                 5.9322
 Frc consts  --      0.4282                 0.2564                 0.8049
 IR Inten    --     20.7709                10.8971                13.5873

                     22                     23                     24
                      A                      A                      A
 Frequencies --    492.4192               518.8035               563.6717
 Red. masses --      4.3801                 2.6763                 3.0273
 Frc consts  --      0.6258                 0.4244                 0.5667
 IR Inten    --     20.7350                22.2140                18.0363

                     25                     26                     27
                      A                      A                      A
 Frequencies --    682.7415               743.7292               784.8998
 Red. masses --      2.6153                 3.6447                 2.2364
 Frc consts  --      0.7183                 1.1878                 0.8118
 IR Inten    --     58.0097                50.9787                27.2105

                     28                     29                     30
                      A                      A                      A
 Frequencies --    852.0965               896.9447               944.3408
 Red. masses --      2.7223                 1.5723                 2.5486
 Frc consts  --      1.1646                 0.7453                 1.3391
 IR Inten    --      8.7770                11.2799                35.1745

                     31                     32                     33
                      A                      A                      A
 Frequencies --    959.5925               981.5009               996.9691
 Red. masses --      2.4757                 2.2613                 1.3863
 Frc consts  --      1.3431                 1.2835                 0.8118
 IR Inten    --     39.9281               109.2283                 0.3813

                     34                     35                     36
                      A                      A                      A
 Frequencies --   1005.8288              1018.5390              1081.9310
 Red. masses --      1.5223                 2.5164                 2.3030
 Frc consts  --      0.9074                 1.5381                 1.5884
 IR Inten    --     85.6057                 4.2972                49.4589

                     37                     38                     39
                      A                      A                      A
 Frequencies --   1098.2187              1102.5073              1111.0996
 Red. masses --      2.8824                 1.6517                 2.6366
 Frc consts  --      2.0483                 1.1829                 1.9178
 IR Inten    --     17.7174                13.0073                36.7727

                     40                     41                     42
                      A                      A                      A
 Frequencies --   1124.3431              1164.6510              1176.1448
 Red. masses --      7.2641                 2.1009                 1.6354
 Frc consts  --      5.4104                 1.6790                 1.3329
 IR Inten    --    117.3603                90.4280                 3.7759

                     43                     44                     45
                      A                      A                      A
 Frequencies --   1186.3311              1197.4167              1225.5539
 Red. masses --      1.5574                 1.9592                 1.4944
 Frc consts  --      1.2914                 1.6551                 1.3224
 IR Inten    --     15.3724                34.8946                 9.7037

                     46                     47                     48
                      A                      A                      A
 Frequencies --   1254.4683              1277.1357              1317.1791
 Red. masses --      1.5407                 1.3684                 5.1140
 Frc consts  --      1.4285                 1.3150                 5.2276
 IR Inten    --     10.3807                31.1015               138.5321

                     49                     50                     51
                      A                      A                      A
 Frequencies --   1320.7326              1326.5498              1358.3357
 Red. masses --      1.5242                 1.2333                 1.3927
 Frc consts  --      1.5665                 1.2787                 1.5140
 IR Inten    --     24.7407                15.7510                 8.1711

                     52                     53                     54
                      A                      A                      A
 Frequencies --   1377.3636              1385.3245              1407.2129
 Red. masses --      1.2337                 1.2543                 1.4012
 Frc consts  --      1.3790                 1.4183                 1.6348
 IR Inten    --      5.3947                14.1911                41.0961

                     55                     56                     57
                      A                      A                      A
 Frequencies --   1427.3585              1435.2809              1470.9283
 Red. masses --      1.2354                 1.3520                 1.1894
 Frc consts  --      1.4829                 1.6410                 1.5162
 IR Inten    --     13.2604                 5.5914                46.8823

                     58                     59                     60
                      A                      A                      A
 Frequencies --   1485.2895              1485.7458              1493.4654
 Red. masses --      1.0503                 1.0677                 1.1379
 Frc consts  --      1.3652                 1.3886                 1.4954
 IR Inten    --      4.4977                 5.6093                26.6581

                     61                     62                     63
                      A                      A                      A
 Frequencies --   1499.3900              1509.6391              1518.3668
 Red. masses --      1.1258                 1.0909                 1.0588
 Frc consts  --      1.4912                 1.4648                 1.4382
 IR Inten    --      0.3454                 9.9706                 5.6365

                     64                     65                     66
                      A                      A                      A
 Frequencies --   1527.8375              1530.0560              1537.9655
 Red. masses --      1.0927                 1.0918                 1.0724
 Frc consts  --      1.5028                 1.5059                 1.4945
 IR Inten    --      0.2990                 9.8685                 2.4060

                     67                     68                     69
                      A                      A                      A
 Frequencies --   1541.0764              1547.9873              1563.0689
 Red. masses --      1.0661                 1.0600                 1.0659
 Frc consts  --      1.4918                 1.4966                 1.5344
 IR Inten    --      5.0683                 3.8380                13.8444

                     70                     71                     72
                      A                      A                      A
 Frequencies --   2963.7609              2966.6881              2998.4657
 Red. masses --      1.0679                 1.0642                 1.0687
 Frc consts  --      5.5269                 5.5182                 5.6613
 IR Inten    --     25.0652               116.5747                64.2657

                     73                     74                     75
                      A                      A                      A
 Frequencies --   3008.9433              3020.1127              3060.9071
 Red. masses --      1.0480                 1.0509                 1.1057
 Frc consts  --      5.5905                 5.6474                 6.1039
 IR Inten    --     38.9098                61.3104                66.1753

                     76                     77                     78
                      A                      A                      A
 Frequencies --   3068.9848              3074.6343              3085.5501
 Red. masses --      1.0606                 1.0962                 1.0955
 Frc consts  --      5.8855                 6.1056                 6.1451
 IR Inten    --     43.8797                14.0046                34.8851

                     79                     80                     81
                      A                      A                      A
 Frequencies --   3087.8044              3088.7147              3111.0512
 Red. masses --      1.0920                 1.0296                 1.0867
 Frc consts  --      6.1343                 5.7872                 6.1970
 IR Inten    --     36.0176                 0.6299                10.3995

                     82                     83                     84
                      A                      A                      A
 Frequencies --   3118.5736              3141.6055              3183.9475
 Red. masses --      1.0943                 1.1015                 1.0993
 Frc consts  --      6.2703                 6.4051                 6.5662
 IR Inten    --     22.0037                31.3881                 1.8566

                     85                     86                     87
                      A                      A                      A
 Frequencies --   3185.4332              3200.3040              3364.4837
 Red. masses --      1.1065                 1.1078                 1.0724
 Frc consts  --      6.6152                 6.6848                 7.1525
 IR Inten    --      1.4337                 0.6476               232.7302

 - Thermochemistry -
 -------------------
 Temperature   298.150 Kelvin.  Pressure   1.00000 Atm.
 Atom     1 has atomic number  6 and mass  12.00000

 Molecular mass:   210.10381 amu.
 Principal axes and moments of inertia in atomic units:
                           1         2         3
     Eigenvalues --  1685.528384267.775465103.16069
           X            0.99996   0.00614   0.00648
           Y           -0.00609   0.99996  -0.00721
           Z           -0.00652   0.00717   0.99995
 This molecule is an asymmetric top.
 Rotational symmetry number  1.
 Warning -- assumption of classical behavior for rotation
           may cause significant error
 Rotational temperatures (Kelvin)      0.05139     0.02029     0.01697
 Rotational constants (GHZ):           1.07073     0.42288     0.35365
 Zero-point vibrational energy     707374.4 (Joules/Mol)
                                  169.06653 (Kcal/Mol)
 Warning -- explicit consideration of  24 degrees of freedom as
           vibrations may cause significant error
 Vibrational temperatures:     58.26    67.51    79.67    84.64   118.34
          (Kelvin)            180.61   216.00   257.36   278.38   316.75
                              322.48   371.74   408.29   430.48   464.65
                              479.25   551.03   588.23   632.24   634.61
                              690.44   708.48   746.44   811.00   982.31
                             1070.06  1129.30  1225.98  1290.50  1358.70
                             1380.64  1412.16  1434.42  1447.16  1465.45
                             1556.66  1580.09  1586.26  1598.62  1617.68
                             1675.67  1692.21  1706.87  1722.82  1763.30
                             1804.90  1837.51  1895.13  1900.24  1908.61
                             1954.34  1981.72  1993.17  2024.67  2053.65
                             2065.05  2116.34  2137.00  2137.66  2148.76
                             2157.29  2172.03  2184.59  2198.22  2201.41
                             2212.79  2217.27  2227.21  2248.91  4264.19
                             4268.40  4314.12  4329.20  4345.27  4403.96
                             4415.58  4423.71  4439.42  4442.66  4443.97
                             4476.11  4486.93  4520.07  4580.99  4583.13
                             4604.52  4840.74

 Zero-point correction=                           0.269425 (Hartree/Particle)
 Thermal correction to Energy=                    0.285080
 Thermal correction to Enthalpy=                  0.286025
 Thermal correction to Gibbs Free Energy=         0.225666
 Sum of electronic and zero-point Energies=          -1010.634492
 Sum of electronic and thermal Energies=             -1010.618836
 Sum of electronic and thermal Enthalpies=           -1010.617892
 Sum of electronic and thermal Free Energies=        -1010.678251

                     E (Thermal)             CV                S
                      KCal/Mol        Cal/Mol-Kelvin    Cal/Mol-Kelvin
 Total                  178.891             56.452            127.036
 Electronic               0.000              0.000              0.000
 Translational            0.889              2.981             41.931
 Rotational               0.889              2.981             31.974
 Vibrational            177.113             50.490             53.131
 Vibration     1          0.594              1.981              5.235
 Vibration     2          0.595              1.979              4.943
 Vibration     3          0.596              1.975              4.616
 Vibration     4          0.596              1.974              4.496
 Vibration     5          0.600              1.961              3.836
 Vibration     6          0.610              1.928              3.013
 Vibration     7          0.618              1.903              2.671
 Vibration     8          0.629              1.868              2.340
 Vibration     9          0.635              1.849              2.194
 Vibration    10          0.647              1.810              1.958
 Vibration    11          0.649              1.804              1.925
 Vibration    12          0.667              1.749              1.673
 Vibration    13          0.682              1.704              1.511
 Vibration    14          0.692              1.675              1.421
 Vibration    15          0.708              1.630              1.295
 Vibration    16          0.715              1.609              1.245
 Vibration    17          0.752              1.506              1.027
 Vibration    18          0.773              1.451              0.931
 Vibration    19          0.799              1.384              0.828
 Vibration    20          0.801              1.381              0.823
 Vibration    21          0.836              1.295              0.710
 Vibration    22          0.848              1.267              0.677
 Vibration    23          0.874              1.208              0.613
 Vibration    24          0.919              1.110              0.517

 Optimization completed.
    -- Stationary point found.
 Normal termination of Gaussian 16 at Sun Dec 13 12:34:16 2020.

 ----------------------------------------------------------------------
 # B3LYP/6-311++G(d,p) empiricaldispersion=gd3bj scf=xqc pop=npa geom=c
 heck
 ----------------------------------------------------------------------

 --------------------------------------
 CID_63714040_JID_3872_Energie_neutraal
 --------------------------------------
 Structure from the checkpoint file:  "JID_3872.chk"
 Charge =  0 Multiplicity = 1

 SCF Done:  E(RB3LYP) =  -1011.11620416     A.U. after   14 cycles
 Normal termination of Gaussian 16 at Sun Dec 13 12:37:35 2020.

 ----------------------------------------------------------------------
 # B3LYP/6-311++G(d,p) empiricaldispersion=gd3bj scf=xqc pop=npa geom=c
 heck
 ----------------------------------------------------------------------

 ------------------------------------
 CID_63714040_JID_3872_Energie_kation
 ------------------------------------
 Structure from the checkpoint file:  "JID_3872.chk"
 Charge =  1 Multiplicity = 2

 SCF Done:  E(UB3LYP) =  -1010.81475756     A.U. after   22 cycles
 Normal termination of Gaussian 16 at Sun Dec 13 12:44:29 2020.
 Gaussian 16:  ES64L-G16RevA.03 25-Dec-2016

 ----------------------------------------------------------------------
 # B3LYP/6-311++G(d,p) empiricaldispersion=gd3bj scf=xqc pop=npa geom=c
 heck
 ----------------------------------------------------------------------

 -----------------------------------
 CID_63714040_JID_3872_Energie_anion
 -----------------------------------
 Structure from the checkpoint file:  "JID_3872.chk"
 Charge = -1 Multiplicity = 2

                         Standard orientation:
 ---------------------------------------------------------------------
 Center     Atomic      Atomic             Coordinates (Angstroms)
 Number     Number       Type             X           Y           Z
 ---------------------------------------------------------------------
      1          6           0        1.301727   -0.787683    1.541468
      2          7           0        1.380482   -1.025253    0.097748
      3          6           0        0.592596   -2.178856   -0.319709
      4          6           0       -0.910059   -1.880908   -0.175897
      5          7           0       -1.158804   -0.551990   -0.763156
      6         16           0       -2.181489    0.501155    0.065777
      7          8           0       -2.391321    0.057226    1.452293
      8          8           0       -1.672549    1.849089   -0.216223
      9          6           0       -3.735980    0.277271   -0.807577
     10          6           0        2.757479   -0.999995   -0.402500
     11          6           0        3.183960    0.399135   -0.847177
     12          8           0        3.142237    1.345827    0.209820
     13          6           0        2.098434    2.302878    0.099345
     14          1           0        1.611414   -1.676894    2.120525
     15          1           0        0.281055   -0.522651    1.832359
     16          1           0        1.960434    0.041847    1.795935
     17          1           0        0.815967   -2.376656   -1.373536
     18          1           0        0.828417   -3.095949    0.250178
     19          1           0       -1.486831   -2.643184   -0.710912
     20          1           0       -1.212504   -1.903331    0.875362
     21          1           0       -0.253755   -0.065947   -0.814926
     22          1           0       -3.589468    0.556463   -1.851267
     23          1           0       -4.038134   -0.768265   -0.720717
     24          1           0       -4.473834    0.924678   -0.329209
     25          1           0        3.462136   -1.381519    0.354037
     26          1           0        2.838149   -1.661796   -1.273420
     27          1           0        4.217815    0.353760   -1.218873
     28          1           0        2.540780    0.721565   -1.678027
     29          1           0        2.192999    2.891070   -0.825749
     30          1           0        1.101574    1.845435    0.123845
     31          1           0        2.199987    2.975395    0.954974
 ---------------------------------------------------------------------

 SCF Done:  E(UB3LYP) =  -1011.10439041     A.U. after   25 cycles

 The electronic state is 2-A.
 Alpha  occ. eigenvalues --  -88.96363 -19.03590 -19.01970 -19.01928 -14.23712
 Alpha  occ. eigenvalues --  -14.22237 -10.12654 -10.12111 -10.10821 -10.10688
 Alpha  occ. eigenvalues --  -10.10652 -10.10531 -10.09209  -8.02593  -5.98861
 Alpha  occ. eigenvalues --   -5.98843  -5.98666  -1.02072  -0.94692  -0.91104
 Alpha  occ. eigenvalues --   -0.84867  -0.81586  -0.68535  -0.66933  -0.64334
 Alpha  occ. eigenvalues --   -0.60422  -0.57344  -0.52936  -0.51655  -0.48406
 Alpha  occ. eigenvalues --   -0.43244  -0.41268  -0.40863  -0.40310  -0.38707
 Alpha  occ. eigenvalues --   -0.38028  -0.37340  -0.36913  -0.35048  -0.34637
 Alpha  occ. eigenvalues --   -0.33460  -0.32903  -0.32310  -0.31352  -0.30685
 Alpha  occ. eigenvalues --   -0.28088  -0.27983  -0.27085  -0.26146  -0.24866
 Alpha  occ. eigenvalues --   -0.23216  -0.22544  -0.21645  -0.20848  -0.17949
 Alpha  occ. eigenvalues --   -0.17528  -0.13474   0.04281
 Alpha virt. eigenvalues --    0.06201   0.07159   0.07898   0.08364   0.09156
 Alpha virt. eigenvalues --    0.09877   0.10026   0.10324   0.11125   0.11463
 Alpha virt. eigenvalues --    0.11938   0.12597   0.13331   0.13719   0.13801

  Beta  occ. eigenvalues --  -88.96357 -19.03585 -19.01959 -19.01919 -14.23701
  Beta  occ. eigenvalues --  -14.22225 -10.12640 -10.12107 -10.10796 -10.10625
  Beta  occ. eigenvalues --  -10.10621 -10.10509 -10.09200  -8.02586  -5.98857
  Beta  occ. eigenvalues --   -5.98839  -5.98661  -1.02044  -0.94682  -0.91074
  Beta  occ. eigenvalues --   -0.84840  -0.81561  -0.68482  -0.66886  -0.64282
  Beta  occ. eigenvalues --   -0.60400  -0.57307  -0.52889  -0.51603  -0.48339
  Beta  occ. eigenvalues --   -0.43208  -0.41220  -0.40841  -0.40287  -0.38681
  Beta  occ. eigenvalues --   -0.38001  -0.37309  -0.36885  -0.35018  -0.34591
  Beta  occ. eigenvalues --   -0.33417  -0.32863  -0.32261  -0.31325  -0.30648
  Beta  occ. eigenvalues --   -0.28066  -0.27948  -0.27055  -0.26102  -0.24846
  Beta  occ. eigenvalues --   -0.23196  -0.22528  -0.21617  -0.20828  -0.17926
  Beta  occ. eigenvalues --   -0.17504  -0.13400
  Beta virt. eigenvalues --    0.06674   0.07313   0.07623   0.08268   0.08883
  Beta virt. eigenvalues --    0.10000   0.10186   0.10413   0.10731   0.11716
  Beta virt. eigenvalues --    0.11829   0.12240   0.12804   0.13594   0.13867

 Mulliken charges and spin densities:
               1          2
     1  C    0.026589  -0.446738
     2  N   -0.075310   0.164818
     3  C    0.730688  -1.126513
     4  C   -0.126466  -0.372984
     5  N   -0.293747   0.049889
     6  S   -0.082436   0.247310
     7  O   -0.158460  -0.004116
     8  O   -0.183700   0.011815
     9  C    0.878967  -1.416495
    10  C    0.369073  -0.535554
    11  C   -0.188015  -0.176266
    12  O   -0.157344   0.013025
    13  C   -0.250932  -0.124502
    14  H   -0.105880   0.232156
    15  H    0.202498  -0.044248
    16  H    0.170425  -0.034907
    17  H   -0.354188   0.557236
    18  H   -0.231927   0.377552
    19  H   -0.845948   1.041058
    20  H    0.299771  -0.096781
    21  H    0.527217  -0.195625
    22  H   -0.289632   0.502986
    23  H   -0.491640   0.709222
    24  H   -0.202610   0.402098
    25  H    0.146062   0.015824
    26  H   -0.495674   0.634777
    27  H   -0.261747   0.425693
    28  H    0.067463   0.053435
    29  H    0.054552   0.064653
    30  H    0.198884   0.059462
    31  H    0.123469   0.011720
 Sum of Mulliken charges =  -1.00000   1.00000

 Dipole moment (field-independent basis, Debye):
    X=              3.4639    Y=              4.2616    Z=              3.5617  Tot=              6.5457
 Quadrupole moment (field-independent basis, Debye-Ang):
   XX=           -162.2777   YY=           -137.4020   ZZ=           -126.7995
   XY=             -0.0426   XZ=             -0.4025   YZ=            -10.0084

 Summary of Natural Population Analysis:

                                       Natural Population
                Natural  -----------------------------------------------
    Atom  No    Charge         Core      Valence    Rydberg      Total
 -----------------------------------------------------------------------
      C    1   -0.18409      0.99963     2.17746    0.00700     3.18409
      N    2   -0.29833      0.99972     2.78476    0.01385     3.79833
      C    3   -0.08463      0.99961     2.07276    0.01226     3.08463
      C    4   -0.10053      0.99961     2.08802    0.01291     3.10053
      N    5   -0.44565      0.99975     2.93188    0.01402     3.94565
      S    6    1.09120      4.99934     1.81041    0.09906     6.90880
      O    7   -0.46897      0.99991     3.46350    0.00556     4.46897
      O    8   -0.46985      0.99991     3.46405    0.00590     4.46985
      C    9   -0.38669      0.99961     2.37719    0.00989     3.38669
      C   10   -0.09073      0.99960     2.07899    0.01214     3.09073
      C   11   -0.01012      0.99957     1.99678    0.01377     3.01012
      O   12   -0.30656      0.99989     3.29761    0.00907     4.30656
      C   13   -0.09922      0.99961     2.09148    0.00814     3.09922
      H   14    0.08178      0.00000     0.41701    0.00121     0.41822
      H   15    0.10188      0.00000     0.39685    0.00126     0.39812
      H   16    0.10541      0.00000     0.39333    0.00126     0.39459
      H   17    0.10203      0.00000     0.39538    0.00259     0.39797
      H   18    0.08968      0.00000     0.40873    0.00159     0.41032
      H   19    0.10241      0.00000     0.39489    0.00269     0.39759
      H   20    0.10230      0.00000     0.39599    0.00171     0.39770
      H   21    0.20441      0.00000     0.29114    0.00446     0.29559
      H   22    0.11914      0.00000     0.37934    0.00153     0.38086
      H   23    0.11966      0.00000     0.37784    0.00250     0.38034
      H   24    0.11533      0.00000     0.38363    0.00104     0.38467
      H   25    0.08604      0.00000     0.41260    0.00136     0.41396
      H   26    0.10208      0.00000     0.39567    0.00225     0.39792
      H   27    0.08520      0.00000     0.41346    0.00134     0.41480
      H   28    0.08202      0.00000     0.41605    0.00193     0.41798
      H   29    0.07718      0.00000     0.42165    0.00117     0.42282
      H   30    0.09059      0.00000     0.40780    0.00161     0.40941
      H   31    0.08703      0.00000     0.41212    0.00085     0.41297
 =======================================================================
   * Total *   -0.00000     16.99573    39.74837    0.25590    57.00000

 Normal termination of Gaussian 16 at Sun Dec 13 12:52:15 2020.
