 Gaussian 16, Revision A.03,

 -----------------------------------------------------------
 # opt freq B3LYP/6-31G(d) empiricaldispersion=gd3bj scf=xqc
 -----------------------------------------------------------

 ------------------------------
 CID_11148848_JID_6129_neutraal
 ------------------------------
 Symbolic Z-matrix:
 Charge =  0 Multiplicity = 1

 SCF Done:  E(RB3LYP) =  -1009.10026097     A.U. after   16 cycles
 SCF Done:  E(RB3LYP) =  -1009.11341148     A.U. after   14 cycles
 SCF Done:  E(RB3LYP) =  -1009.11736422     A.U. after   15 cycles
 SCF Done:  E(RB3LYP) =  -1009.11823377     A.U. after   14 cycles
 SCF Done:  E(RB3LYP) =  -1009.11839339     A.U. after   14 cycles
 SCF Done:  E(RB3LYP) =  -1009.11849117     A.U. after   11 cycles
 SCF Done:  E(RB3LYP) =  -1009.11853999     A.U. after   13 cycles
 SCF Done:  E(RB3LYP) =  -1009.11856415     A.U. after   13 cycles
 SCF Done:  E(RB3LYP) =  -1009.11857740     A.U. after   12 cycles
 SCF Done:  E(RB3LYP) =  -1009.11858440     A.U. after   11 cycles
 SCF Done:  E(RB3LYP) =  -1009.11858669     A.U. after   10 cycles
 SCF Done:  E(RB3LYP) =  -1009.11858690     A.U. after    9 cycles
 SCF Done:  E(RB3LYP) =  -1009.11858705     A.U. after    8 cycles
 SCF Done:  E(RB3LYP) =  -1009.11858713     A.U. after    8 cycles
 SCF Done:  E(RB3LYP) =  -1009.11858717     A.U. after    7 cycles
 Optimization completed.
    -- Stationary point found.
 Normal termination of Gaussian 16 at Thu Dec 10 21:14:01 2020.

 --------------------------------------------------------------------
 #N Geom=AllCheck Guess=TCheck SCRF=Check GenChk RB3LYP/6-31G(d) Freq
 --------------------------------------------------------------------

 Structure from the checkpoint file:  "JID_6129.chk"
 ------------------------------
 CID_11148848_JID_6129_neutraal
 ------------------------------
 Charge =  0 Multiplicity = 1

 SCF Done:  E(RB3LYP) =  -1009.11858717     A.U. after    1 cycles

  Exact polarizability: 298.609 -28.162 204.512   1.270   1.009  57.722
 Approx polarizability: 508.641-105.159 428.768   4.609   4.290  94.176

                      1                      2                      3
                      A                      A                      A
 Frequencies --     20.5463                64.1812               102.5655
 Red. masses --      5.5965                 5.0507                 5.6661
 Frc consts  --      0.0014                 0.0123                 0.0351
 IR Inten    --      0.2903                 1.2747                 0.7330

                      4                      5                      6
                      A                      A                      A
 Frequencies --    148.3254               171.7567               244.7654
 Red. masses --      5.4893                 3.7722                 5.7817
 Frc consts  --      0.0712                 0.0656                 0.2041
 IR Inten    --      2.3894                 0.5892                 5.5694

                      7                      8                      9
                      A                      A                      A
 Frequencies --    249.5127               288.2594               296.2542
 Red. masses --      4.1779                 1.2880                 5.5246
 Frc consts  --      0.1532                 0.0631                 0.2857
 IR Inten    --      9.2509                25.5215                 0.9355

                     10                     11                     12
                      A                      A                      A
 Frequencies --    303.6094               324.0161               386.1236
 Red. masses --      4.0576                 3.2116                 4.9331
 Frc consts  --      0.2204                 0.1987                 0.4333
 IR Inten    --      6.4303                 4.2092                 0.0325

                     13                     14                     15
                      A                      A                      A
 Frequencies --    409.5810               440.8641               472.5112
 Red. masses --      6.1374                 3.5497                 6.8837
 Frc consts  --      0.6066                 0.4065                 0.9055
 IR Inten    --      1.4254                 1.5535                 1.5502

                     16                     17                     18
                      A                      A                      A
 Frequencies --    535.0734               545.0976               579.8540
 Red. masses --      2.8739                 3.9603                 6.4671
 Frc consts  --      0.4848                 0.6933                 1.2811
 IR Inten    --    113.4564                11.6059                10.4187

                     19                     20                     21
                      A                      A                      A
 Frequencies --    588.7000               615.5143               649.0989
 Red. masses --      2.9432                 3.7430                 1.3878
 Frc consts  --      0.6010                 0.8355                 0.3445
 IR Inten    --     10.3921                 1.2807               222.3205

                     22                     23                     24
                      A                      A                      A
 Frequencies --    676.5142               679.4080               705.8839
 Red. masses --      4.3742                 2.1117                 4.7617
 Frc consts  --      1.1795                 0.5743                 1.3979
 IR Inten    --     13.4817                47.2721                 8.8720

                     25                     26                     27
                      A                      A                      A
 Frequencies --    712.6232               736.2938               764.0082
 Red. masses --      5.3087                 1.6159                 6.2942
 Frc consts  --      1.5884                 0.5162                 2.1646
 IR Inten    --      4.2056                 0.3636                14.5750

                     28                     29                     30
                      A                      A                      A
 Frequencies --    769.3534               793.5748               826.5741
 Red. masses --      1.7082                 1.6094                 6.4659
 Frc consts  --      0.5957                 0.5972                 2.6028
 IR Inten    --     54.4856                25.0997                39.6949

                     31                     32                     33
                      A                      A                      A
 Frequencies --    878.8634               881.2757               911.2495
 Red. masses --      2.2196                 2.2261                 4.2712
 Frc consts  --      1.0101                 1.0186                 2.0896
 IR Inten    --      2.8706                 1.6093                 1.0358

                     34                     35                     36
                      A                      A                      A
 Frequencies --    913.7295               978.3079               983.4935
 Red. masses --      1.5812                 3.1445                 1.3824
 Frc consts  --      0.7778                 1.7732                 0.7878
 IR Inten    --      1.1788                 6.1748                 3.8405

                     37                     38                     39
                      A                      A                      A
 Frequencies --   1001.9604              1003.5605              1036.4298
 Red. masses --      1.3065                 4.1007                 1.3507
 Frc consts  --      0.7728                 2.4333                 0.8548
 IR Inten    --      0.1294                 4.2212                 1.6481

                     40                     41                     42
                      A                      A                      A
 Frequencies --   1061.3882              1086.6288              1101.6592
 Red. masses --      2.8314                 1.4516                 2.0333
 Frc consts  --      1.8793                 1.0099                 1.4539
 IR Inten    --     14.9770                 3.3439                22.6431

                     43                     44                     45
                      A                      A                      A
 Frequencies --   1165.1965              1210.5453              1226.7599
 Red. masses --      1.5615                 1.9774                 1.6767
 Frc consts  --      1.2491                 1.7073                 1.4867
 IR Inten    --      3.7345                 0.1815                 9.8156

                     46                     47                     48
                      A                      A                      A
 Frequencies --   1259.9223              1300.1726              1335.6000
 Red. masses --      1.3383                 3.1011                 1.7494
 Frc consts  --      1.2517                 3.0887                 1.8386
 IR Inten    --      1.5140                17.0122                30.5105

                     49                     50                     51
                      A                      A                      A
 Frequencies --   1344.9876              1349.6484              1400.2650
 Red. masses --      1.7573                 2.0184                 2.7141
 Frc consts  --      1.8729                 2.1662                 3.1355
 IR Inten    --     31.7288                16.1829                35.2032

                     52                     53                     54
                      A                      A                      A
 Frequencies --   1442.4734              1447.5024              1487.1994
 Red. masses --      5.6355                 2.1688                 2.0912
 Frc consts  --      6.9088                 2.6773                 2.7251
 IR Inten    --     42.3506               124.8509                 1.2059

                     55                     56                     57
                      A                      A                      A
 Frequencies --   1507.1148              1553.3250              1576.1994
 Red. masses --      2.1378                 6.9101                 5.2092
 Frc consts  --      2.8610                 9.8234                 7.6251
 IR Inten    --     14.6408                 5.1278                72.2218

                     58                     59                     60
                      A                      A                      A
 Frequencies --   1598.6231              1608.6638              1648.0579
 Red. masses --      3.5308                 3.3527                 6.3113
 Frc consts  --      5.3163                 5.1119                10.0999
 IR Inten    --     35.8621               106.5576                78.6477

                     61                     62                     63
                      A                      A                      A
 Frequencies --   1665.6647              1678.5288              3150.8080
 Red. masses --      4.3724                 1.4784                 1.0845
 Frc consts  --      7.1474                 2.4542                 6.3434
 IR Inten    --     39.6614               189.5703                11.2608

                     64                     65                     66
                      A                      A                      A
 Frequencies --   3156.9194              3175.0364              3187.2658
 Red. masses --      1.0863                 1.0891                 1.0927
 Frc consts  --      6.3784                 6.4686                 6.5401
 IR Inten    --      7.0078                32.2550                42.3762

                     67                     68                     69
                      A                      A                      A
 Frequencies --   3212.6693              3220.7919              3242.5075
 Red. masses --      1.0894                 1.0892                 1.0993
 Frc consts  --      6.6247                 6.6570                 6.8100
 IR Inten    --     10.9318                 9.7693                15.2151

                     70                     71                     72
                      A                      A                      A
 Frequencies --   3288.3844              3552.8200              3659.6103
 Red. masses --      1.0936                 1.0473                 1.0992
 Frc consts  --      6.9673                 7.7885                 8.6732
 IR Inten    --      6.2293                31.9874                22.2438

 - Thermochemistry -
 -------------------
 Temperature   298.150 Kelvin.  Pressure   1.00000 Atm.
 Atom     1 has atomic number  6 and mass  12.00000

 Molecular mass:   226.05647 amu.
 Principal axes and moments of inertia in atomic units:
                           1         2         3
     Eigenvalues --  1654.509726479.528138105.04770
           X            0.99999   0.00361  -0.00206
           Y           -0.00362   0.99999  -0.00225
           Z            0.00205   0.00226   1.00000
 This molecule is an asymmetric top.
 Rotational symmetry number  1.
 Warning -- assumption of classical behavior for rotation
           may cause significant error
 Rotational temperatures (Kelvin)      0.05235     0.01337     0.01069
 Rotational constants (GHZ):           1.09080     0.27853     0.22267
 Zero-point vibrational energy     523918.0 (Joules/Mol)
                                  125.21941 (Kcal/Mol)
 Warning -- explicit consideration of  20 degrees of freedom as
           vibrations may cause significant error
 Vibrational temperatures:     29.56    92.34   147.57   213.41   247.12
          (Kelvin)            352.16   358.99   414.74   426.24   436.83
                              466.19   555.55   589.30   634.31   679.84
                              769.85   784.27   834.28   847.01   885.59
                              933.91   973.35   977.52  1015.61  1025.31
                             1059.36  1099.24  1106.93  1141.78  1189.26
                             1264.49  1267.96  1311.08  1314.65  1407.57
                             1415.03  1441.60  1443.90  1491.19  1527.10
                             1563.42  1585.04  1676.46  1741.70  1765.03
                             1812.75  1870.66  1921.63  1935.14  1941.84
                             2014.67  2075.40  2082.63  2139.75  2168.40
                             2234.89  2267.80  2300.06  2314.51  2371.19
                             2396.52  2415.03  4533.31  4542.10  4568.17
                             4585.76  4622.31  4634.00  4665.25  4731.25
                             5111.72  5265.36

 Zero-point correction=                           0.199550 (Hartree/Particle)
 Thermal correction to Energy=                    0.212399
 Thermal correction to Enthalpy=                  0.213343
 Thermal correction to Gibbs Free Energy=         0.159228
 Sum of electronic and zero-point Energies=          -1008.919037
 Sum of electronic and thermal Energies=             -1008.906188
 Sum of electronic and thermal Enthalpies=           -1008.905244
 Sum of electronic and thermal Free Energies=        -1008.959359

                     E (Thermal)             CV                S
                      KCal/Mol        Cal/Mol-Kelvin    Cal/Mol-Kelvin
 Total                  133.283             51.584            113.895
 Electronic               0.000              0.000              0.000
 Translational            0.889              2.981             42.149
 Rotational               0.889              2.981             32.830
 Vibrational            131.505             45.623             38.916
 Vibration     1          0.593              1.986              6.581
 Vibration     2          0.597              1.971              4.324
 Vibration     3          0.605              1.947              3.405
 Vibration     4          0.618              1.904              2.694
 Vibration     5          0.626              1.877              2.416
 Vibration     6          0.660              1.771              1.768
 Vibration     7          0.662              1.764              1.734
 Vibration     8          0.685              1.696              1.484
 Vibration     9          0.690              1.681              1.438
 Vibration    10          0.695              1.667              1.397
 Vibration    11          0.709              1.627              1.290
 Vibration    12          0.755              1.500              1.015
 Vibration    13          0.774              1.449              0.928
 Vibration    14          0.801              1.381              0.824
 Vibration    15          0.829              1.311              0.731
 Vibration    16          0.890              1.172              0.576
 Vibration    17          0.900              1.150              0.554
 Vibration    18          0.936              1.075              0.486
 Vibration    19          0.946              1.056              0.470
 Vibration    20          0.975              0.999              0.424

                           ! Non-Optimized Parameters !
 Normal termination of Gaussian 16 at Thu Dec 10 21:22:04 2020.

 ----------------------------------------------------------------------
 # B3LYP/6-311++G(d,p) empiricaldispersion=gd3bj scf=xqc pop=npa geom=c
 heck
 ----------------------------------------------------------------------

 --------------------------------------
 CID_11148848_JID_6129_Energie_neutraal
 --------------------------------------
 Structure from the checkpoint file:  "JID_6129.chk"
 Charge =  0 Multiplicity = 1

 SCF Done:  E(RB3LYP) =  -1009.30395092     A.U. after   17 cycles
 Normal termination of Gaussian 16 at Thu Dec 10 21:25:24 2020.

 ----------------------------------------------------------------------
 # B3LYP/6-311++G(d,p) empiricaldispersion=gd3bj scf=xqc pop=npa geom=c
 heck
 ----------------------------------------------------------------------

 ------------------------------------
 CID_11148848_JID_6129_Energie_kation
 ------------------------------------
 Structure from the checkpoint file:  "JID_6129.chk"
 Charge =  1 Multiplicity = 2

 SCF Done:  E(UB3LYP) =  -1009.06388189     A.U. after   24 cycles
 Normal termination of Gaussian 16 at Thu Dec 10 21:31:56 2020.
 Gaussian 16:  ES64L-G16RevA.03 25-Dec-2016

 ----------------------------------------------------------------------
 # B3LYP/6-311++G(d,p) empiricaldispersion=gd3bj scf=xqc pop=npa geom=c
 heck
 ----------------------------------------------------------------------

 -----------------------------------
 CID_11148848_JID_6129_Energie_anion
 -----------------------------------
 Structure from the checkpoint file:  "JID_6129.chk"
 Charge = -1 Multiplicity = 2

                         Standard orientation:
 ---------------------------------------------------------------------
 Center     Atomic      Atomic             Coordinates (Angstroms)
 Number     Number       Type             X           Y           Z
 ---------------------------------------------------------------------
      1          6           0        3.749317   -1.810159   -0.108184
      2          6           0        4.367713   -0.562621   -0.026219
      3          6           0        3.765629    0.696700    0.046540
      4          6           0        2.416882    1.027951    0.058775
      5          6           0        1.907979    2.340411    0.131478
      6          6           0        0.516993    2.275848    0.123619
      7          6           0        0.079271    0.929033    0.043819
      8          6           0        1.238377    0.108879    0.002978
      9          6           0        1.278637   -1.280771   -0.086091
     10          6           0        2.388667   -2.128136   -0.136015
     11          6           0       -1.321431    0.528239   -0.002631
     12          6           0       -2.374113    1.388708   -0.188405
     13         16           0       -3.894200    0.529328   -0.172546
     14          6           0       -2.979238   -0.958442    0.098908
     15          7           0       -1.691704   -0.806126    0.162410
     16          7           0       -3.615044   -2.180734    0.161250
     17          1           0        4.426007   -2.661742   -0.158416
     18          1           0        5.455060   -0.568718   -0.020615
     19          1           0        4.448322    1.544390    0.099316
     20          1           0        2.509855    3.238877    0.192497
     21          1           0       -0.144217    3.133054    0.185266
     22          1           0        0.305857   -1.761354   -0.110390
     23          1           0        2.158565   -3.188923   -0.205889
     24          1           0       -2.354643    2.456348   -0.345588
     25          1           0       -4.541262   -2.179940    0.568909
     26          1           0       -3.017211   -2.907063    0.538597
 ---------------------------------------------------------------------

 SCF Done:  E(UB3LYP) =  -1009.32661389     A.U. after   25 cycles

 The electronic state is 2-A.
 Alpha  occ. eigenvalues --  -88.76902 -14.24673 -14.19135 -10.16364 -10.08839
 Alpha  occ. eigenvalues --  -10.06676 -10.02182 -10.02121 -10.01677 -10.01462
 Alpha  occ. eigenvalues --  -10.01308 -10.00964 -10.00677 -10.00532 -10.00513
 Alpha  occ. eigenvalues --  -10.00384  -7.85555  -5.81854  -5.81514  -5.81104
 Alpha  occ. eigenvalues --   -0.87608  -0.80572  -0.71435  -0.68369  -0.66324
 Alpha  occ. eigenvalues --   -0.63135  -0.61304  -0.57545  -0.54397  -0.49520
 Alpha  occ. eigenvalues --   -0.48749  -0.48033  -0.45127  -0.42514  -0.39540
 Alpha  occ. eigenvalues --   -0.38908  -0.36966  -0.35729  -0.34014  -0.31822
 Alpha  occ. eigenvalues --   -0.30862  -0.29544  -0.28940  -0.27800  -0.24329
 Alpha  occ. eigenvalues --   -0.24255  -0.23717  -0.22706  -0.21975  -0.21290
 Alpha  occ. eigenvalues --   -0.19835  -0.18376  -0.18249  -0.16974  -0.15338
 Alpha  occ. eigenvalues --   -0.14489  -0.11615  -0.08464  -0.03765   0.03382
 Alpha virt. eigenvalues --    0.06017   0.08678   0.08970   0.09384   0.09649
 Alpha virt. eigenvalues --    0.10573   0.10829   0.11187   0.12083   0.12631
 Alpha virt. eigenvalues --    0.13331   0.13728   0.13902   0.14908   0.15594

  Beta  occ. eigenvalues --  -88.76903 -14.24672 -14.19140 -10.16360 -10.08826
  Beta  occ. eigenvalues --  -10.06693 -10.02268 -10.02252 -10.01504 -10.01381
  Beta  occ. eigenvalues --  -10.01199 -10.00483 -10.00479 -10.00427 -10.00244
  Beta  occ. eigenvalues --  -10.00139  -7.85556  -5.81854  -5.81514  -5.81107
  Beta  occ. eigenvalues --   -0.87606  -0.80570  -0.70999  -0.68381  -0.65854
  Beta  occ. eigenvalues --   -0.62863  -0.60922  -0.56885  -0.54339  -0.49354
  Beta  occ. eigenvalues --   -0.48546  -0.47427  -0.45050  -0.42454  -0.39511
  Beta  occ. eigenvalues --   -0.38628  -0.36841  -0.35410  -0.33799  -0.31802
  Beta  occ. eigenvalues --   -0.30720  -0.29500  -0.28813  -0.27695  -0.24204
  Beta  occ. eigenvalues --   -0.23778  -0.23499  -0.22412  -0.21380  -0.21038
  Beta  occ. eigenvalues --   -0.19747  -0.18127  -0.17713  -0.16319  -0.15202
  Beta  occ. eigenvalues --   -0.13173  -0.11122  -0.06410  -0.03619
  Beta virt. eigenvalues --    0.06008   0.08690   0.08993   0.09356   0.09620
  Beta virt. eigenvalues --    0.09847   0.10566   0.10943   0.11161   0.12072
  Beta virt. eigenvalues --    0.12593   0.13346   0.13695   0.13941   0.14890

 Mulliken charges and spin densities:
               1          2
     1  C   -0.276254   0.360615
     2  C   -0.248573  -0.050983
     3  C   -0.163838   0.263856
     4  C    0.198877   0.103969
     5  C   -0.409356  -0.066868
     6  C   -0.526754   0.228733
     7  C    0.311654  -0.030846
     8  C    0.201751   0.048812
     9  C   -0.456868   0.317868
    10  C   -0.134767  -0.098208
    11  C   -1.264615   0.000895
    12  C    0.672822  -0.003794
    13  S   -0.524622  -0.001477
    14  C    0.411338   0.001335
    15  N    0.081579  -0.001452
    16  N   -0.262197   0.000693
    17  H    0.090972  -0.029686
    18  H    0.110193   0.004820
    19  H    0.065678  -0.018977
    20  H    0.085260   0.001601
    21  H    0.018701  -0.017955
    22  H    0.132606  -0.024405
    23  H    0.122275   0.007896
    24  H    0.278343   0.002324
    25  H    0.235404   0.000059
    26  H    0.250389   0.001175
 Sum of Mulliken charges =  -1.00000   1.00000

 Dipole moment (field-independent basis, Debye):
    X=             -7.6101    Y=             -1.4998    Z=              0.9487  Tot=              7.8143
 Quadrupole moment (field-independent basis, Debye-Ang):
   XX=           -135.8173   YY=           -110.4828   ZZ=           -114.2780
   XY=              8.5064   XZ=             -4.4498   YZ=             -3.7828

 Summary of Natural Population Analysis:

                                       Natural Population
                Natural  -----------------------------------------------
    Atom  No    Charge         Core      Valence    Rydberg      Total
 -----------------------------------------------------------------------
      C    1    0.00342      0.99957     1.98776    0.00925     2.99658
      C    2   -0.13684      0.99958     2.12730    0.00996     3.13684
      C    3   -0.01195      0.99953     2.00358    0.00884     3.01195
      C    4    0.01363      0.99951     1.97740    0.00946     2.98637
      C    5   -0.14769      0.99953     2.13793    0.01023     3.14769
      C    6   -0.03907      0.99957     2.03100    0.00850     3.03907
      C    7   -0.08267      0.99937     2.06971    0.01359     3.08267
      C    8    0.01092      0.99941     1.98142    0.00825     2.98908
      C    9    0.00567      0.99945     1.98661    0.00827     2.99433
      C   10   -0.14443      0.99959     2.13498    0.00986     3.14443
      C   11    0.07776      0.99948     1.91059    0.01218     2.92224
      C   12   -0.23117      0.99942     2.22170    0.01005     3.23117
      S   13    0.12894      4.99946     2.84875    0.02284     7.87106
      C   14    0.13027      0.99964     1.85097    0.01912     2.86973
      N   15   -0.26680      0.99961     2.75430    0.01289     3.76680
      N   16   -0.40498      0.99969     2.89509    0.01021     3.90498
      H   17    0.07853      0.00000     0.41969    0.00178     0.42147
      H   18    0.08602      0.00000     0.41231    0.00167     0.41398
      H   19    0.08270      0.00000     0.41562    0.00168     0.41730
      H   20    0.08964      0.00000     0.40887    0.00149     0.41036
      H   21    0.08450      0.00000     0.41468    0.00082     0.41550
      H   22    0.10100      0.00000     0.39716    0.00185     0.39900
      H   23    0.08610      0.00000     0.41229    0.00162     0.41390
      H   24    0.11001      0.00000     0.38896    0.00103     0.38999
      H   25    0.18464      0.00000     0.31396    0.00140     0.31536
      H   26    0.19329      0.00000     0.30512    0.00159     0.30671
 =======================================================================
   * Total *    0.00143     19.99242    38.80773    0.19843    58.99857

 Normal termination of Gaussian 16 at Thu Dec 10 21:38:29 2020.
