 Gaussian 16, Revision A.03,

 -----------------------------------------------------------
 # opt freq B3LYP/6-31G(d) empiricaldispersion=gd3bj scf=xqc
 -----------------------------------------------------------

 -------------------------------
 CID_103285921_JID_5597_neutraal
 -------------------------------
 Symbolic Z-matrix:
 Charge =  0 Multiplicity = 1

 SCF Done:  E(RB3LYP) =  -693.600887290     A.U. after   14 cycles
 SCF Done:  E(RB3LYP) =  -693.605339688     A.U. after   12 cycles
 SCF Done:  E(RB3LYP) =  -693.607263811     A.U. after   12 cycles
 SCF Done:  E(RB3LYP) =  -693.608654718     A.U. after   12 cycles
 SCF Done:  E(RB3LYP) =  -693.609276040     A.U. after   12 cycles
 SCF Done:  E(RB3LYP) =  -693.609222998     A.U. after   12 cycles
 SCF Done:  E(RB3LYP) =  -693.609715689     A.U. after   12 cycles
 SCF Done:  E(RB3LYP) =  -693.609824481     A.U. after   11 cycles
 SCF Done:  E(RB3LYP) =  -693.609868196     A.U. after   10 cycles
 SCF Done:  E(RB3LYP) =  -693.609901028     A.U. after   10 cycles
 SCF Done:  E(RB3LYP) =  -693.609975195     A.U. after   10 cycles
 SCF Done:  E(RB3LYP) =  -693.609975769     A.U. after    9 cycles
 SCF Done:  E(RB3LYP) =  -693.609975890     A.U. after    7 cycles
 SCF Done:  E(RB3LYP) =  -693.609975910     A.U. after    6 cycles
 Optimization completed.
    -- Stationary point found.
 Normal termination of Gaussian 16 at Thu Dec 10 16:38:26 2020.

 --------------------------------------------------------------------
 #N Geom=AllCheck Guess=TCheck SCRF=Check GenChk RB3LYP/6-31G(d) Freq
 --------------------------------------------------------------------

 Structure from the checkpoint file:  "JID_5597.chk"
 -------------------------------
 CID_103285921_JID_5597_neutraal
 -------------------------------
 Charge =  0 Multiplicity = 1

 SCF Done:  E(RB3LYP) =  -693.609975910     A.U. after    1 cycles

  Exact polarizability: 165.020  -3.150 125.253  -3.247  -1.681 118.339
 Approx polarizability: 202.324  -6.564 182.194  -8.282  -1.509 174.756

                      1                      2                      3
                      A                      A                      A
 Frequencies --     15.4970                35.1504                46.2737
 Red. masses --      3.9131                 4.8195                 3.3815
 Frc consts  --      0.0006                 0.0035                 0.0043
 IR Inten    --      0.6538                 1.1176                 0.2838

                      4                      5                      6
                      A                      A                      A
 Frequencies --     64.5085                73.2253               104.8525
 Red. masses --      2.8924                 3.3206                 3.6102
 Frc consts  --      0.0071                 0.0105                 0.0234
 IR Inten    --      1.4165                 1.5281                 0.7613

                      7                      8                      9
                      A                      A                      A
 Frequencies --    123.3556               133.0909               170.4007
 Red. masses --      4.2224                 2.5580                 2.3251
 Frc consts  --      0.0379                 0.0267                 0.0398
 IR Inten    --      2.6178                 0.3183                 0.2089

                     10                     11                     12
                      A                      A                      A
 Frequencies --    191.6159               212.9280               223.6865
 Red. masses --      1.6444                 1.6763                 2.6991
 Frc consts  --      0.0356                 0.0448                 0.0796
 IR Inten    --      0.2932                 1.2496                 1.6527

                     13                     14                     15
                      A                      A                      A
 Frequencies --    230.6407               242.9799               263.5395
 Red. masses --      1.3809                 1.0959                 1.8364
 Frc consts  --      0.0433                 0.0381                 0.0751
 IR Inten    --      1.5644                 0.2876                 1.8392

                     16                     17                     18
                      A                      A                      A
 Frequencies --    268.7707               300.5274               302.5456
 Red. masses --      1.9864                 1.9205                 1.7123
 Frc consts  --      0.0845                 0.1022                 0.0923
 IR Inten    --      0.4359                 6.2756                 0.8961

                     19                     20                     21
                      A                      A                      A
 Frequencies --    309.8009               342.0451               362.5956
 Red. masses --      2.4121                 1.3664                 2.1414
 Frc consts  --      0.1364                 0.0942                 0.1659
 IR Inten    --      1.8346                 9.2423                 3.1153

                     22                     23                     24
                      A                      A                      A
 Frequencies --    394.9839               411.6518               428.8422
 Red. masses --      2.7819                 2.2935                 1.8676
 Frc consts  --      0.2557                 0.2290                 0.2024
 IR Inten    --      3.7165                 7.2609                 1.1479

                     25                     26                     27
                      A                      A                      A
 Frequencies --    439.4142               502.3262               531.0015
 Red. masses --      2.8190                 2.8609                 4.0251
 Frc consts  --      0.3207                 0.4253                 0.6687
 IR Inten    --      1.2496                 6.0011                 4.2275

                     28                     29                     30
                      A                      A                      A
 Frequencies --    555.0459               616.5668               673.8417
 Red. masses --      3.7191                 1.7318                 2.8729
 Frc consts  --      0.6751                 0.3879                 0.7686
 IR Inten    --      2.4875                77.3496                39.7094

                     31                     32                     33
                      A                      A                      A
 Frequencies --    696.4983               758.6953               759.8908
 Red. masses --      2.1446                 3.2594                 1.6861
 Frc consts  --      0.6130                 1.1054                 0.5736
 IR Inten    --     42.9048                 3.6891                 9.7316

                     34                     35                     36
                      A                      A                      A
 Frequencies --    851.5819               863.5937               879.0939
 Red. masses --      1.9890                 2.0367                 2.3238
 Frc consts  --      0.8498                 0.8949                 1.0581
 IR Inten    --      1.7420                 0.8257                 5.4311

                     37                     38                     39
                      A                      A                      A
 Frequencies --    899.7839               919.0690               929.3480
 Red. masses --      1.5722                 1.4723                 1.4792
 Frc consts  --      0.7500                 0.7327                 0.7527
 IR Inten    --      1.6402               242.3265                 5.2038

                     40                     41                     42
                      A                      A                      A
 Frequencies --    953.7580               957.3627               966.6497
 Red. masses --      1.8911                 1.6182                 1.4388
 Frc consts  --      1.0135                 0.8739                 0.7921
 IR Inten    --      7.1416                 0.0673                 2.2383

                     43                     44                     45
                      A                      A                      A
 Frequencies --   1003.3802              1035.5753              1048.2056
 Red. masses --      2.3401                 1.3402                 1.5639
 Frc consts  --      1.3881                 0.8468                 1.0124
 IR Inten    --     17.5305                 0.9673                 9.3578

                     46                     47                     48
                      A                      A                      A
 Frequencies --   1054.1148              1058.7542              1087.4329
 Red. masses --      1.5263                 1.5634                 2.5749
 Frc consts  --      0.9992                 1.0325                 1.7939
 IR Inten    --      1.1060                 4.2179                 7.1009

                     49                     50                     51
                      A                      A                      A
 Frequencies --   1157.0831              1166.8599              1183.5692
 Red. masses --      4.2819                 2.4067                 2.2684
 Frc consts  --      3.3776                 1.9306                 1.8722
 IR Inten    --    201.2916                26.5443                13.0339

                     52                     53                     54
                      A                      A                      A
 Frequencies --   1198.1679              1202.0959              1205.6091
 Red. masses --      2.3306                 2.7177                 2.5795
 Frc consts  --      1.9713                 2.3138                 2.2090
 IR Inten    --      3.5474                 6.2041                 6.1897

                     55                     56                     57
                      A                      A                      A
 Frequencies --   1245.0547              1262.8496              1281.1703
 Red. masses --      1.9968                 2.8143                 1.3846
 Frc consts  --      1.8238                 2.6444                 1.3390
 IR Inten    --      0.2183                12.8914                10.7418

                     58                     59                     60
                      A                      A                      A
 Frequencies --   1301.8823              1316.6782              1328.5455
 Red. masses --      1.2654                 1.3222                 1.1875
 Frc consts  --      1.2637                 1.3505                 1.2349
 IR Inten    --      9.0323                16.4680                 9.2874

                     61                     62                     63
                      A                      A                      A
 Frequencies --   1339.0937              1352.1221              1388.9413
 Red. masses --      1.1620                 1.2053                 1.4512
 Frc consts  --      1.2276                 1.2983                 1.6494
 IR Inten    --      0.3327                 1.1335                21.6742

                     64                     65                     66
                      A                      A                      A
 Frequencies --   1391.1369              1409.3316              1409.8338
 Red. masses --      3.3794                 1.3577                 1.3454
 Frc consts  --      3.8533                 1.5888                 1.5755
 IR Inten    --    134.6898                 1.8627                 2.9687

                     67                     68                     69
                      A                      A                      A
 Frequencies --   1425.7319              1427.9212              1432.0215
 Red. masses --      1.2343                 1.3073                 1.3254
 Frc consts  --      1.4783                 1.5705                 1.6014
 IR Inten    --     15.3271                19.3897                 1.0636

                     70                     71                     72
                      A                      A                      A
 Frequencies --   1442.9445              1450.1472              1460.0929
 Red. masses --      1.2649                 1.2705                 1.2901
 Frc consts  --      1.5516                 1.5742                 1.6205
 IR Inten    --      4.7477                23.3371                 1.4233

                     73                     74                     75
                      A                      A                      A
 Frequencies --   1468.7156              1509.6837              1516.5089
 Red. masses --      1.3656                 1.0827                 1.0745
 Frc consts  --      1.7356                 1.4538                 1.4559
 IR Inten    --     13.5557                 0.1009                 4.0806

                     76                     77                     78
                      A                      A                      A
 Frequencies --   1519.4987              1521.1976              1523.3982
 Red. masses --      1.0480                 1.0546                 1.0635
 Frc consts  --      1.4257                 1.4378                 1.4542
 IR Inten    --      0.1009                 1.3109                 1.8650

                     79                     80                     81
                      A                      A                      A
 Frequencies --   1528.0231              1531.9970              1534.2634
 Red. masses --      1.0625                 1.0721                 1.0510
 Frc consts  --      1.4616                 1.4825                 1.4577
 IR Inten    --      1.9457                 3.6802                 1.8804

                     82                     83                     84
                      A                      A                      A
 Frequencies --   1538.4849              1539.3346              1545.3248
 Red. masses --      1.0535                 1.0601                 1.0678
 Frc consts  --      1.4691                 1.4800                 1.5024
 IR Inten    --      6.8010                 8.4290                13.7841

                     85                     86                     87
                      A                      A                      A
 Frequencies --   1549.2129              1724.9365              1756.0092
 Red. masses --      1.0655                 1.0697                 7.8606
 Frc consts  --      1.5067                 1.8752                14.2811
 IR Inten    --     25.0838                32.0832               261.6147

                     88                     89                     90
                      A                      A                      A
 Frequencies --   2972.1314              2978.9566              3009.1804
 Red. masses --      1.0701                 1.0702                 1.0598
 Frc consts  --      5.5695                 5.5957                 5.6544
 IR Inten    --     16.7357                90.1099                44.7989

                     91                     92                     93
                      A                      A                      A
 Frequencies --   3029.7228              3039.7342              3040.4527
 Red. masses --      1.0816                 1.0622                 1.0537
 Frc consts  --      5.8497                 5.7825                 5.7393
 IR Inten    --      4.6342                23.2804                 4.3674

                     94                     95                     96
                      A                      A                      A
 Frequencies --   3044.4262              3048.7725              3049.9239
 Red. masses --      1.0427                 1.0353                 1.0870
 Frc consts  --      5.6943                 5.6699                 5.9574
 IR Inten    --     13.3074                28.6063                60.5929

                     97                     98                     99
                      A                      A                      A
 Frequencies --   3066.6011              3073.4673              3079.9272
 Red. masses --      1.0379                 1.0989                 1.0941
 Frc consts  --      5.7505                 6.1159                 6.1146
 IR Inten    --     24.3744                23.2974                73.3007

                    100                    101                    102
                      A                      A                      A
 Frequencies --   3099.2067              3107.1264              3109.9783
 Red. masses --      1.0895                 1.0993                 1.0973
 Frc consts  --      6.1657                 6.2531                 6.2532
 IR Inten    --     15.8121                27.4920                70.7851

                    103                    104                    105
                      A                      A                      A
 Frequencies --   3111.4955              3118.3267              3126.2827
 Red. masses --      1.1016                 1.1018                 1.0983
 Frc consts  --      6.2836                 6.3124                 6.3245
 IR Inten    --     28.0061                52.4239                40.5608

                    106                    107                    108
                      A                      A                      A
 Frequencies --   3130.6399              3153.2625              3154.8773
 Red. masses --      1.1026                 1.1037                 1.0992
 Frc consts  --      6.3668                 6.4657                 6.4461
 IR Inten    --     20.7575                23.0372                 1.4788

                    109                    110                    111
                      A                      A                      A
 Frequencies --   3475.9550              3573.1639              3583.4308
 Red. masses --      1.0470                 1.0959                 1.0771
 Frc consts  --      7.4529                 8.2440                 8.1494
 IR Inten    --      3.5419                 0.8170                25.8086

 - Thermochemistry -
 -------------------
 Temperature   298.150 Kelvin.  Pressure   1.00000 Atm.
 Atom     1 has atomic number  6 and mass  12.00000

 Molecular mass:   216.18378 amu.
 Principal axes and moments of inertia in atomic units:
                           1         2         3
     Eigenvalues --  1516.142687298.575047583.87702
           X            0.99991  -0.01357  -0.00031
           Y            0.01355   0.99930  -0.03479
           Z            0.00078   0.03479   0.99939
 This molecule is an asymmetric top.
 Rotational symmetry number  1.
 Warning -- assumption of classical behavior for rotation
           may cause significant error
 Rotational temperatures (Kelvin)      0.05713     0.01187     0.01142
 Rotational constants (GHZ):           1.19035     0.24727     0.23797
 Zero-point vibrational energy     930437.5 (Joules/Mol)
                                  222.37991 (Kcal/Mol)
 Warning -- explicit consideration of  29 degrees of freedom as
           vibrations may cause significant error
 Vibrational temperatures:     22.30    50.57    66.58    92.81   105.35
          (Kelvin)            150.86   177.48   191.49   245.17   275.69
                              306.36   321.83   331.84   349.59   379.17
                              386.70   432.39   435.30   445.73   492.13
                              521.69   568.29   592.28   617.01   632.22
                              722.74   763.99   798.59   887.10   969.51
                             1002.11  1091.59  1093.31  1225.24  1242.52
                             1264.82  1294.59  1322.34  1337.12  1372.25
                             1377.43  1390.79  1443.64  1489.96  1508.13
                             1516.64  1523.31  1564.57  1664.78  1678.85
                             1702.89  1723.90  1729.55  1734.60  1791.36
                             1816.96  1843.32  1873.12  1894.41  1911.48
                             1926.66  1945.40  1998.38  2001.54  2027.71
                             2028.44  2051.31  2054.46  2060.36  2076.08
                             2086.44  2100.75  2113.15  2172.10  2181.92
                             2186.22  2188.66  2191.83  2198.48  2204.20
                             2207.46  2213.54  2214.76  2223.38  2228.97
                             2481.80  2526.51  4276.23  4286.05  4329.54
                             4359.10  4373.50  4374.53  4380.25  4386.50
                             4388.16  4412.16  4422.03  4431.33  4459.07
                             4470.46  4474.57  4476.75  4486.58  4498.02
                             4504.29  4536.84  4539.16  5001.12  5140.99
                             5155.76

 Zero-point correction=                           0.354385 (Hartree/Particle)
 Thermal correction to Energy=                    0.372993
 Thermal correction to Enthalpy=                  0.373937
 Thermal correction to Gibbs Free Energy=         0.306709
 Sum of electronic and zero-point Energies=           -693.255591
 Sum of electronic and thermal Energies=              -693.236983
 Sum of electronic and thermal Enthalpies=            -693.236039
 Sum of electronic and thermal Free Energies=         -693.303267

                     E (Thermal)             CV                S
                      KCal/Mol        Cal/Mol-Kelvin    Cal/Mol-Kelvin
 Total                  234.056             68.336            141.492
 Electronic               0.000              0.000              0.000
 Translational            0.889              2.981             42.016
 Rotational               0.889              2.981             32.795
 Vibrational            232.279             62.374             66.681
 Vibration     1          0.593              1.986              7.141
 Vibration     2          0.594              1.982              5.515
 Vibration     3          0.595              1.979              4.971
 Vibration     4          0.597              1.971              4.314
 Vibration     5          0.599              1.967              4.065
 Vibration     6          0.605              1.945              3.362
 Vibration     7          0.610              1.930              3.047
 Vibration     8          0.613              1.920              2.901
 Vibration     9          0.625              1.879              2.431
 Vibration    10          0.634              1.851              2.212
 Vibration    11          0.644              1.821              2.018
 Vibration    12          0.649              1.805              1.929
 Vibration    13          0.652              1.794              1.874
 Vibration    14          0.659              1.774              1.781
 Vibration    15          0.670              1.740              1.638
 Vibration    16          0.673              1.731              1.604
 Vibration    17          0.693              1.673              1.414
 Vibration    18          0.694              1.669              1.403
 Vibration    19          0.699              1.655              1.363
 Vibration    20          0.721              1.591              1.203
 Vibration    21          0.736              1.549              1.111
 Vibration    22          0.762              1.481              0.981
 Vibration    23          0.776              1.445              0.921
 Vibration    24          0.790              1.407              0.862
 Vibration    25          0.799              1.384              0.828
 Vibration    26          0.858              1.245              0.652
 Vibration    27          0.886              1.181              0.585
 Vibration    28          0.910              1.129              0.534
 Vibration    29          0.976              0.997              0.422

 Optimization completed.
    -- Stationary point found.
 Normal termination of Gaussian 16 at Thu Dec 10 16:51:53 2020.

 ----------------------------------------------------------------------
 # B3LYP/6-311++G(d,p) empiricaldispersion=gd3bj scf=xqc pop=npa geom=c
 heck
 ----------------------------------------------------------------------

 ---------------------------------------
 CID_103285921_JID_5597_Energie_neutraal
 ---------------------------------------
 Structure from the checkpoint file:  "JID_5597.chk"
 Charge =  0 Multiplicity = 1

 SCF Done:  E(RB3LYP) =  -693.820854586     A.U. after   14 cycles
 Normal termination of Gaussian 16 at Thu Dec 10 16:58:53 2020.

 ----------------------------------------------------------------------
 # B3LYP/6-311++G(d,p) empiricaldispersion=gd3bj scf=xqc pop=npa geom=c
 heck
 ----------------------------------------------------------------------

 -------------------------------------
 CID_103285921_JID_5597_Energie_kation
 -------------------------------------
 Structure from the checkpoint file:  "JID_5597.chk"
 Charge =  1 Multiplicity = 2

 SCF Done:  E(UB3LYP) =  -693.499342299     A.U. after   33 cycles
 SCF Done:  E(UB3LYP) =  -693.499342299     a.u. after    2 cycles
 Normal termination of Gaussian 16 at Thu Dec 10 17:35:08 2020.
 Gaussian 16:  ES64L-G16RevA.03 25-Dec-2016

 ----------------------------------------------------------------------
 # B3LYP/6-311++G(d,p) empiricaldispersion=gd3bj scf=xqc pop=npa geom=c
 heck
 ----------------------------------------------------------------------

 ------------------------------------
 CID_103285921_JID_5597_Energie_anion
 ------------------------------------
 Structure from the checkpoint file:  "JID_5597.chk"
 Charge = -1 Multiplicity = 2

                         Standard orientation:
 ---------------------------------------------------------------------
 Center     Atomic      Atomic             Coordinates (Angstroms)
 Number     Number       Type             X           Y           Z
 ---------------------------------------------------------------------
      1          6           0        4.724296   -0.585993   -1.482161
      2          6           0        4.807335   -0.357941    0.029895
      3          6           0        3.726056    0.584268    0.579262
      4          6           0        2.273054    0.134060    0.345460
      5          6           0        1.953830   -1.226181    0.971876
      6          6           0        1.332453    1.217539    0.892229
      7          8           0       -0.049338    0.910105    0.789458
      8          6           0       -0.563456    0.968541   -0.525917
      9          6           0       -2.056748    0.617744   -0.471936
     10          6           0       -2.732864    1.546188    0.556288
     11          6           0       -2.655866    0.834341   -1.877310
     12          6           0       -2.144143   -0.897539   -0.166586
     13          8           0       -1.233251   -1.659739   -0.474112
     14          7           0       -3.266656   -1.433916    0.419245
     15          7           0       -4.547917   -0.888538    0.603126
     16          1           0        3.802209   -1.106602   -1.762726
     17          1           0        5.565673   -1.191889   -1.836499
     18          1           0        4.745993    0.366792   -2.026206
     19          1           0        4.755665   -1.323320    0.548505
     20          1           0        5.789862    0.065226    0.277233
     21          1           0        3.884781    0.711661    1.660384
     22          1           0        3.866775    1.578701    0.129240
     23          1           0        2.110921    0.060018   -0.738299
     24          1           0        2.134123   -1.203673    2.055282
     25          1           0        0.907590   -1.489312    0.799618
     26          1           0        2.577502   -2.018799    0.545542
     27          1           0        1.515054    1.350728    1.965353
     28          1           0        1.538742    2.181473    0.395305
     29          1           0       -0.448803    1.988598   -0.932440
     30          1           0       -0.049301    0.266153   -1.189108
     31          1           0       -2.347867    2.563216    0.424389
     32          1           0       -3.816608    1.595300    0.427785
     33          1           0       -2.501527    1.243458    1.580513
     34          1           0       -2.139639    0.218731   -2.620811
     35          1           0       -3.720360    0.574626   -1.905789
     36          1           0       -2.565128    1.886230   -2.170715
     37          1           0       -3.237008   -2.444947    0.479114
     38          1           0       -4.525714   -0.204542    1.353771
     39          1           0       -4.863908   -0.423748   -0.245402
 ---------------------------------------------------------------------

 SCF Done:  E(UB3LYP) =  -693.809859363     A.U. after   33 cycles
 SCF Done:  E(UB3LYP) =  -693.809859363     a.u. after    1 cycles

 The electronic state is 2-A.
 Alpha  occ. eigenvalues --  -19.02776 -18.99456 -14.26541 -14.24265 -10.17903
 Alpha  occ. eigenvalues --  -10.12115 -10.11651 -10.10281 -10.08041 -10.07921
 Alpha  occ. eigenvalues --  -10.07809 -10.07277 -10.07231 -10.06441 -10.05710
 Alpha  occ. eigenvalues --   -0.95337  -0.94128  -0.88353  -0.73323  -0.72090
 Alpha  occ. eigenvalues --   -0.70272  -0.67036  -0.60915  -0.59828  -0.59269
 Alpha  occ. eigenvalues --   -0.55887  -0.54087  -0.50749  -0.47442  -0.46225
 Alpha  occ. eigenvalues --   -0.42165  -0.41928  -0.40061  -0.39582  -0.38859
 Alpha  occ. eigenvalues --   -0.37955  -0.36442  -0.34966  -0.33583  -0.33231
 Alpha  occ. eigenvalues --   -0.32473  -0.31614  -0.31127  -0.30827  -0.29085
 Alpha  occ. eigenvalues --   -0.28542  -0.27642  -0.27299  -0.26648  -0.26621
 Alpha  occ. eigenvalues --   -0.25385  -0.24499  -0.24344  -0.23407  -0.22640
 Alpha  occ. eigenvalues --   -0.21405  -0.19679  -0.16879  -0.16319  -0.15671
 Alpha  occ. eigenvalues --    0.04082
 Alpha virt. eigenvalues --    0.05322   0.07066   0.07251   0.07884   0.08135
 Alpha virt. eigenvalues --    0.08332   0.09400   0.09705   0.09840   0.10134
 Alpha virt. eigenvalues --    0.10820   0.11080   0.11319   0.11730   0.12389

  Beta  occ. eigenvalues --  -19.02771 -18.99448 -14.26533 -14.24198 -10.17900
  Beta  occ. eigenvalues --  -10.12109 -10.11640 -10.10277 -10.08029 -10.07918
  Beta  occ. eigenvalues --  -10.07800 -10.07257 -10.07181 -10.06402 -10.05705
  Beta  occ. eigenvalues --   -0.95322  -0.94118  -0.88301  -0.73303  -0.72066
  Beta  occ. eigenvalues --   -0.70178  -0.67014  -0.60881  -0.59753  -0.59243
  Beta  occ. eigenvalues --   -0.55846  -0.54046  -0.50709  -0.47393  -0.46190
  Beta  occ. eigenvalues --   -0.42083  -0.41866  -0.40035  -0.39547  -0.38840
  Beta  occ. eigenvalues --   -0.37930  -0.36417  -0.34944  -0.33555  -0.33199
  Beta  occ. eigenvalues --   -0.32431  -0.31587  -0.31098  -0.30800  -0.29042
  Beta  occ. eigenvalues --   -0.28507  -0.27605  -0.27272  -0.26629  -0.26598
  Beta  occ. eigenvalues --   -0.25359  -0.24472  -0.24310  -0.23387  -0.22621
  Beta  occ. eigenvalues --   -0.21384  -0.19631  -0.16846  -0.16299  -0.15646
  Beta virt. eigenvalues --    0.05844   0.06854   0.07288   0.07625   0.08410
  Beta virt. eigenvalues --    0.08515   0.08664   0.09631   0.09882   0.10024
  Beta virt. eigenvalues --    0.10512   0.11174   0.11238   0.11490   0.12074

 Mulliken charges and spin densities:
               1          2
     1  C    0.179523  -0.767225
     2  C   -0.365256   0.090496
     3  C   -0.193903  -0.139963
     4  C    0.366568   0.189573
     5  C   -0.482341  -0.224564
     6  C    0.071404  -0.391284
     7  O    0.018557   0.020516
     8  C   -0.125050  -0.903212
     9  C   -1.664861   2.600179
    10  C    1.470122  -1.968633
    11  C    1.219715  -1.668340
    12  C   -0.138200  -0.275324
    13  O   -0.273471  -0.003494
    14  N   -0.453220   0.238217
    15  N    0.098682  -0.510280
    16  H   -0.026735   0.185222
    17  H   -0.217422   0.356350
    18  H   -0.005679   0.142122
    19  H    0.113970   0.018916
    20  H   -0.269216   0.426393
    21  H    0.086666   0.030227
    22  H   -0.041552   0.174561
    23  H    0.245927  -0.163678
    24  H    0.034518   0.091945
    25  H    0.326669  -0.102476
    26  H    0.096683   0.023800
    27  H    0.158033   0.000276
    28  H   -0.073987   0.201507
    29  H    0.003749   0.130594
    30  H    0.184024   0.014908
    31  H   -0.122145   0.294051
    32  H   -0.675291   0.848792
    33  H    0.054684   0.139969
    34  H    0.007716   0.147500
    35  H   -0.559680   0.706744
    36  H   -0.304698   0.465762
    37  H    0.283634   0.036729
    38  H   -0.026641   0.285594
    39  H   -0.001497   0.257531
 Sum of Mulliken charges =  -1.00000   1.00000

 Dipole moment (field-independent basis, Debye):
    X=              4.5090    Y=             -1.9690    Z=              2.3536  Tot=              5.4542
 Quadrupole moment (field-independent basis, Debye-Ang):
   XX=           -215.2104   YY=           -132.8664   ZZ=           -128.9780
   XY=             10.2419   XZ=              2.1667   YZ=              0.9114

 Summary of Natural Population Analysis:

                                       Natural Population
                Natural  -----------------------------------------------
    Atom  No    Charge         Core      Valence    Rydberg      Total
 -----------------------------------------------------------------------
      C    1   -0.28882      0.99967     2.28372    0.00543     3.28882
      C    2   -0.19078      0.99964     2.18280    0.00833     3.19078
      C    3   -0.18712      0.99961     2.17799    0.00951     3.18712
      C    4   -0.12947      0.99960     2.12163    0.00824     3.12947
      C    5   -0.29254      0.99964     2.28720    0.00570     3.29254
      C    6   -0.00042      0.99955     1.98817    0.01270     3.00042
      O    7   -0.30277      0.99988     3.29401    0.00889     4.30277
      C    8   -0.00411      0.99952     1.99142    0.01317     3.00411
      C    9   -0.09080      0.99954     2.07695    0.01431     3.09080
      C   10   -0.28875      0.99963     2.28005    0.00907     3.28875
      C   11   -0.28011      0.99962     2.27330    0.00719     3.28011
      C   12    0.35052      0.99960     1.62368    0.02620     2.64948
      O   13   -0.32692      0.99988     3.32123    0.00582     4.32692
      N   14   -0.23455      0.99965     2.72116    0.01373     3.73455
      N   15   -0.31625      0.99977     2.80531    0.01117     3.81625
      H   16    0.09783      0.00000     0.40131    0.00086     0.40217
      H   17    0.09859      0.00000     0.40058    0.00083     0.40141
      H   18    0.09671      0.00000     0.40235    0.00094     0.40329
      H   19    0.09377      0.00000     0.40524    0.00099     0.40623
      H   20    0.09527      0.00000     0.40367    0.00106     0.40473
      H   21    0.09427      0.00000     0.40472    0.00101     0.40573
      H   22    0.09568      0.00000     0.40323    0.00109     0.40432
      H   23    0.09579      0.00000     0.40194    0.00227     0.40421
      H   24    0.09159      0.00000     0.40758    0.00083     0.40841
      H   25    0.11986      0.00000     0.37901    0.00113     0.38014
      H   26    0.09586      0.00000     0.40342    0.00072     0.40414
      H   27    0.08688      0.00000     0.41205    0.00106     0.41312
      H   28    0.07934      0.00000     0.41950    0.00116     0.42066
      H   29    0.07997      0.00000     0.41870    0.00132     0.42003
      H   30    0.09480      0.00000     0.40344    0.00176     0.40520
      H   31    0.10367      0.00000     0.39514    0.00119     0.39633
      H   32    0.10158      0.00000     0.39621    0.00221     0.39842
      H   33    0.10709      0.00000     0.39134    0.00157     0.39291
      H   34    0.10400      0.00000     0.39482    0.00118     0.39600
      H   35    0.10311      0.00000     0.39484    0.00205     0.39689
      H   36    0.10425      0.00000     0.39432    0.00143     0.39575
      H   37    0.18662      0.00000     0.31097    0.00241     0.31338
      H   38    0.17812      0.00000     0.31922    0.00266     0.32188
      H   39    0.17826      0.00000     0.31759    0.00415     0.32174
 =======================================================================
   * Total *    0.00000     14.99479    44.80985    0.19535    60.00000

 Normal termination of Gaussian 16 at Thu Dec 10 18:01:14 2020.
