 Gaussian 16, Revision A.03,

 -----------------------------------------------------------
 # opt freq B3LYP/6-31G(d) empiricaldispersion=gd3bj scf=xqc
 -----------------------------------------------------------

 -------------------------------
 CID_150528658_JID_1357_neutraal
 -------------------------------
 Symbolic Z-matrix:
 Charge =  0 Multiplicity = 1

 SCF Done:  E(RB3LYP) =  -510.164357202     A.U. after   15 cycles
 SCF Done:  E(RB3LYP) =  -510.169191802     A.U. after   14 cycles
 SCF Done:  E(RB3LYP) =  -510.170522336     A.U. after   14 cycles
 SCF Done:  E(RB3LYP) =  -510.171279327     A.U. after   12 cycles
 SCF Done:  E(RB3LYP) =  -510.171709031     A.U. after   12 cycles
 SCF Done:  E(RB3LYP) =  -510.171781033     A.U. after   13 cycles
 SCF Done:  E(RB3LYP) =  -510.172092002     A.U. after   12 cycles
 SCF Done:  E(RB3LYP) =  -510.172271479     A.U. after   13 cycles
 SCF Done:  E(RB3LYP) =  -510.172343527     A.U. after   10 cycles
 SCF Done:  E(RB3LYP) =  -510.172378839     A.U. after   11 cycles
 SCF Done:  E(RB3LYP) =  -510.172388283     A.U. after   11 cycles
 SCF Done:  E(RB3LYP) =  -510.172390650     A.U. after    9 cycles
 SCF Done:  E(RB3LYP) =  -510.172391318     A.U. after    8 cycles
 SCF Done:  E(RB3LYP) =  -510.172391496     A.U. after    9 cycles
 SCF Done:  E(RB3LYP) =  -510.172391593     A.U. after    7 cycles
 Optimization completed.
    -- Stationary point found.

 1\1\GINC-NODE101\FOpt\RB3LYP\6-31G(d)\C6H13N5\VSC10255\08-Dec-2020\0\\
 # opt freq B3LYP/6-31G(d) empiricaldispersion=gd3bj scf=xqc\\CID_15052
 8658_JID_1357_neutraal\\0,1\C,1.0224963505,0.1491683385,0.0098040312\C
 ,0.0708086587,-0.9642782045,0.4542515853\C,0.2645426329,-1.4389687879,
 1.9060662311\N,0.214211768,-0.4208885862,2.9516359476\C,-0.8838379334,
 0.5377974301,2.9843636254\N,-0.208394478,1.8415439061,2.9729060579\C,0
 .9744256298,1.6252774962,3.805718271\C,1.4417256133,0.2376798075,3.328
 6413263\N,2.2281005914,-0.492247947,4.3757502191\N,1.5326765297,-0.990

 Normal termination of Gaussian 16 at Tue Dec  8 19:51:05 2020.

 --------------------------------------------------------------------
 #N Geom=AllCheck Guess=TCheck SCRF=Check GenChk RB3LYP/6-31G(d) Freq
 --------------------------------------------------------------------

 Structure from the checkpoint file:  "JID_1357.chk"
 -------------------------------
 CID_150528658_JID_1357_neutraal
 -------------------------------
 Charge =  0 Multiplicity = 1

 SCF Done:  E(RB3LYP) =  -510.172391593     A.U. after    1 cycles

  Exact polarizability: 106.724   2.263  84.772   8.673   3.809  87.235
 Approx polarizability: 152.774  10.585 116.833  33.457   9.823 156.306

                      1                      2                      3
                      A                      A                      A
 Frequencies --     38.1766                58.8165                66.5762
 Red. masses --      5.9369                 3.9670                 2.8296
 Frc consts  --      0.0051                 0.0081                 0.0074
 IR Inten    --      0.0985                 0.4904                 0.4561

                      4                      5                      6
                      A                      A                      A
 Frequencies --    104.6099               138.8777               209.1533
 Red. masses --      4.6476                 3.4239                 2.8101
 Frc consts  --      0.0300                 0.0389                 0.0724
 IR Inten    --      1.6704                 0.6596                 1.8043

                      7                      8                      9
                      A                      A                      A
 Frequencies --    261.0610               278.3648               305.3496
 Red. masses --      3.0406                 1.4743                 2.6689
 Frc consts  --      0.1221                 0.0673                 0.1466
 IR Inten    --      2.0859                 0.3824                 4.4006

                     10                     11                     12
                      A                      A                      A
 Frequencies --    316.9116               398.7000               427.7964
 Red. masses --      1.4332                 2.5812                 6.0047
 Frc consts  --      0.0848                 0.2418                 0.6475
 IR Inten    --      2.4867                 0.6669                 0.6193

                     13                     14                     15
                      A                      A                      A
 Frequencies --    496.3370               580.3270               603.2778
 Red. masses --      2.9618                11.9685                 2.8057
 Frc consts  --      0.4299                 2.3748                 0.6016
 IR Inten    --      4.5472                14.4613                 1.8317

                     16                     17                     18
                      A                      A                      A
 Frequencies --    624.0240               739.5545               778.4677
 Red. masses --      2.8151                 4.4031                 2.4815
 Frc consts  --      0.6459                 1.4189                 0.8860
 IR Inten    --     22.4479                 9.7014                96.7501

                     19                     20                     21
                      A                      A                      A
 Frequencies --    801.5436               857.5536               899.8830
 Red. masses --      1.4899                 2.8063                 1.6576
 Frc consts  --      0.5640                 1.2159                 0.7909
 IR Inten    --     38.6657                27.1334                 2.7573

                     22                     23                     24
                      A                      A                      A
 Frequencies --    908.5429               934.2887               987.1338
 Red. masses --      2.1596                 3.5145                 1.8215
 Frc consts  --      1.0503                 1.8075                 1.0458
 IR Inten    --     27.0692                54.0104                16.2433

                     25                     26                     27
                      A                      A                      A
 Frequencies --   1000.9138              1035.4813              1058.8638
 Red. masses --      2.4537                 1.7374                 2.1973
 Frc consts  --      1.4483                 1.0976                 1.4515
 IR Inten    --     22.8090                11.6136                 3.0088

                     28                     29                     30
                      A                      A                      A
 Frequencies --   1101.8479              1119.6043              1123.6259
 Red. masses --      2.4791                 2.0024                 1.7700
 Frc consts  --      1.7733                 1.4789                 1.3166
 IR Inten    --     19.8348                 9.3698                21.5696

                     31                     32                     33
                      A                      A                      A
 Frequencies --   1134.5673              1179.7870              1231.3887
 Red. masses --      2.3642                 1.3173                 2.1853
 Frc consts  --      1.7931                 1.0803                 1.9523
 IR Inten    --      2.2030                35.3084                35.4094

                     34                     35                     36
                      A                      A                      A
 Frequencies --   1254.8948              1277.2113              1294.3765
 Red. masses --      1.3563                 2.0134                 1.9734
 Frc consts  --      1.2584                 1.9351                 1.9480
 IR Inten    --     14.3772                73.9966                45.7282

                     37                     38                     39
                      A                      A                      A
 Frequencies --   1303.1277              1318.9108              1356.1977
 Red. masses --      1.4018                 1.2276                 1.6161
 Frc consts  --      1.4025                 1.2582                 1.7513
 IR Inten    --     56.8474                 2.6811                34.6791

                     40                     41                     42
                      A                      A                      A
 Frequencies --   1370.9260              1400.1775              1408.5842
 Red. masses --      1.5454                 1.3746                 1.3116
 Frc consts  --      1.7112                 1.5878                 1.5332
 IR Inten    --     33.6555                12.1108                 8.4416

                     43                     44                     45
                      A                      A                      A
 Frequencies --   1424.8741              1441.9589              1447.6423
 Red. masses --      1.3266                 1.4407                 1.2703
 Frc consts  --      1.5869                 1.7650                 1.5685
 IR Inten    --     13.7806                15.4929                13.8694

                     46                     47                     48
                      A                      A                      A
 Frequencies --   1458.7090              1517.0918              1524.6264
 Red. masses --      1.3711                 1.0762                 1.0777
 Frc consts  --      1.7190                 1.4594                 1.4759
 IR Inten    --      2.7848                 3.4832                 0.6704

                     49                     50                     51
                      A                      A                      A
 Frequencies --   1535.3748              1540.7160              1552.7049
 Red. masses --      1.0548                 1.0941                 1.0519
 Frc consts  --      1.4650                 1.5302                 1.4942
 IR Inten    --      8.1763                 2.9715                 8.3449

                     52                     53                     54
                      A                      A                      A
 Frequencies --   1576.6798              2262.2832              2930.3616
 Red. masses --      1.0943                13.8930                 1.0759
 Frc consts  --      1.6027                41.8928                 5.4434
 IR Inten    --      0.7579               450.4277               110.5792

                     55                     56                     57
                      A                      A                      A
 Frequencies --   2968.9094              3031.5538              3041.6829
 Red. masses --      1.0731                 1.0642                 1.0633
 Frc consts  --      5.5728                 5.7624                 5.7959
 IR Inten    --     66.9319                15.5124                47.7803

                     58                     59                     60
                      A                      A                      A
 Frequencies --   3043.6010              3063.2730              3084.3845
 Red. masses --      1.0383                 1.1009                 1.0902
 Frc consts  --      5.6671                 6.0865                 6.1105
 IR Inten    --     24.8324                33.5349                12.2842

                     61                     62                     63
                      A                      A                      A
 Frequencies --   3090.4416              3099.5189              3109.4710
 Red. masses --      1.0954                 1.0881                 1.0992
 Frc consts  --      6.1643                 6.1590                 6.2621
 IR Inten    --     41.9304                32.5763                51.3532

                     64                     65                     66
                      A                      A                      A
 Frequencies --   3122.3379              3127.7464              3498.9188
 Red. masses --      1.0918                 1.1025                 1.0746
 Frc consts  --      6.2711                 6.3546                 7.7514
 IR Inten    --     36.5924                15.9711                 1.2763

 - Thermochemistry -
 -------------------
 Temperature   298.150 Kelvin.  Pressure   1.00000 Atm.
 Atom     1 has atomic number  6 and mass  12.00000

 Molecular mass:   155.11710 amu.
 Principal axes and moments of inertia in atomic units:
                           1         2         3
     Eigenvalues --  1068.367842218.843162583.72477
           X            0.99901  -0.04418   0.00585
           Y            0.04417   0.99902   0.00174
           Z           -0.00592  -0.00148   0.99998
 This molecule is an asymmetric top.
 Rotational symmetry number  1.
 Warning -- assumption of classical behavior for rotation
           may cause significant error
 Rotational temperatures (Kelvin)      0.08107     0.03904     0.03352
 Rotational constants (GHZ):           1.68925     0.81337     0.69850
 Zero-point vibrational energy     545979.7 (Joules/Mol)
                                  130.49228 (Kcal/Mol)
 Warning -- explicit consideration of  15 degrees of freedom as
           vibrations may cause significant error
 Vibrational temperatures:     54.93    84.62    95.79   150.51   199.81
          (Kelvin)            300.92   375.61   400.50   439.33   455.97
                              573.64   615.50   714.12   834.96   867.98
                              897.83  1064.05  1120.04  1153.24  1233.83
                             1294.73  1307.19  1344.23  1420.27  1440.09
                             1489.83  1523.47  1585.31  1610.86  1616.65
                             1632.39  1697.45  1771.69  1805.51  1837.62
                             1862.32  1874.91  1897.62  1951.27  1972.46
                             2014.54  2026.64  2050.08  2074.66  2082.83
                             2098.76  2182.76  2193.60  2209.06  2216.75
                             2234.00  2268.49  3254.92  4216.14  4271.60
                             4361.73  4376.30  4379.06  4407.37  4437.74
                             4446.46  4459.52  4473.84  4492.35  4500.13
                             5034.16

 Zero-point correction=                           0.207953 (Hartree/Particle)
 Thermal correction to Energy=                    0.219107
 Thermal correction to Enthalpy=                  0.220051
 Thermal correction to Gibbs Free Energy=         0.169895
 Sum of electronic and zero-point Energies=           -509.964439
 Sum of electronic and thermal Energies=              -509.953285
 Sum of electronic and thermal Enthalpies=            -509.952341
 Sum of electronic and thermal Free Energies=         -510.002497

                     E (Thermal)             CV                S
                      KCal/Mol        Cal/Mol-Kelvin    Cal/Mol-Kelvin
 Total                  137.492             40.511            105.563
 Electronic               0.000              0.000              0.000
 Translational            0.889              2.981             41.027
 Rotational               0.889              2.981             30.194
 Vibrational            135.714             34.550             34.342
 Vibration     1          0.594              1.982              5.352
 Vibration     2          0.596              1.974              4.497
 Vibration     3          0.598              1.970              4.252
 Vibration     4          0.605              1.946              3.367
 Vibration     5          0.614              1.914              2.819
 Vibration     6          0.642              1.827              2.051
 Vibration     7          0.669              1.744              1.655
 Vibration     8          0.679              1.714              1.544
 Vibration     9          0.696              1.664              1.387
 Vibration    10          0.704              1.641              1.326
 Vibration    11          0.765              1.473              0.967
 Vibration    12          0.789              1.410              0.866
 Vibration    13          0.852              1.258              0.667
 Vibration    14          0.937              1.074              0.485
 Vibration    15          0.962              1.025              0.444

 Optimization completed.
    -- Stationary point found.

 1\1\GINC-NODE101\Freq\RB3LYP\6-31G(d)\C6H13N5\VSC10255\08-Dec-2020\0\\
 #N Geom=AllCheck Guess=TCheck SCRF=Check GenChk RB3LYP/6-31G(d) Freq\\
 CID_150528658_JID_1357_neutraal\\0,1\C,1.0224963505,0.1491683385,0.009
 8040312\C,0.0708086587,-0.9642782045,0.4542515853\C,0.2645426329,-1.43
 89687879,1.9060662311\N,0.214211768,-0.4208885862,2.9516359476\C,-0.88
 38379334,0.5377974301,2.9843636254\N,-0.208394478,1.8415439061,2.97290
 60579\C,0.9744256298,1.6252774962,3.805718271\C,1.4417256133,0.2376798
 075,3.3286413263\N,2.2281005914,-0.492247947,4.3757502191\N,1.53267652

 Normal termination of Gaussian 16 at Tue Dec  8 19:56:39 2020.

 ----------------------------------------------------------------------
 # B3LYP/6-311++G(d,p) empiricaldispersion=gd3bj scf=xqc pop=npa geom=c
 heck
 ----------------------------------------------------------------------

 ---------------------------------------
 CID_150528658_JID_1357_Energie_neutraal
 ---------------------------------------
 Structure from the checkpoint file:  "JID_1357.chk"
 Charge =  0 Multiplicity = 1

 SCF Done:  E(RB3LYP) =  -510.317250043     A.U. after   14 cycles
 Normal termination of Gaussian 16 at Tue Dec  8 19:59:04 2020.

 ----------------------------------------------------------------------
 # B3LYP/6-311++G(d,p) empiricaldispersion=gd3bj scf=xqc pop=npa geom=c
 heck
 ----------------------------------------------------------------------

 -------------------------------------
 CID_150528658_JID_1357_Energie_kation
 -------------------------------------
 Structure from the checkpoint file:  "JID_1357.chk"
 Charge =  1 Multiplicity = 2

 SCF Done:  E(UB3LYP) =  -510.018250625     A.U. after   24 cycles
 Normal termination of Gaussian 16 at Tue Dec  8 20:05:06 2020.
 Gaussian 16:  ES64L-G16RevA.03 25-Dec-2016

 ------------------------------------
 CID_150528658_JID_1357_Energie_anion
 ------------------------------------
 Structure from the checkpoint file:  "JID_1357.chk"
 Charge = -1 Multiplicity = 2

                         Standard orientation:
 ---------------------------------------------------------------------
 Center     Atomic      Atomic             Coordinates (Angstroms)
 Number     Number       Type             X           Y           Z
 ---------------------------------------------------------------------
      1          6           0        2.843588   -0.257412    0.955052
      2          6           0        2.520827   -1.031869   -0.325201
      3          6           0        1.027128   -1.341387   -0.534227
      4          7           0        0.102028   -0.212143   -0.499067
      5          6           0        0.379706    0.983397   -1.286114
      6          7           0        0.354425    2.066519   -0.294994
      7          6           0       -0.723894    1.678249    0.613788
      8          6           0       -0.470567    0.167357    0.770086
      9          7           0       -1.715790   -0.587465    1.126851
     10          7           0       -2.476415   -0.775642    0.172881
     11          7           0       -3.227098   -1.011781   -0.653948
     12          1           0        2.374246    0.731604    0.941994
     13          1           0        3.924703   -0.114549    1.060697
     14          1           0        2.492952   -0.794722    1.845089
     15          1           0        2.907714   -0.476142   -1.189405
     16          1           0        3.051993   -1.993336   -0.330300
     17          1           0        0.906146   -1.865057   -1.491980
     18          1           0        0.683979   -2.040418    0.237336
     19          1           0        1.358872    0.926930   -1.772507
     20          1           0       -0.385008    1.111579   -2.075932
     21          1           0        0.172628    2.969679   -0.729332
     22          1           0       -1.735350    1.830084    0.196782
     23          1           0       -0.660688    2.208630    1.567340
     24          1           0        0.187041   -0.040706    1.617847
 ---------------------------------------------------------------------

 SCF Done:  E(UB3LYP) =  -510.304420563     A.U. after   31 cycles

 The electronic state is 2-A.
 Alpha  occ. eigenvalues --  -14.35063 -14.25210 -14.23224 -14.20002 -14.19362
 Alpha  occ. eigenvalues --  -10.13190 -10.11203 -10.09248 -10.09001 -10.06131
 Alpha  occ. eigenvalues --  -10.04844  -1.01505  -0.87540  -0.84183  -0.76504
 Alpha  occ. eigenvalues --   -0.67142  -0.64687  -0.58589  -0.52816  -0.52161
 Alpha  occ. eigenvalues --   -0.47734  -0.42588  -0.41518  -0.38712  -0.37700
 Alpha  occ. eigenvalues --   -0.37358  -0.34590  -0.33915  -0.32948  -0.32307
 Alpha  occ. eigenvalues --   -0.31647  -0.29283  -0.28093  -0.27561  -0.26502
 Alpha  occ. eigenvalues --   -0.24842  -0.23763  -0.22865  -0.19215  -0.14011
 Alpha  occ. eigenvalues --   -0.13225  -0.10964   0.04804
 Alpha virt. eigenvalues --    0.06995   0.07291   0.08382   0.09008   0.10064
 Alpha virt. eigenvalues --    0.10164   0.10783   0.11420   0.12213   0.12684
 Alpha virt. eigenvalues --    0.13565   0.13878   0.14938   0.15127   0.16359

  Beta  occ. eigenvalues --  -14.34920 -14.24982 -14.23261 -14.20006 -14.19324
  Beta  occ. eigenvalues --  -10.13138 -10.11172 -10.09239 -10.08977 -10.06109
  Beta  occ. eigenvalues --  -10.04813  -1.01209  -0.87458  -0.84076  -0.76460
  Beta  occ. eigenvalues --   -0.67085  -0.64601  -0.58538  -0.52686  -0.52078
  Beta  occ. eigenvalues --   -0.47654  -0.42414  -0.41378  -0.38595  -0.37579
  Beta  occ. eigenvalues --   -0.36922  -0.34456  -0.33805  -0.32675  -0.32161
  Beta  occ. eigenvalues --   -0.31578  -0.29199  -0.28035  -0.27467  -0.26448
  Beta  occ. eigenvalues --   -0.24807  -0.23719  -0.22822  -0.18839  -0.13947
  Beta  occ. eigenvalues --   -0.13173  -0.10927
  Beta virt. eigenvalues --    0.07284   0.08166   0.08568   0.09139   0.09650
  Beta virt. eigenvalues --    0.10504   0.10771   0.11219   0.11748   0.12455
  Beta virt. eigenvalues --    0.12956   0.13868   0.14217   0.15219   0.15482

 Mulliken charges and spin densities:
               1          2
     1  C    0.215908  -0.761747
     2  C    0.039502  -0.186927
     3  C   -0.081798  -0.240432
     4  N    0.143076   0.084256
     5  C    1.181144  -1.526882
     6  N   -0.500102   0.331726
     7  C    1.369615  -1.651088
     8  C   -1.506257   0.720901
     9  N   -0.244162   0.286162
    10  N    0.573529  -0.053522
    11  N   -0.252094  -0.111597
    12  H    0.063397   0.136234
    13  H   -0.488605   0.631239
    14  H    0.086221   0.038103
    15  H    0.073071   0.039880
    16  H   -0.385383   0.528874
    17  H    0.045783   0.112298
    18  H   -0.064643   0.218576
    19  H   -0.286742   0.465226
    20  H   -0.044261   0.191366
    21  H   -0.385605   0.651536
    22  H   -0.115073   0.249708
    23  H   -0.287128   0.472271
    24  H   -0.149395   0.373838
 Sum of Mulliken charges =  -1.00000   1.00000

 Dipole moment (field-independent basis, Debye):
    X=             -1.5448    Y=             -2.8216    Z=              0.2162  Tot=              3.2241
 Quadrupole moment (field-independent basis, Debye-Ang):
   XX=           -123.1010   YY=           -110.4402   ZZ=            -97.2978
   XY=             -2.3292   XZ=             -2.3458   YZ=              3.7786

 Summary of Natural Population Analysis:

                                       Natural Population
                Natural  -----------------------------------------------
    Atom  No    Charge         Core      Valence    Rydberg      Total
 -----------------------------------------------------------------------
      C    1   -0.29395      0.99966     2.28844    0.00585     3.29395
      C    2   -0.19848      0.99964     2.19128    0.00756     3.19848
      C    3   -0.07745      0.99961     2.06617    0.01166     3.07745
      N    4   -0.29241      0.99968     2.78042    0.01230     3.79241
      C    5    0.01845      0.99963     1.96786    0.01405     2.98155
      N    6   -0.34304      0.99975     2.83021    0.01308     3.84304
      C    7   -0.09263      0.99960     2.08064    0.01239     3.09263
      C    8    0.08344      0.99955     1.89976    0.01725     2.91656
      N    9   -0.20543      0.99970     2.69159    0.01414     3.70543
      N   10    0.13077      0.99970     2.35291    0.01662     3.36923
      N   11   -0.03286      0.99982     2.51878    0.01427     3.53286
      H   12    0.10720      0.00000     0.39054    0.00226     0.39280
      H   13    0.09895      0.00000     0.39988    0.00117     0.40105
      H   14    0.09309      0.00000     0.40579    0.00112     0.40691
      H   15    0.09404      0.00000     0.40463    0.00133     0.40596
      H   16    0.09542      0.00000     0.40315    0.00143     0.40458
      H   17    0.09189      0.00000     0.40703    0.00108     0.40811
      H   18    0.09647      0.00000     0.40224    0.00129     0.40353
      H   19    0.09146      0.00000     0.40672    0.00182     0.40854
      H   20    0.07560      0.00000     0.42268    0.00172     0.42440
      H   21    0.18172      0.00000     0.31055    0.00773     0.31828
      H   22    0.08314      0.00000     0.41513    0.00173     0.41686
      H   23    0.10009      0.00000     0.39852    0.00138     0.39991
      H   24    0.09451      0.00000     0.40337    0.00211     0.40549
 =======================================================================
   * Total *    0.00000     10.99634    30.83832    0.16533    42.00000

 Normal termination of Gaussian 16 at Tue Dec  8 20:12:17 2020.
