 Gaussian 16, Revision A.03,

 -----------------------------------------------------------
 # opt freq B3LYP/6-31G(d) empiricaldispersion=gd3bj scf=xqc
 -----------------------------------------------------------

 ------------------------------
 CID_59150778_JID_2790_neutraal
 ------------------------------
 Symbolic Z-matrix:
 Charge =  0 Multiplicity = 1

 SCF Done:  E(RB3LYP) =  -1237.88935928     A.U. after   15 cycles
 SCF Done:  E(RB3LYP) =  -1237.89452091     A.U. after   13 cycles
 SCF Done:  E(RB3LYP) =  -1237.89492611     A.U. after   12 cycles
 SCF Done:  E(RB3LYP) =  -1237.89501920     A.U. after   11 cycles
 SCF Done:  E(RB3LYP) =  -1237.89502600     A.U. after   10 cycles
 SCF Done:  E(RB3LYP) =  -1237.89503621     A.U. after    9 cycles
 SCF Done:  E(RB3LYP) =  -1237.89503670     A.U. after    9 cycles
 SCF Done:  E(RB3LYP) =  -1237.89503735     A.U. after    8 cycles
 SCF Done:  E(RB3LYP) =  -1237.89503752     A.U. after    8 cycles
 SCF Done:  E(RB3LYP) =  -1237.89503755     A.U. after    7 cycles
 Optimization completed.
    -- Stationary point found.
 Normal termination of Gaussian 16 at Wed Dec  9 17:58:38 2020.

 --------------------------------------------------------------------
 #N Geom=AllCheck Guess=TCheck SCRF=Check GenChk RB3LYP/6-31G(d) Freq
 --------------------------------------------------------------------

 Structure from the checkpoint file:  "JID_2790.chk"
 ------------------------------
 CID_59150778_JID_2790_neutraal
 ------------------------------
 Charge =  0 Multiplicity = 1

 SCF Done:  E(RB3LYP) =  -1237.89503755     A.U. after    1 cycles

  Exact polarizability: 194.725  26.398 143.989  -3.112   1.750  72.793
 Approx polarizability: 293.265  72.452 260.924  -6.852   6.312 112.887

                      1                      2                      3
                      A                      A                      A
 Frequencies --     43.0415                60.5683                72.8022
 Red. masses --      2.6707                 2.9526                 3.1332
 Frc consts  --      0.0029                 0.0064                 0.0098
 IR Inten    --      0.1179                 1.2924                 0.9924

                      4                      5                      6
                      A                      A                      A
 Frequencies --     92.0050               134.9363               153.1355
 Red. masses --      9.7410                 4.6905                 5.5281
 Frc consts  --      0.0486                 0.0503                 0.0764
 IR Inten    --      2.0669                 0.1293                 1.9598

                      7                      8                      9
                      A                      A                      A
 Frequencies --    200.6988               222.4798               243.4250
 Red. masses --      2.2447                 1.2096                 3.4484
 Frc consts  --      0.0533                 0.0353                 0.1204
 IR Inten    --      0.1169                 0.5252                 0.2416

                     10                     11                     12
                      A                      A                      A
 Frequencies --    275.9102               298.8209               355.1484
 Red. masses --      4.7229                 1.2384                 2.8400
 Frc consts  --      0.2118                 0.0652                 0.2111
 IR Inten    --      5.7276                 0.0171                 6.8166

                     13                     14                     15
                      A                      A                      A
 Frequencies --    389.2016               401.0340               440.6319
 Red. masses --      4.2701                 5.9077                 4.9482
 Frc consts  --      0.3811                 0.5598                 0.5660
 IR Inten    --      3.5184                 5.4538                 3.2161

                     16                     17                     18
                      A                      A                      A
 Frequencies --    444.6228               524.9431               558.3477
 Red. masses --      8.1145                 5.3877                15.2730
 Frc consts  --      0.9451                 0.8747                 2.8053
 IR Inten    --      1.1771                23.2649                 0.4455

                     19                     20                     21
                      A                      A                      A
 Frequencies --    578.9200               660.8226               725.1655
 Red. masses --      6.6872                 4.8013                 2.3085
 Frc consts  --      1.3205                 1.2353                 0.7152
 IR Inten    --      2.4352                 3.3746                25.3476

                     22                     23                     24
                      A                      A                      A
 Frequencies --    737.8013               774.1174               818.0187
 Red. masses --      2.6872                 1.7298                 1.5410
 Frc consts  --      0.8618                 0.6107                 0.6075
 IR Inten    --      0.2344                 0.1920                13.5465

                     25                     26                     27
                      A                      A                      A
 Frequencies --    870.3686               921.3723               922.9655
 Red. masses --      3.4682                 2.1429                 1.5000
 Frc consts  --      1.5480                 1.0718                 0.7528
 IR Inten    --     46.8114                 3.6123                 2.1862

                     28                     29                     30
                      A                      A                      A
 Frequencies --    999.0549              1023.9258              1050.7141
 Red. masses --      2.7058                 3.4094                 1.8287
 Frc consts  --      1.5912                 2.1060                 1.1895
 IR Inten    --      3.8651                32.0081                19.5369

                     31                     32                     33
                      A                      A                      A
 Frequencies --   1115.0355              1117.5961              1130.0060
 Red. masses --      1.5694                 2.2972                 2.3852
 Frc consts  --      1.1497                 1.6905                 1.7945
 IR Inten    --      1.5766                12.3293                12.2089

                     34                     35                     36
                      A                      A                      A
 Frequencies --   1152.0773              1173.7973              1289.6819
 Red. masses --      3.5613                 2.5068                 2.3399
 Frc consts  --      2.7850                 2.0350                 2.2931
 IR Inten    --     18.6734               168.3864               365.7540

                     37                     38                     39
                      A                      A                      A
 Frequencies --   1309.2396              1352.2952              1362.0489
 Red. masses --      1.1497                 1.3857                 3.6321
 Frc consts  --      1.1612                 1.4930                 3.9700
 IR Inten    --      0.0933                 3.8752               221.5635

                     40                     41                     42
                      A                      A                      A
 Frequencies --   1397.5221              1404.3099              1426.7190
 Red. masses --      1.4592                 1.5197                 1.5879
 Frc consts  --      1.6791                 1.7658                 1.9044
 IR Inten    --    117.8035                 7.4508                93.0005

                     43                     44                     45
                      A                      A                      A
 Frequencies --   1441.7332              1447.2494              1490.7041
 Red. masses --      1.3597                 1.2713                 1.0927
 Frc consts  --      1.6651                 1.5689                 1.4306
 IR Inten    --     17.8476                 2.7813                17.8052

                     46                     47                     48
                      A                      A                      A
 Frequencies --   1503.7205              1523.6545              1532.9043
 Red. masses --      1.1060                 1.0415                 1.0518
 Frc consts  --      1.4734                 1.4245                 1.4562
 IR Inten    --     33.8019                 5.1307                 2.3159

                     49                     50                     51
                      A                      A                      A
 Frequencies --   1535.1821              1538.5185              1703.2066
 Red. masses --      1.0384                 1.0508                 7.3906
 Frc consts  --      1.4420                 1.4654                12.6318
 IR Inten    --      9.3848                14.4688               115.6994

                     52                     53                     54
                      A                      A                      A
 Frequencies --   1800.7887              3014.9368              3032.9968
 Red. masses --     11.9103                 1.0612                 1.0994
 Frc consts  --     22.7561                 5.6832                 5.9586
 IR Inten    --    216.6951                21.8185                12.2531

                     55                     56                     57
                      A                      A                      A
 Frequencies --   3062.3393              3065.3037              3110.5802
 Red. masses --      1.0356                 1.0348                 1.0611
 Frc consts  --      5.7219                 5.7286                 6.0493
 IR Inten    --     10.8981                17.8182                 6.1576

                     58                     59                     60
                      A                      A                      A
 Frequencies --   3128.5092              3135.0670              3137.2151
 Red. masses --      1.1022                 1.1033                 1.1005
 Frc consts  --      6.3559                 6.3893                 6.3814
 IR Inten    --     37.6870                17.6210                23.9678

                     61                     62                     63
                      A                      A                      A
 Frequencies --   3143.6674              3162.7871              3169.7897
 Red. masses --      1.1034                 1.0867                 1.1081
 Frc consts  --      6.4250                 6.4050                 6.5597
 IR Inten    --      9.3483                 0.2864                 3.8850

 - Thermochemistry -
 -------------------
 Temperature   298.150 Kelvin.  Pressure   1.00000 Atm.
 Atom     1 has atomic number  6 and mass  12.00000

 Molecular mass:   201.02821 amu.
 Principal axes and moments of inertia in atomic units:
                           1         2         3
     Eigenvalues --  1568.748863560.043934921.71568
           X            0.99923  -0.03902   0.00321
           Y            0.03904   0.99922  -0.00579
           Z           -0.00298   0.00591   0.99998
 This molecule is an asymmetric top.
 Rotational symmetry number  1.
 Warning -- assumption of classical behavior for rotation
           may cause significant error
 Rotational temperatures (Kelvin)      0.05521     0.02433     0.01760
 Rotational constants (GHZ):           1.15043     0.50694     0.36669
 Zero-point vibrational energy     477945.1 (Joules/Mol)
                                  114.23162 (Kcal/Mol)
 Warning -- explicit consideration of  19 degrees of freedom as
           vibrations may cause significant error
 Vibrational temperatures:     61.93    87.14   104.75   132.37   194.14
          (Kelvin)            220.33   288.76   320.10   350.23   396.97
                              429.94   510.98   559.97   577.00   633.97
                              639.71   755.28   803.34   832.94   950.78
                             1043.35  1061.53  1113.78  1176.95  1252.27
                             1325.65  1327.94  1437.42  1473.20  1511.74
                             1604.29  1607.97  1625.83  1657.58  1688.83
                             1855.56  1883.70  1945.65  1959.68  2010.72
                             2020.49  2052.73  2074.33  2082.27  2144.79
                             2163.52  2192.20  2205.51  2208.78  2213.59
                             2450.53  2590.93  4337.82  4363.81  4406.02
                             4410.29  4475.43  4501.23  4510.66  4513.75
                             4523.04  4550.55  4560.62

 Zero-point correction=                           0.182040 (Hartree/Particle)
 Thermal correction to Energy=                    0.194885
 Thermal correction to Enthalpy=                  0.195829
 Thermal correction to Gibbs Free Energy=         0.141698
 Sum of electronic and zero-point Energies=          -1237.712998
 Sum of electronic and thermal Energies=             -1237.700152
 Sum of electronic and thermal Enthalpies=           -1237.699208
 Sum of electronic and thermal Free Energies=        -1237.753339

                     E (Thermal)             CV                S
                      KCal/Mol        Cal/Mol-Kelvin    Cal/Mol-Kelvin
 Total                  122.292             46.202            113.928
 Electronic               0.000              0.000              0.000
 Translational            0.889              2.981             41.799
 Rotational               0.889              2.981             31.686
 Vibrational            120.515             40.240             40.443
 Vibration     1          0.595              1.980              5.114
 Vibration     2          0.597              1.973              4.439
 Vibration     3          0.599              1.967              4.076
 Vibration     4          0.602              1.955              3.617
 Vibration     5          0.613              1.918              2.874
 Vibration     6          0.619              1.899              2.633
 Vibration     7          0.638              1.839              2.127
 Vibration     8          0.648              1.807              1.939
 Vibration     9          0.659              1.774              1.778
 Vibration    10          0.678              1.718              1.559
 Vibration    11          0.692              1.676              1.423
 Vibration    12          0.731              1.565              1.143
 Vibration    13          0.757              1.493              1.003
 Vibration    14          0.767              1.468              0.959
 Vibration    15          0.801              1.382              0.825
 Vibration    16          0.804              1.373              0.812
 Vibration    17          0.880              1.195              0.599
 Vibration    18          0.914              1.121              0.527
 Vibration    19          0.936              1.077              0.487

                           ! Non-Optimized Parameters !
 Normal termination of Gaussian 16 at Wed Dec  9 18:03:27 2020.

 ----------------------------------------------------------------------
 # B3LYP/6-311++G(d,p) empiricaldispersion=gd3bj scf=xqc pop=npa geom=c
 heck
 ----------------------------------------------------------------------

 --------------------------------------
 CID_59150778_JID_2790_Energie_neutraal
 --------------------------------------
 Structure from the checkpoint file:  "JID_2790.chk"
 Charge =  0 Multiplicity = 1

 SCF Done:  E(RB3LYP) =  -1238.06868666     A.U. after   15 cycles
 Normal termination of Gaussian 16 at Wed Dec  9 18:06:16 2020.

 ----------------------------------------------------------------------
 # B3LYP/6-311++G(d,p) empiricaldispersion=gd3bj scf=xqc pop=npa geom=c
 heck
 ----------------------------------------------------------------------

 ------------------------------------
 CID_59150778_JID_2790_Energie_kation
 ------------------------------------
 Structure from the checkpoint file:  "JID_2790.chk"
 Charge =  1 Multiplicity = 2

 SCF Done:  E(UB3LYP) =  -1237.76199146     A.U. after   32 cycles
 Normal termination of Gaussian 16 at Wed Dec  9 18:13:01 2020.
 Gaussian 16:  ES64L-G16RevA.03 25-Dec-2016

 ----------------------------------------------------------------------
 # B3LYP/6-311++G(d,p) empiricaldispersion=gd3bj scf=xqc pop=npa geom=c
 heck
 ----------------------------------------------------------------------

 -----------------------------------
 CID_59150778_JID_2790_Energie_anion
 -----------------------------------
 Structure from the checkpoint file:  "JID_2790.chk"
 Charge = -1 Multiplicity = 2

                         Standard orientation:
 ---------------------------------------------------------------------
 Center     Atomic      Atomic             Coordinates (Angstroms)
 Number     Number       Type             X           Y           Z
 ---------------------------------------------------------------------
      1          6           0       -3.888802    0.962136    0.254597
      2          6           0       -3.725358   -0.552040    0.114345
      3          6           0       -2.339064   -1.097629   -0.037089
      4          6           0       -1.146750   -0.482269   -0.076579
      5          6           0        0.096208   -1.286692   -0.239279
      6          8           0        0.167982   -2.498032   -0.331419
      7          7           0        1.219928   -0.446220   -0.276137
      8          6           0        1.007250    0.901240   -0.129669
      9         16           0        2.147340    2.090995   -0.107145
     10         16           0       -0.726371    1.239970    0.038114
     11          6           0        2.559858   -1.035354   -0.398523
     12          6           0        3.167947   -1.337473    0.968339
     13          1           0       -3.372087    1.344203    1.140656
     14          1           0       -4.949024    1.214720    0.356741
     15          1           0       -3.506390    1.493058   -0.622835
     16          1           0       -4.178789   -1.056273    0.981565
     17          1           0       -4.310583   -0.910490   -0.746409
     18          1           0       -2.270192   -2.181245   -0.132997
     19          1           0        2.433240   -1.948976   -0.982001
     20          1           0        3.171417   -0.325563   -0.957626
     21          1           0        2.542811   -2.047775    1.517821
     22          1           0        4.161453   -1.779957    0.841232
     23          1           0        3.271549   -0.420853    1.555824
 ---------------------------------------------------------------------

 SCF Done:  E(UB3LYP) =  -1238.10091343     A.U. after   24 cycles

 The electronic state is 2-A.
 Alpha  occ. eigenvalues --  -88.72941 -88.64743 -18.93979 -14.22734 -10.11460
 Alpha  occ. eigenvalues --  -10.10756 -10.08390 -10.06259 -10.05789 -10.05738
 Alpha  occ. eigenvalues --  -10.04905 -10.02567  -7.81561  -7.73541  -5.77888
 Alpha  occ. eigenvalues --   -5.77545  -5.77027  -5.69904  -5.69446  -5.69108
 Alpha  occ. eigenvalues --   -0.90225  -0.82806  -0.70244  -0.67067  -0.62770
 Alpha  occ. eigenvalues --   -0.62221  -0.57691  -0.52424  -0.51761  -0.47649
 Alpha  occ. eigenvalues --   -0.42340  -0.38807  -0.35351  -0.34210  -0.33426
 Alpha  occ. eigenvalues --   -0.32570  -0.31315  -0.30410  -0.28588  -0.26946
 Alpha  occ. eigenvalues --   -0.26073  -0.25209  -0.25037  -0.24485  -0.23610
 Alpha  occ. eigenvalues --   -0.21821  -0.21505  -0.20475  -0.16804  -0.12447
 Alpha  occ. eigenvalues --   -0.11117  -0.08370  -0.07406   0.02743
 Alpha virt. eigenvalues --    0.07776   0.08957   0.10077   0.10931   0.11210
 Alpha virt. eigenvalues --    0.11604   0.11667   0.12519   0.13321   0.14098
 Alpha virt. eigenvalues --    0.14571   0.14811   0.15463   0.15707   0.16308

  Beta  occ. eigenvalues --  -88.72967 -88.64664 -18.93603 -14.22897 -10.11152
  Beta  occ. eigenvalues --  -10.10176 -10.08386 -10.06297 -10.05870 -10.05737
  Beta  occ. eigenvalues --  -10.04911 -10.02064  -7.81583  -7.73471  -5.77914
  Beta  occ. eigenvalues --   -5.77569  -5.77081  -5.69881  -5.69181  -5.69062
  Beta  occ. eigenvalues --   -0.89662  -0.82507  -0.70012  -0.66814  -0.62678
  Beta  occ. eigenvalues --   -0.61707  -0.57241  -0.52325  -0.51639  -0.47105
  Beta  occ. eigenvalues --   -0.42059  -0.38424  -0.35197  -0.33974  -0.33294
  Beta  occ. eigenvalues --   -0.32189  -0.30896  -0.30249  -0.28255  -0.26680
  Beta  occ. eigenvalues --   -0.25530  -0.24962  -0.24717  -0.24336  -0.23442
  Beta  occ. eigenvalues --   -0.21397  -0.20334  -0.19605  -0.16345  -0.12154
  Beta  occ. eigenvalues --   -0.09988  -0.07234  -0.07028
  Beta virt. eigenvalues --    0.07749   0.09001   0.09537   0.10052   0.10976
  Beta virt. eigenvalues --    0.11418   0.11582   0.12500   0.13090   0.13313
  Beta virt. eigenvalues --    0.14080   0.14642   0.15165   0.15541   0.15761

 Mulliken charges and spin densities:
               1          2
     1  C   -0.550532   0.004235
     2  C   -0.686175  -0.029864
     3  C    0.114942   0.406327
     4  C    0.697603  -0.057519
     5  C   -0.307160   0.179068
     6  O   -0.412076   0.141253
     7  N    0.405533  -0.067731
     8  C    0.326706   0.270842
     9  S   -0.843703   0.201148
    10  S   -0.602507  -0.053569
    11  C   -0.251922  -0.017382
    12  C   -0.376022   0.007742
    13  H    0.140729  -0.000830
    14  H    0.123108  -0.000477
    15  H    0.143536  -0.000567
    16  H    0.112936   0.019106
    17  H    0.112033   0.018685
    18  H    0.186461  -0.023756
    19  H    0.168712  -0.001903
    20  H    0.107234  -0.001445
    21  H    0.162868  -0.002517
    22  H    0.098579   0.001079
    23  H    0.129114   0.008077
 Sum of Mulliken charges =  -1.00000   1.00000

 Dipole moment (field-independent basis, Debye):
    X=             -2.5978    Y=             -1.3487    Z=              0.5633  Tot=              2.9807
 Quadrupole moment (field-independent basis, Debye-Ang):
   XX=           -108.5784   YY=           -121.4645   ZZ=            -94.7436
   XY=            -12.2087   XZ=             -0.3337   YZ=             -0.7275

 Summary of Natural Population Analysis:

                                       Natural Population
                Natural  -----------------------------------------------
    Atom  No    Charge         Core      Valence    Rydberg      Total
 -----------------------------------------------------------------------
      C    1   -0.29081      0.99967     2.28656    0.00457     3.29081
      C    2   -0.20641      0.99963     2.20024    0.00654     3.20641
      C    3    0.02861      0.99947     1.96193    0.00999     2.97139
      C    4   -0.17092      0.99937     2.16117    0.01039     3.17092
      C    5    0.37629      0.99959     1.60236    0.02176     2.62371
      O    6   -0.28594      0.99987     3.28020    0.00587     4.28594
      N    7   -0.28017      0.99957     2.76674    0.01386     3.78017
      C    8    0.05501      0.99968     1.92754    0.01777     2.94499
      S    9   -0.08322      4.99949     3.06740    0.01633     8.08322
      S   10    0.13866      4.99942     2.84044    0.02148     7.86134
      C   11   -0.08653      0.99963     2.07702    0.00987     3.08653
      C   12   -0.29216      0.99966     2.28871    0.00378     3.29216
      H   13    0.10033      0.00000     0.39852    0.00115     0.39967
      H   14    0.09131      0.00000     0.40775    0.00094     0.40869
      H   15    0.10039      0.00000     0.39846    0.00115     0.39961
      H   16    0.09837      0.00000     0.40032    0.00131     0.40163
      H   17    0.09832      0.00000     0.40036    0.00132     0.40168
      H   18    0.10076      0.00000     0.39780    0.00144     0.39924
      H   19    0.10421      0.00000     0.39451    0.00128     0.39579
      H   20    0.10555      0.00000     0.39293    0.00152     0.39445
      H   21    0.10140      0.00000     0.39760    0.00100     0.39860
      H   22    0.09103      0.00000     0.40811    0.00086     0.40897
      H   23    0.10593      0.00000     0.39297    0.00110     0.39407
 =======================================================================
   * Total *   -0.00000     19.99505    32.84965    0.15529    53.00000

 Normal termination of Gaussian 16 at Wed Dec  9 18:18:46 2020.
