 Gaussian 16, Revision A.03,

 -----------------------------------------------------------
 # opt freq B3LYP/6-31G(d) empiricaldispersion=gd3bj scf=xqc
 -----------------------------------------------------------

 ------------------------------
 CID_87930735_JID_4555_neutraal
 ------------------------------
 Symbolic Z-matrix:
 Charge =  0 Multiplicity = 1

 SCF Done:  E(RB3LYP) =  -1060.33751830     A.U. after   16 cycles
 SCF Done:  E(RB3LYP) =  -1060.34488869     A.U. after   14 cycles
 SCF Done:  E(RB3LYP) =  -1060.34587252     A.U. after   14 cycles
 SCF Done:  E(RB3LYP) =  -1060.34638331     A.U. after   13 cycles
 SCF Done:  E(RB3LYP) =  -1060.34651050     A.U. after   13 cycles
 SCF Done:  E(RB3LYP) =  -1060.34694255     A.U. after   12 cycles
 SCF Done:  E(RB3LYP) =  -1060.34710153     A.U. after   12 cycles
 SCF Done:  E(RB3LYP) =  -1060.34728606     A.U. after   13 cycles
 SCF Done:  E(RB3LYP) =  -1060.34741156     A.U. after   12 cycles
 SCF Done:  E(RB3LYP) =  -1060.34761450     A.U. after   13 cycles
 SCF Done:  E(RB3LYP) =  -1060.34875180     A.U. after    9 cycles
 SCF Done:  E(RB3LYP) =  -1060.34875248     A.U. after    8 cycles
 SCF Done:  E(RB3LYP) =  -1060.34875267     A.U. after    8 cycles
 SCF Done:  E(RB3LYP) =  -1060.34875279     A.U. after    8 cycles
 SCF Done:  E(RB3LYP) =  -1060.34875283     A.U. after    8 cycles
 Optimization completed.
    -- Stationary point found.
 Normal termination of Gaussian 16 at Thu Dec 10 10:09:03 2020.

 --------------------------------------------------------------------
 #N Geom=AllCheck Guess=TCheck SCRF=Check GenChk RB3LYP/6-31G(d) Freq
 --------------------------------------------------------------------

 Structure from the checkpoint file:  "JID_4555.chk"
 ------------------------------
 CID_87930735_JID_4555_neutraal
 ------------------------------
 Charge =  0 Multiplicity = 1

 SCF Done:  E(RB3LYP) =  -1060.34875283     A.U. after    1 cycles

  Exact polarizability: 180.925  12.127 116.112  20.545  -6.050  76.778
 Approx polarizability: 270.856  33.860 199.096  39.715 -13.412 123.137

                      1                      2                      3
                      A                      A                      A
 Frequencies --     27.8252                38.1493                49.7004
 Red. masses --     10.6181                 6.4341                 7.6953
 Frc consts  --      0.0048                 0.0055                 0.0112
 IR Inten    --      0.7701                 1.4364                 0.9818

                      4                      5                      6
                      A                      A                      A
 Frequencies --     78.9607               118.3655               153.9899
 Red. masses --      5.8058                 2.4571                 1.4784
 Frc consts  --      0.0213                 0.0203                 0.0207
 IR Inten    --      0.2301                 0.5646                 0.9517

                      7                      8                      9
                      A                      A                      A
 Frequencies --    190.6440               208.5046               272.9143
 Red. masses --      3.6963                 4.9527                 5.3987
 Frc consts  --      0.0792                 0.1269                 0.2369
 IR Inten    --      1.4044                 1.6053                 5.1363

                     10                     11                     12
                      A                      A                      A
 Frequencies --    283.8378               335.9648               352.8120
 Red. masses --      5.8405                 3.8202                 4.3752
 Frc consts  --      0.2772                 0.2541                 0.3209
 IR Inten    --     12.6265                 4.8191                 0.9327

                     13                     14                     15
                      A                      A                      A
 Frequencies --    363.5504               391.8058               438.1736
 Red. masses --      5.2901                 3.6590                 4.4886
 Frc consts  --      0.4119                 0.3309                 0.5078
 IR Inten    --      1.5254                 3.3325                 8.6494

                     16                     17                     18
                      A                      A                      A
 Frequencies --    503.1230               517.1974               535.1151
 Red. masses --      3.8982                 2.5085                 5.6340
 Frc consts  --      0.5814                 0.3953                 0.9505
 IR Inten    --      6.4025                29.9322                14.7604

                     19                     20                     21
                      A                      A                      A
 Frequencies --    592.2126               625.2015               646.6400
 Red. masses --      2.9093                 4.1882                 7.4875
 Frc consts  --      0.6012                 0.9645                 1.8446
 IR Inten    --     29.9310                 6.0884                10.3206

                     22                     23                     24
                      A                      A                      A
 Frequencies --    662.4688               690.2487               717.8527
 Red. masses --      3.3653                 1.4120                 6.2082
 Frc consts  --      0.8702                 0.3964                 1.8849
 IR Inten    --    112.4184               110.4382                 7.2983

                     25                     26                     27
                      A                      A                      A
 Frequencies --    727.0602               762.5134               775.8080
 Red. masses --      1.4418                 2.2511                 4.0283
 Frc consts  --      0.4490                 0.7712                 1.4285
 IR Inten    --     65.7923                37.5646                69.9451

                     28                     29                     30
                      A                      A                      A
 Frequencies --    847.9657               853.6745               861.5060
 Red. masses --      3.2010                 1.6757                 3.5862
 Frc consts  --      1.3561                 0.7195                 1.5682
 IR Inten    --     11.7189                31.0954                11.7865

                     31                     32                     33
                      A                      A                      A
 Frequencies --   1009.1978              1083.7737              1127.9128
 Red. masses --      2.5330                 2.3787                 2.2985
 Frc consts  --      1.5200                 1.6461                 1.7228
 IR Inten    --      6.6656                 0.8109                86.6107

                     34                     35                     36
                      A                      A                      A
 Frequencies --   1160.2171              1166.0152              1179.8608
 Red. masses --      1.2950                 4.3549                 2.7502
 Frc consts  --      1.0270                 3.4885                 2.2557
 IR Inten    --      0.1627                22.3366               187.9686

                     37                     38                     39
                      A                      A                      A
 Frequencies --   1204.0307              1227.2076              1274.2724
 Red. masses --      2.9589                 2.6851                 1.8841
 Frc consts  --      2.5273                 2.3826                 1.8026
 IR Inten    --     81.0121               193.1704                21.4932

                     40                     41                     42
                      A                      A                      A
 Frequencies --   1305.2978              1348.2335              1369.9412
 Red. masses --      1.7306                 2.0631                 2.0758
 Frc consts  --      1.7373                 2.2095                 2.2953
 IR Inten    --     31.6643               164.6213                80.8464

                     43                     44                     45
                      A                      A                      A
 Frequencies --   1376.0903              1394.7400              1475.2405
 Red. masses --      1.6903                 1.9367                 1.8869
 Frc consts  --      1.8859                 2.2197                 2.4195
 IR Inten    --     11.6869                20.8658                38.4008

                     46                     47                     48
                      A                      A                      A
 Frequencies --   1480.2806              1493.7655              1495.7985
 Red. masses --      1.7638                 1.2976                 1.0416
 Frc consts  --      2.2771                 1.7059                 1.3731
 IR Inten    --     43.5850                95.4264                 9.8277

                     49                     50                     51
                      A                      A                      A
 Frequencies --   1513.3691              1545.3727              1555.3562
 Red. masses --      1.3569                 1.2933                 1.5535
 Frc consts  --      1.8309                 1.8198                 2.2142
 IR Inten    --    108.0186                22.3643               346.8884

                     52                     53                     54
                      A                      A                      A
 Frequencies --   1697.8623              1787.6369              1859.5287
 Red. masses --      6.0365                 9.1100                10.1186
 Frc consts  --     10.2528                17.1525                20.6146
 IR Inten    --     29.7256               510.1047               288.2204

                     55                     56                     57
                      A                      A                      A
 Frequencies --   3080.8980              3084.7967              3159.3926
 Red. masses --      1.0699                 1.0313                 1.1062
 Frc consts  --      5.9837                 5.7821                 6.5059
 IR Inten    --     31.2301                22.7222                 5.2142

                     58                     59                     60
                      A                      A                      A
 Frequencies --   3165.7180              3176.3124              3233.5033
 Red. masses --      1.0945                 1.1063                 1.0919
 Frc consts  --      6.4624                 6.5758                 6.7262
 IR Inten    --     10.8860                 8.2922                13.0475

                     61                     62                     63
                      A                      A                      A
 Frequencies --   3553.1616              3596.1914              3685.4781
 Red. masses --      1.0744                 1.0776                 1.0641
 Frc consts  --      7.9921                 8.2108                 8.5159
 IR Inten    --     10.3199                63.1334                53.9740

 - Thermochemistry -
 -------------------
 Temperature   298.150 Kelvin.  Pressure   1.00000 Atm.
 Atom     1 has atomic number  6 and mass  12.00000

 Molecular mass:   215.03646 amu.
 Principal axes and moments of inertia in atomic units:
                           1         2         3
     Eigenvalues --  1510.642125386.301766055.08252
           X            0.99992   0.01242   0.00214
           Y           -0.01238   0.99980  -0.01584
           Z           -0.00234   0.01581   0.99987
 This molecule is an asymmetric top.
 Rotational symmetry number  1.
 Warning -- assumption of classical behavior for rotation
           may cause significant error
 Rotational temperatures (Kelvin)      0.05734     0.01608     0.01430
 Rotational constants (GHZ):           1.19468     0.33506     0.29805
 Zero-point vibrational energy     457513.2 (Joules/Mol)
                                  109.34829 (Kcal/Mol)
 Warning -- explicit consideration of  19 degrees of freedom as
           vibrations may cause significant error
 Vibrational temperatures:     40.03    54.89    71.51   113.61   170.30
          (Kelvin)            221.56   274.29   299.99   392.66   408.38
                              483.38   507.62   523.07   563.72   630.43
                              723.88   744.13   769.91   852.06   899.53
                              930.37   953.14   993.11  1032.83  1046.08
                             1097.09  1116.21  1220.03  1228.25  1239.51
                             1452.01  1559.31  1622.81  1669.29  1677.64
                             1697.56  1732.33  1765.68  1833.39  1878.03
                             1939.81  1971.04  1979.89  2006.72  2122.54
                             2129.79  2149.20  2152.12  2177.40  2223.45
                             2237.81  2442.85  2572.01  2675.45  4432.73
                             4438.33  4545.66  4554.76  4570.01  4652.29
                             5112.21  5174.12  5302.58

 Zero-point correction=                           0.174258 (Hartree/Particle)
 Thermal correction to Energy=                    0.187641
 Thermal correction to Enthalpy=                  0.188585
 Thermal correction to Gibbs Free Energy=         0.132173
 Sum of electronic and zero-point Energies=          -1060.174495
 Sum of electronic and thermal Energies=             -1060.161112
 Sum of electronic and thermal Enthalpies=           -1060.160168
 Sum of electronic and thermal Free Energies=        -1060.216580

                     E (Thermal)             CV                S
                      KCal/Mol        Cal/Mol-Kelvin    Cal/Mol-Kelvin
 Total                  117.747             48.774            118.730
 Electronic               0.000              0.000              0.000
 Translational            0.889              2.981             42.000
 Rotational               0.889              2.981             32.266
 Vibrational            115.969             42.813             44.464
 Vibration     1          0.593              1.984              5.979
 Vibration     2          0.594              1.982              5.353
 Vibration     3          0.595              1.978              4.829
 Vibration     4          0.600              1.963              3.917
 Vibration     5          0.609              1.934              3.127
 Vibration     6          0.620              1.898              2.622
 Vibration     7          0.634              1.853              2.222
 Vibration     8          0.642              1.828              2.057
 Vibration     9          0.676              1.723              1.578
 Vibration    10          0.682              1.704              1.510
 Vibration    11          0.717              1.604              1.231
 Vibration    12          0.729              1.569              1.154
 Vibration    13          0.737              1.547              1.107
 Vibration    14          0.759              1.488              0.993
 Vibration    15          0.798              1.387              0.832
 Vibration    16          0.858              1.243              0.650
 Vibration    17          0.872              1.212              0.616
 Vibration    18          0.890              1.172              0.576
 Vibration    19          0.950              1.048              0.463

                           ! Non-Optimized Parameters !
 Normal termination of Gaussian 16 at Thu Dec 10 10:15:38 2020.

 ----------------------------------------------------------------------
 # B3LYP/6-311++G(d,p) empiricaldispersion=gd3bj scf=xqc pop=npa geom=c
 heck
 ----------------------------------------------------------------------

 --------------------------------------
 CID_87930735_JID_4555_Energie_neutraal
 --------------------------------------
 Structure from the checkpoint file:  "JID_4555.chk"
 Charge =  0 Multiplicity = 1

 SCF Done:  E(RB3LYP) =  -1060.57841291     A.U. after   16 cycles
 Normal termination of Gaussian 16 at Thu Dec 10 10:17:44 2020.

 ----------------------------------------------------------------------
 # B3LYP/6-311++G(d,p) empiricaldispersion=gd3bj scf=xqc pop=npa geom=c
 heck
 ----------------------------------------------------------------------

 ------------------------------------
 CID_87930735_JID_4555_Energie_kation
 ------------------------------------
 Structure from the checkpoint file:  "JID_4555.chk"
 Charge =  1 Multiplicity = 2

 SCF Done:  E(UB3LYP) =  -1060.29241688     A.U. after   27 cycles
 Normal termination of Gaussian 16 at Thu Dec 10 10:22:36 2020.
 Gaussian 16:  ES64L-G16RevA.03 25-Dec-2016

 ----------------------------------------------------------------------
 # B3LYP/6-311++G(d,p) empiricaldispersion=gd3bj scf=xqc pop=npa geom=c
 heck
 ----------------------------------------------------------------------

 -----------------------------------
 CID_87930735_JID_4555_Energie_anion
 -----------------------------------
 Structure from the checkpoint file:  "JID_4555.chk"
 Charge = -1 Multiplicity = 2

                         Standard orientation:
 ---------------------------------------------------------------------
 Center     Atomic      Atomic             Coordinates (Angstroms)
 Number     Number       Type             X           Y           Z
 ---------------------------------------------------------------------
      1          6           0        2.492353    2.155319   -0.291390
      2          7           0        1.672296    0.941624   -0.280725
      3          6           0        0.355773    1.001493   -0.711748
      4          6           0       -0.465242   -0.077273   -0.785247
      5          6           0        0.045894   -1.368615   -0.314709
      6          8           0       -0.568592   -2.426031   -0.289217
      7          7           0        1.363561   -1.299694    0.148239
      8          6           0        2.226393   -0.227529    0.173415
      9         16           0        3.799206   -0.378553    0.720989
     10          7           0       -1.739553   -0.030741   -1.362421
     11          6           0       -2.866923   -0.528548   -0.584562
     12          6           0       -3.304910    0.334907    0.592034
     13          8           0       -4.077988   -0.016174    1.451034
     14          8           0       -2.755381    1.579038    0.557402
     15          1           0        2.834453    2.383491    0.720323
     16          1           0        1.886545    2.975737   -0.678057
     17          1           0        3.370168    2.005454   -0.923603
     18          1           0        0.017513    1.985205   -1.013736
     19          1           0        1.752527   -2.177517    0.475166
     20          1           0       -1.934463    0.885611   -1.752013
     21          1           0       -3.733817   -0.635437   -1.246730
     22          1           0       -2.628042   -1.524595   -0.209675
     23          1           0       -3.110655    2.047387    1.336343
 ---------------------------------------------------------------------

 SCF Done:  E(UB3LYP) =  -1060.58780822     A.U. after   33 cycles
 SCF Done:  E(UB3LYP) =  -1060.58780822     a.u. after    1 cycles

 The electronic state is 2-A.
 Alpha  occ. eigenvalues --  -88.67611 -19.07510 -19.01606 -18.96340 -14.26800
 Alpha  occ. eigenvalues --  -14.23483 -14.20409 -10.20164 -10.16510 -10.14467
 Alpha  occ. eigenvalues --  -10.10850 -10.10041 -10.08017 -10.07624  -7.76414
 Alpha  occ. eigenvalues --   -5.72833  -5.72227  -5.71953  -1.01239  -0.92572
 Alpha  occ. eigenvalues --   -0.92410  -0.88927  -0.81620  -0.80656  -0.68233
 Alpha  occ. eigenvalues --   -0.63599  -0.62056  -0.57161  -0.55288  -0.51589
 Alpha  occ. eigenvalues --   -0.49335  -0.44767  -0.43956  -0.39242  -0.38988
 Alpha  occ. eigenvalues --   -0.37902  -0.36961  -0.36740  -0.34496  -0.33306
 Alpha  occ. eigenvalues --   -0.32635  -0.31560  -0.30994  -0.30601  -0.28266
 Alpha  occ. eigenvalues --   -0.27716  -0.26073  -0.25143  -0.23135  -0.22314
 Alpha  occ. eigenvalues --   -0.19769  -0.16109  -0.14419  -0.12916  -0.10470
 Alpha  occ. eigenvalues --   -0.08334   0.03908
 Alpha virt. eigenvalues --    0.06535   0.07661   0.08500   0.09300   0.09459
 Alpha virt. eigenvalues --    0.10226   0.11062   0.11652   0.12099   0.13140
 Alpha virt. eigenvalues --    0.13731   0.14129   0.14636   0.15504   0.15841

  Beta  occ. eigenvalues --  -88.67608 -19.07497 -19.01583 -18.96217 -14.26853
  Beta  occ. eigenvalues --  -14.23293 -14.20385 -10.20111 -10.16380 -10.14332
  Beta  occ. eigenvalues --  -10.10842 -10.10027 -10.07671 -10.07466  -7.76412
  Beta  occ. eigenvalues --   -5.72837  -5.72212  -5.71953  -1.01181  -0.92374
  Beta  occ. eigenvalues --   -0.92286  -0.88751  -0.81420  -0.80418  -0.67844
  Beta  occ. eigenvalues --   -0.63445  -0.61964  -0.56972  -0.54731  -0.51512
  Beta  occ. eigenvalues --   -0.49230  -0.44580  -0.43823  -0.39177  -0.38921
  Beta  occ. eigenvalues --   -0.37659  -0.36706  -0.36571  -0.34355  -0.33068
  Beta  occ. eigenvalues --   -0.32394  -0.31230  -0.30747  -0.30489  -0.28108
  Beta  occ. eigenvalues --   -0.27554  -0.25945  -0.24551  -0.22916  -0.21653
  Beta  occ. eigenvalues --   -0.19364  -0.15721  -0.14226  -0.12302  -0.10446
  Beta  occ. eigenvalues --   -0.07524
  Beta virt. eigenvalues --    0.06659   0.07845   0.08362   0.09581   0.09835
  Beta virt. eigenvalues --    0.10179   0.10603   0.11171   0.11922   0.12065
  Beta virt. eigenvalues --    0.13126   0.13815   0.14169   0.14545   0.15577

 Mulliken charges and spin densities:
               1          2
     1  C   -0.254843  -0.102943
     2  N    0.070691  -0.029415
     3  C   -0.729283   1.681915
     4  C    0.314318  -1.227049
     5  C    0.807429  -0.395883
     6  O   -0.407063   0.044837
     7  N   -0.247986   0.087613
     8  C    0.103115  -0.011439
     9  S   -0.775731  -0.013600
    10  N    0.088961   0.048622
    11  C   -0.135226  -0.387135
    12  C    0.091572   0.016829
    13  O   -0.297396   0.009808
    14  O   -0.215049   0.025791
    15  H    0.144658   0.011995
    16  H   -0.055247   0.155336
    17  H    0.119450   0.046133
    18  H   -0.127834   0.249421
    19  H    0.327994  -0.009262
    20  H   -0.155848   0.390882
    21  H   -0.132526   0.321200
    22  H    0.302586  -0.029278
    23  H    0.163256   0.115624
 Sum of Mulliken charges =  -1.00000   1.00000

 Dipole moment (field-independent basis, Debye):
    X=             -0.1903    Y=              3.5607    Z=              1.0028  Tot=              3.7041
 Quadrupole moment (field-independent basis, Debye-Ang):
   XX=           -150.7686   YY=           -108.9353   ZZ=           -111.3483
   XY=              0.2234   XZ=             -3.0794   YZ=              4.4592

 Summary of Natural Population Analysis:

                                       Natural Population
                Natural  -----------------------------------------------
    Atom  No    Charge         Core      Valence    Rydberg      Total
 -----------------------------------------------------------------------
      C    1   -0.17155      0.99964     2.16406    0.00785     3.17155
      N    2   -0.22679      0.99960     2.71759    0.00961     3.72679
      C    3    0.06721      0.99949     1.92160    0.01170     2.93279
      C    4    0.04308      0.99944     1.94508    0.01240     2.95692
      C    5    0.33988      0.99961     1.63729    0.02323     2.66012
      O    6   -0.31934      0.99988     3.31376    0.00570     4.31934
      N    7   -0.27953      0.99962     2.76938    0.01052     3.77953
      C    8    0.16490      0.99965     1.81644    0.01901     2.83510
      S    9   -0.16626      4.99960     3.15285    0.01381     8.16626
      N   10   -0.31203      0.99970     2.79847    0.01385     3.81203
      C   11   -0.14276      0.99956     2.13128    0.01192     3.14276
      C   12    0.40629      0.99973     1.56834    0.02564     2.59371
      O   13   -0.31220      0.99986     3.30615    0.00619     4.31220
      O   14   -0.34791      0.99988     3.34101    0.00702     4.34791
      H   15    0.10241      0.00000     0.39671    0.00088     0.39759
      H   16    0.09624      0.00000     0.40298    0.00078     0.40376
      H   17    0.10420      0.00000     0.39478    0.00102     0.39580
      H   18    0.09359      0.00000     0.40534    0.00107     0.40641
      H   19    0.20309      0.00000     0.29528    0.00162     0.29691
      H   20    0.18176      0.00000     0.31369    0.00455     0.31824
      H   21    0.10787      0.00000     0.39098    0.00115     0.39213
      H   22    0.13072      0.00000     0.36806    0.00122     0.36928
      H   23    0.23713      0.00000     0.25910    0.00376     0.26287
 =======================================================================
   * Total *   -0.00000     17.99526    37.81024    0.19450    56.00000

 Normal termination of Gaussian 16 at Thu Dec 10 10:28:34 2020.
