 Gaussian 16, Revision A.03,

 -----------------------------------------------------------
 # opt freq B3LYP/6-31G(d) empiricaldispersion=gd3bj scf=xqc
 -----------------------------------------------------------

 ------------------------------
 CID_22352859_JID_8351_neutraal
 ------------------------------
 Symbolic Z-matrix:
 Charge =  0 Multiplicity = 1

 SCF Done:  E(RB3LYP) =  -1148.36255136     A.U. after   15 cycles
 SCF Done:  E(RB3LYP) =  -1148.36678457     A.U. after   13 cycles
 SCF Done:  E(RB3LYP) =  -1148.36553102     A.U. after   13 cycles
 SCF Done:  E(RB3LYP) =  -1148.36776221     A.U. after   13 cycles
 SCF Done:  E(RB3LYP) =  -1148.36872508     A.U. after   13 cycles
 SCF Done:  E(RB3LYP) =  -1148.36919977     A.U. after   14 cycles
 SCF Done:  E(RB3LYP) =  -1148.36954406     A.U. after   11 cycles
 SCF Done:  E(RB3LYP) =  -1148.36977942     A.U. after   12 cycles
 SCF Done:  E(RB3LYP) =  -1148.36986067     A.U. after   12 cycles
 SCF Done:  E(RB3LYP) =  -1148.36988222     A.U. after   10 cycles
 SCF Done:  E(RB3LYP) =  -1148.36988669     A.U. after    9 cycles
 SCF Done:  E(RB3LYP) =  -1148.36988727     A.U. after    8 cycles
 SCF Done:  E(RB3LYP) =  -1148.36988736     A.U. after    8 cycles
 Optimization completed.
    -- Stationary point found.
 Normal termination of Gaussian 16 at Fri Dec 11 20:08:24 2020.

 --------------------------------------------------------------------
 #N Geom=AllCheck Guess=TCheck SCRF=Check GenChk RB3LYP/6-31G(d) Freq
 --------------------------------------------------------------------

 Structure from the checkpoint file:  "JID_8351.chk"
 ------------------------------
 CID_22352859_JID_8351_neutraal
 ------------------------------
 Charge =  0 Multiplicity = 1

 SCF Done:  E(RB3LYP) =  -1148.36988736     A.U. after    1 cycles

  Exact polarizability: 260.283  17.655 165.862  13.673 -14.938 122.394
 Approx polarizability: 336.381  38.021 286.923  19.049 -38.241 191.952

                      1                      2                      3
                      A                      A                      A
 Frequencies --     18.4509                30.8821                41.7717
 Red. masses --      4.4937                 3.2960                 4.5143
 Frc consts  --      0.0009                 0.0019                 0.0046
 IR Inten    --      0.7401                 0.5582                 0.5006

                      4                      5                      6
                      A                      A                      A
 Frequencies --     53.5173                84.9023               102.7084
 Red. masses --      3.3730                 8.6872                 4.9383
 Frc consts  --      0.0057                 0.0369                 0.0307
 IR Inten    --      0.8018                 2.6583                 2.1019

                      7                      8                      9
                      A                      A                      A
 Frequencies --    123.3334               145.2271               186.2438
 Red. masses --      4.7672                 4.5873                 2.9350
 Frc consts  --      0.0427                 0.0570                 0.0600
 IR Inten    --      2.3051                 1.2945                 0.6382

                     10                     11                     12
                      A                      A                      A
 Frequencies --    217.6398               231.6537               256.3183
 Red. masses --      1.9464                 1.6385                 2.1138
 Frc consts  --      0.0543                 0.0518                 0.0818
 IR Inten    --      0.2376                 0.2337                 4.8609

                     13                     14                     15
                      A                      A                      A
 Frequencies --    265.0195               276.3038               280.8073
 Red. masses --      2.0494                 1.6238                 3.6803
 Frc consts  --      0.0848                 0.0730                 0.1710
 IR Inten    --      0.2629                 3.2078                 0.3804

                     16                     17                     18
                      A                      A                      A
 Frequencies --    305.9285               343.9584               365.3115
 Red. masses --      2.7829                 3.6154                 3.5451
 Frc consts  --      0.1535                 0.2520                 0.2787
 IR Inten    --      2.4669                 1.2203                 2.9305

                     19                     20                     21
                      A                      A                      A
 Frequencies --    397.7492               413.9183               439.2325
 Red. masses --      2.3154                 3.0112                 4.0224
 Frc consts  --      0.2158                 0.3040                 0.4572
 IR Inten    --     16.4712                 0.2048                 1.1069

                     22                     23                     24
                      A                      A                      A
 Frequencies --    455.5486               482.2357               495.1444
 Red. masses --      4.7426                 2.8307                 3.4755
 Frc consts  --      0.5799                 0.3878                 0.5020
 IR Inten    --      2.2943                 1.3407                11.4102

                     25                     26                     27
                      A                      A                      A
 Frequencies --    516.1364               540.0440               615.4990
 Red. masses --      2.9093                 5.4880                 2.1348
 Frc consts  --      0.4566                 0.9430                 0.4765
 IR Inten    --      4.2928                25.0991                30.4629

                     28                     29                     30
                      A                      A                      A
 Frequencies --    646.7463               657.7213               714.1205
 Red. masses --      5.8637                 3.9790                 4.5823
 Frc consts  --      1.4451                 1.0142                 1.3768
 IR Inten    --      1.3301                 3.8871                 0.8094

                     31                     32                     33
                      A                      A                      A
 Frequencies --    725.2704               738.3377               784.3795
 Red. masses --      4.9708                 4.9712                 2.3087
 Frc consts  --      1.5406                 1.5967                 0.8369
 IR Inten    --      0.9530                 1.3856                27.7688

                     34                     35                     36
                      A                      A                      A
 Frequencies --    793.1065               836.1133               849.5724
 Red. masses --      3.0677                 1.3768                 1.6309
 Frc consts  --      1.1369                 0.5671                 0.6935
 IR Inten    --     14.0148                 1.1490                12.0851

                     37                     38                     39
                      A                      A                      A
 Frequencies --    856.8185               863.5993               909.6612
 Red. masses --      1.6659                 3.4355                 2.3803
 Frc consts  --      0.7206                 1.5096                 1.1605
 IR Inten    --      0.5131                 5.0526                 5.1753

                     40                     41                     42
                      A                      A                      A
 Frequencies --    940.1294               958.9015               989.0702
 Red. masses --      3.1313                 1.3381                 1.2912
 Frc consts  --      1.6306                 0.7249                 0.7442
 IR Inten    --    121.4511                 0.1664                 3.1878

                     43                     44                     45
                      A                      A                      A
 Frequencies --    992.6323              1000.2211              1004.2844
 Red. masses --      1.2165                 2.8173                 1.3505
 Frc consts  --      0.7062                 1.6606                 0.8025
 IR Inten    --      3.0619                37.3160                 4.3157

                     46                     47                     48
                      A                      A                      A
 Frequencies --   1028.6844              1042.4522              1050.5275
 Red. masses --      2.5959                 2.6505                 2.2457
 Frc consts  --      1.6185                 1.6970                 1.4602
 IR Inten    --      5.8163                 3.5588                17.9373

                     49                     50                     51
                      A                      A                      A
 Frequencies --   1073.4471              1106.0564              1115.9350
 Red. masses --      1.7485                 1.7896                 4.2013
 Frc consts  --      1.1871                 1.2899                 3.0826
 IR Inten    --      6.0981                 8.8470               110.3411

                     52                     53                     54
                      A                      A                      A
 Frequencies --   1126.9896              1136.8095              1145.6860
 Red. masses --      2.4790                 1.9182                 6.0892
 Frc consts  --      1.8551                 1.4606                 4.7092
 IR Inten    --     11.6234                27.6401                72.9783

                     55                     56                     57
                      A                      A                      A
 Frequencies --   1158.1037              1191.6410              1206.8549
 Red. masses --      1.3528                 2.2102                 2.9411
 Frc consts  --      1.0690                 1.8491                 2.5239
 IR Inten    --      7.0432                14.8033                61.2859

                     58                     59                     60
                      A                      A                      A
 Frequencies --   1225.0006              1255.4802              1267.9829
 Red. masses --      1.2802                 1.1029                 2.2482
 Frc consts  --      1.1319                 1.0242                 2.1297
 IR Inten    --     62.1332                14.1311               135.0667

                     61                     62                     63
                      A                      A                      A
 Frequencies --   1297.1278              1334.6122              1339.5580
 Red. masses --      1.2970                 1.2225                 1.8341
 Frc consts  --      1.2858                 1.2829                 1.9391
 IR Inten    --     35.4350                 7.4838                 2.4502

                     64                     65                     66
                      A                      A                      A
 Frequencies --   1350.3732              1375.5514              1379.7920
 Red. masses --      2.7672                 1.9808                 1.2490
 Frc consts  --      2.9731                 2.2082                 1.4010
 IR Inten    --      1.4158                40.7434                 0.7958

                     67                     68                     69
                      A                      A                      A
 Frequencies --   1390.2033              1399.9255              1405.4928
 Red. masses --      1.1863                 1.3012                 1.3571
 Frc consts  --      1.3509                 1.5024                 1.5795
 IR Inten    --     10.6958                 8.0293                23.0379

                     70                     71                     72
                      A                      A                      A
 Frequencies --   1411.8242              1429.7047              1433.2712
 Red. masses --      1.3059                 1.5036                 1.2517
 Frc consts  --      1.5336                 1.8108                 1.5150
 IR Inten    --      6.2890                16.7161                13.3157

                     73                     74                     75
                      A                      A                      A
 Frequencies --   1441.4069              1454.5443              1496.4772
 Red. masses --      1.2994                 2.8362                 1.0859
 Frc consts  --      1.5906                 3.5354                 1.4328
 IR Inten    --      9.5047                10.7272                 4.0195

                     76                     77                     78
                      A                      A                      A
 Frequencies --   1499.9756              1506.3192              1512.7953
 Red. masses --      1.0513                 1.0992                 1.0679
 Frc consts  --      1.3936                 1.4695                 1.4400
 IR Inten    --      9.4059                 3.6528                 4.2314

                     79                     80                     81
                      A                      A                      A
 Frequencies --   1514.0651              1516.4677              1527.5851
 Red. masses --      1.0663                 1.0628                 1.0624
 Frc consts  --      1.4402                 1.4400                 1.4606
 IR Inten    --      2.8582                33.7064                 6.3365

                     82                     83                     84
                      A                      A                      A
 Frequencies --   1529.9392              1542.3708              1607.2752
 Red. masses --      1.0949                 2.1548                 6.5444
 Frc consts  --      1.5100                 3.0202                 9.9610
 IR Inten    --      4.0791                 7.0737                17.0938

                     85                     86                     87
                      A                      A                      A
 Frequencies --   1651.4747              1758.8803              2996.3724
 Red. masses --      5.5400                11.6455                 1.0697
 Frc consts  --      8.9023                21.2267                 5.6585
 IR Inten    --    236.5705               160.5530                36.4101

                     88                     89                     90
                      A                      A                      A
 Frequencies --   3011.4585              3013.6369              3027.6039
 Red. masses --      1.0694                 1.0657                 1.0685
 Frc consts  --      5.7140                 5.7023                 5.7709
 IR Inten    --     31.8239                44.9548                57.1048

                     91                     92                     93
                      A                      A                      A
 Frequencies --   3034.2966              3067.7231              3067.9296
 Red. masses --      1.0825                 1.0365                 1.0302
 Frc consts  --      5.8722                 5.7470                 5.7127
 IR Inten    --     32.7277                25.4221                16.7162

                     94                     95                     96
                      A                      A                      A
 Frequencies --   3087.8429              3100.1332              3105.5318
 Red. masses --      1.0966                 1.0955                 1.0969
 Frc consts  --      6.1607                 6.2035                 6.2326
 IR Inten    --     37.3676                60.7712                55.0043

                     97                     98                     99
                      A                      A                      A
 Frequencies --   3116.9557              3133.7870              3152.9419
 Red. masses --      1.0953                 1.1015                 1.1083
 Frc consts  --      6.2697                 6.3732                 6.4915
 IR Inten    --     12.7443                28.9206                 7.8506

                    100                    101                    102
                      A                      A                      A
 Frequencies --   3155.9511              3163.4118              3191.8479
 Red. masses --      1.1020                 1.1041                 1.0898
 Frc consts  --      6.4671                 6.5097                 6.5416
 IR Inten    --     16.9063                 3.9111                 6.3350

                    103                    104                    105
                      A                      A                      A
 Frequencies --   3216.9951              3231.7516              3243.3900
 Red. masses --      1.0869                 1.0930                 1.0912
 Frc consts  --      6.6276                 6.7257                 6.7630
 IR Inten    --      0.9236                10.8052                 5.1468

 - Thermochemistry -
 -------------------
 Temperature   298.150 Kelvin.  Pressure   1.00000 Atm.
 Atom     1 has atomic number  6 and mass  12.00000

 Molecular mass:   265.11365 amu.
 Principal axes and moments of inertia in atomic units:
                           1         2         3
     Eigenvalues --  2050.59914********************
           X            0.99996  -0.00451   0.00796
           Y            0.00463   0.99988  -0.01495
           Z           -0.00789   0.01499   0.99986
 This molecule is an asymmetric top.
 Rotational symmetry number  1.
 Warning -- assumption of classical behavior for rotation
           may cause significant error
 Rotational temperatures (Kelvin)      0.04224     0.00777     0.00715
 Rotational constants (GHZ):           0.88010     0.16183     0.14897
 Zero-point vibrational energy     821262.7 (Joules/Mol)
                                  196.28649 (Kcal/Mol)
 Warning -- explicit consideration of  27 degrees of freedom as
           vibrations may cause significant error
 Vibrational temperatures:     26.55    44.43    60.10    77.00   122.16
          (Kelvin)            147.77   177.45   208.95   267.96   313.14
                              333.30   368.78   381.30   397.54   404.02
                              440.16   494.88   525.60   572.27   595.54
                              631.96   655.43   693.83   712.40   742.61
                              777.00   885.57   930.52   946.31  1027.46
                             1043.50  1062.30  1128.55  1141.10  1202.98
                             1222.35  1232.77  1242.53  1308.80  1352.64
                             1379.65  1423.05  1428.18  1439.10  1444.94
                             1480.05  1499.86  1511.47  1544.45  1591.37
                             1605.58  1621.49  1635.62  1648.39  1666.25
                             1714.51  1736.39  1762.50  1806.36  1824.34
                             1866.28  1920.21  1927.33  1942.89  1979.11
                             1985.21  2000.19  2014.18  2022.19  2031.30
                             2057.03  2062.16  2073.86  2092.76  2153.10
                             2158.13  2167.26  2176.58  2178.40  2181.86
                             2197.85  2201.24  2219.13  2312.51  2376.10
                             2530.64  4311.11  4332.82  4335.95  4356.05
                             4365.68  4413.77  4414.07  4442.72  4460.40
                             4468.17  4484.60  4508.82  4536.38  4540.71
                             4551.44  4592.36  4628.54  4649.77  4666.51

 Zero-point correction=                           0.312802 (Hartree/Particle)
 Thermal correction to Energy=                    0.330465
 Thermal correction to Enthalpy=                  0.331410
 Thermal correction to Gibbs Free Energy=         0.265235
 Sum of electronic and zero-point Energies=          -1148.057085
 Sum of electronic and thermal Energies=             -1148.039422
 Sum of electronic and thermal Enthalpies=           -1148.038478
 Sum of electronic and thermal Free Energies=        -1148.104652

                     E (Thermal)             CV                S
                      KCal/Mol        Cal/Mol-Kelvin    Cal/Mol-Kelvin
 Total                  207.370             67.159            139.276
 Electronic               0.000              0.000              0.000
 Translational            0.889              2.981             42.624
 Rotational               0.889              2.981             33.982
 Vibrational            205.593             61.197             62.670
 Vibration     1          0.593              1.986              6.794
 Vibration     2          0.594              1.984              5.772
 Vibration     3          0.594              1.980              5.173
 Vibration     4          0.596              1.976              4.683
 Vibration     5          0.601              1.960              3.774
 Vibration     6          0.605              1.947              3.402
 Vibration     7          0.610              1.930              3.047
 Vibration     8          0.617              1.908              2.734
 Vibration     9          0.632              1.859              2.265
 Vibration    10          0.646              1.814              1.979
 Vibration    11          0.653              1.793              1.866
 Vibration    12          0.666              1.752              1.687
 Vibration    13          0.671              1.737              1.628
 Vibration    14          0.678              1.717              1.556
 Vibration    15          0.680              1.709              1.529
 Vibration    16          0.696              1.662              1.384
 Vibration    17          0.723              1.588              1.194
 Vibration    18          0.739              1.544              1.099
 Vibration    19          0.764              1.475              0.971
 Vibration    20          0.778              1.440              0.913
 Vibration    21          0.799              1.385              0.829
 Vibration    22          0.814              1.349              0.779
 Vibration    23          0.838              1.289              0.704
 Vibration    24          0.851              1.261              0.670
 Vibration    25          0.871              1.214              0.619
 Vibration    26          0.895              1.162              0.565
 Vibration    27          0.975              0.999              0.424

                           ! Non-Optimized Parameters !
 Normal termination of Gaussian 16 at Fri Dec 11 20:24:49 2020.

 ----------------------------------------------------------------------
 # B3LYP/6-311++G(d,p) empiricaldispersion=gd3bj scf=xqc pop=npa geom=c
 heck
 ----------------------------------------------------------------------

 --------------------------------------
 CID_22352859_JID_8351_Energie_neutraal
 --------------------------------------
 Structure from the checkpoint file:  "JID_8351.chk"
 Charge =  0 Multiplicity = 1

 SCF Done:  E(RB3LYP) =  -1148.60040007     A.U. after   15 cycles
 Normal termination of Gaussian 16 at Fri Dec 11 20:31:32 2020.

 ----------------------------------------------------------------------
 # B3LYP/6-311++G(d,p) empiricaldispersion=gd3bj scf=xqc pop=npa geom=c
 heck
 ----------------------------------------------------------------------

 ------------------------------------
 CID_22352859_JID_8351_Energie_kation
 ------------------------------------
 Structure from the checkpoint file:  "JID_8351.chk"
 Charge =  1 Multiplicity = 2

 SCF Done:  E(UB3LYP) =  -1148.33489790     A.U. after   25 cycles
 Normal termination of Gaussian 16 at Fri Dec 11 20:47:06 2020.
 Gaussian 16:  ES64L-G16RevA.03 25-Dec-2016

 ----------------------------------------------------------------------
 # B3LYP/6-311++G(d,p) empiricaldispersion=gd3bj scf=xqc pop=npa geom=c
 heck
 ----------------------------------------------------------------------

 -----------------------------------
 CID_22352859_JID_8351_Energie_anion
 -----------------------------------
 Structure from the checkpoint file:  "JID_8351.chk"
 Charge = -1 Multiplicity = 2

                         Standard orientation:
 ---------------------------------------------------------------------
 Center     Atomic      Atomic             Coordinates (Angstroms)
 Number     Number       Type             X           Y           Z
 ---------------------------------------------------------------------
      1          6           0        2.947148    1.762591    1.178013
      2          6           0        1.813100    0.766521    0.904357
      3          6           0        0.609030    1.483482    0.256775
      4          8           0        0.746809    2.602180   -0.221117
      5          6           0       -0.709188    0.791515    0.212077
      6          6           0       -0.927009   -0.506899    0.703773
      7          6           0       -2.188886   -1.079802    0.656165
      8          6           0       -3.274953   -0.371735    0.111874
      9          6           0       -3.065000    0.923109   -0.384228
     10          6           0       -1.796624    1.488587   -0.331651
     11         16           0       -4.840724   -1.204540    0.103977
     12          6           0       -5.955477    0.006253   -0.675188
     13          7           0        2.117933   -0.404063    0.085097
     14          6           0        2.823730   -1.520198    0.706394
     15          6           0        4.337952   -1.485154    0.474353
     16          8           0        4.626847   -1.384108   -0.913894
     17          6           0        4.063053   -0.198728   -1.467253
     18          6           0        2.540585   -0.188326   -1.298494
     19          1           0        3.293705    2.230773    0.253900
     20          1           0        3.789225    1.259820    1.661963
     21          1           0        2.597067    2.564437    1.836398
     22          1           0        1.464987    0.371064    1.868310
     23          1           0       -0.099960   -1.082171    1.100319
     24          1           0       -2.340216   -2.086375    1.036048
     25          1           0       -3.881664    1.494260   -0.809553
     26          1           0       -1.624207    2.490613   -0.710217
     27          1           0       -6.024527    0.923774   -0.085223
     28          1           0       -5.642443    0.237486   -1.696569
     29          1           0       -6.937614   -0.471262   -0.704559
     30          1           0        2.441560   -2.455192    0.269533
     31          1           0        2.599669   -1.537093    1.779238
     32          1           0        4.796196   -0.642220    1.016860
     33          1           0        4.804981   -2.413322    0.819757
     34          1           0        4.334542   -0.197424   -2.527655
     35          1           0        4.513353    0.686119   -0.990836
     36          1           0        2.123584   -0.998611   -1.913742
     37          1           0        2.123812    0.754532   -1.664991
 ---------------------------------------------------------------------

 SCF Done:  E(UB3LYP) =  -1148.61319541     A.U. after   25 cycles

 The electronic state is 2-A.
 Alpha  occ. eigenvalues --  -88.73155 -19.02976 -18.91757 -14.18666 -10.11976
 Alpha  occ. eigenvalues --  -10.11471 -10.09748 -10.09262 -10.08314 -10.07174
 Alpha  occ. eigenvalues --  -10.05811 -10.05511 -10.03958 -10.03473 -10.03406
 Alpha  occ. eigenvalues --  -10.02604 -10.01774 -10.01171  -7.81760  -5.78174
 Alpha  occ. eigenvalues --   -5.77753  -5.77159  -0.94480  -0.86155  -0.80723
 Alpha  occ. eigenvalues --   -0.72380  -0.67698  -0.67168  -0.64494  -0.61095
 Alpha  occ. eigenvalues --   -0.60492  -0.57869  -0.55413  -0.54130  -0.51226
 Alpha  occ. eigenvalues --   -0.47170  -0.46198  -0.44588  -0.40469  -0.39183
 Alpha  occ. eigenvalues --   -0.38149  -0.37826  -0.36841  -0.35513  -0.34028
 Alpha  occ. eigenvalues --   -0.33282  -0.32746  -0.32016  -0.30934  -0.29798
 Alpha  occ. eigenvalues --   -0.29462  -0.28989  -0.28634  -0.28063  -0.26540
 Alpha  occ. eigenvalues --   -0.26089  -0.25810  -0.24749  -0.24028  -0.23247
 Alpha  occ. eigenvalues --   -0.22224  -0.21383  -0.21196  -0.20227  -0.19246
 Alpha  occ. eigenvalues --   -0.17514  -0.15373  -0.11960  -0.09930  -0.08448
 Alpha  occ. eigenvalues --   -0.07528   0.04349
 Alpha virt. eigenvalues --    0.07184   0.07341   0.08740   0.08982   0.09496
 Alpha virt. eigenvalues --    0.10046   0.11001   0.11260   0.11492   0.11845
 Alpha virt. eigenvalues --    0.12131   0.12531   0.12683   0.13297   0.13725

  Beta  occ. eigenvalues --  -88.73148 -19.02973 -18.91168 -14.18615 -10.11976
  Beta  occ. eigenvalues --  -10.11471 -10.09750 -10.09247 -10.08316 -10.07205
  Beta  occ. eigenvalues --  -10.05425 -10.05123 -10.03958 -10.03563 -10.03481
  Beta  occ. eigenvalues --  -10.02468 -10.01579 -10.01068  -7.81754  -5.78176
  Beta  occ. eigenvalues --   -5.77759  -5.77123  -0.94473  -0.85108  -0.80613
  Beta  occ. eigenvalues --   -0.72052  -0.67532  -0.67155  -0.64378  -0.60721
  Beta  occ. eigenvalues --   -0.60258  -0.57832  -0.55388  -0.53851  -0.51119
  Beta  occ. eigenvalues --   -0.46952  -0.45945  -0.44205  -0.40168  -0.39070
  Beta  occ. eigenvalues --   -0.38138  -0.37692  -0.36796  -0.35415  -0.33864
  Beta  occ. eigenvalues --   -0.33238  -0.32558  -0.31901  -0.30740  -0.29685
  Beta  occ. eigenvalues --   -0.29417  -0.28914  -0.28491  -0.27978  -0.26344
  Beta  occ. eigenvalues --   -0.26062  -0.25696  -0.24206  -0.23353  -0.22979
  Beta  occ. eigenvalues --   -0.21793  -0.21350  -0.20149  -0.19151  -0.18825
  Beta  occ. eigenvalues --   -0.17439  -0.14243  -0.11313  -0.09661  -0.07467
  Beta  occ. eigenvalues --   -0.06974
  Beta virt. eigenvalues --    0.07148   0.07266   0.08661   0.08871   0.09460
  Beta virt. eigenvalues --    0.09996   0.10594   0.10942   0.11383   0.11494
  Beta virt. eigenvalues --    0.11780   0.12093   0.12586   0.13038   0.13259

 Mulliken charges and spin densities:
               1          2
     1  C   -0.497832  -0.019627
     2  C   -0.418039  -0.032459
     3  C   -0.436689   0.221558
     4  O   -0.330384   0.218553
     5  C    1.491505  -0.021761
     6  C   -1.028325   0.153664
     7  C   -0.994059  -0.035478
     8  C    0.440925   0.210452
     9  C    0.292852  -0.049497
    10  C    0.088980   0.224755
    11  S   -0.926643   0.027063
    12  C   -0.470030   0.003125
    13  N    0.306170   0.006187
    14  C    0.066022   0.004740
    15  C   -0.515011  -0.039467
    16  O   -0.135298   0.001030
    17  C   -0.381898  -0.004796
    18  C   -0.173164   0.012315
    19  H    0.189778  -0.001706
    20  H    0.078375   0.012845
    21  H    0.144214   0.007831
    22  H    0.073117   0.038929
    23  H    0.060522   0.001458
    24  H    0.147633   0.004237
    25  H    0.116333   0.003870
    26  H    0.192751  -0.013045
    27  H    0.165350   0.000689
    28  H    0.166908   0.000873
    29  H    0.145532  -0.000302
    30  H    0.159815  -0.005542
    31  H    0.073416   0.048591
    32  H    0.126536  -0.002651
    33  H    0.140253   0.018125
    34  H    0.168005   0.000362
    35  H    0.133534   0.000283
    36  H    0.167797   0.001762
    37  H    0.171047   0.003033
 Sum of Mulliken charges =  -1.00000   1.00000

 Dipole moment (field-independent basis, Debye):
    X=              1.7927    Y=             -2.6297    Z=              0.1659  Tot=              3.1869
 Quadrupole moment (field-independent basis, Debye-Ang):
   XX=           -162.1514   YY=           -145.2284   ZZ=           -125.8444
   XY=             -6.3587   XZ=              8.8192   YZ=             -2.6202

 Summary of Natural Population Analysis:

                                       Natural Population
                Natural  -----------------------------------------------
    Atom  No    Charge         Core      Valence    Rydberg      Total
 -----------------------------------------------------------------------
      C    1   -0.29407      0.99966     2.28872    0.00570     3.29407
      C    2   -0.03965      0.99956     2.02622    0.01387     3.03965
      C    3    0.31542      0.99961     1.66377    0.02121     2.68458
      O    4   -0.25186      0.99988     3.24621    0.00577     4.25186
      C    5   -0.05893      0.99947     2.04765    0.01181     3.05893
      C    6   -0.05538      0.99954     2.04632    0.00952     3.05538
      C    7   -0.13941      0.99952     2.13108    0.00881     3.13941
      C    8   -0.02293      0.99941     2.01356    0.00995     3.02293
      C    9   -0.15092      0.99951     2.14256    0.00885     3.15092
      C   10   -0.03298      0.99954     2.02471    0.00873     3.03298
      S   11    0.11477      4.99954     2.86333    0.02235     7.88523
      C   12   -0.35603      0.99963     2.35074    0.00566     3.35603
      N   13   -0.27638      0.99972     2.76288    0.01378     3.77638
      C   14   -0.09329      0.99962     2.08407    0.00960     3.09329
      C   15   -0.01951      0.99959     2.00824    0.01168     3.01951
      O   16   -0.30472      0.99989     3.29492    0.00990     4.30472
      C   17   -0.01890      0.99959     2.00926    0.01006     3.01890
      C   18   -0.10264      0.99962     2.09248    0.01054     3.10264
      H   19    0.10183      0.00000     0.39706    0.00110     0.39817
      H   20    0.08432      0.00000     0.41363    0.00205     0.41568
      H   21    0.10333      0.00000     0.39576    0.00091     0.39667
      H   22    0.09719      0.00000     0.40096    0.00185     0.40281
      H   23    0.09615      0.00000     0.40258    0.00127     0.40385
      H   24    0.09304      0.00000     0.40566    0.00129     0.40696
      H   25    0.09166      0.00000     0.40680    0.00154     0.40834
      H   26    0.10484      0.00000     0.39405    0.00112     0.39516
      H   27    0.10024      0.00000     0.39797    0.00179     0.39976
      H   28    0.10048      0.00000     0.39773    0.00179     0.39952
      H   29    0.10214      0.00000     0.39685    0.00101     0.39786
      H   30    0.08953      0.00000     0.40932    0.00115     0.41047
      H   31    0.09609      0.00000     0.40220    0.00170     0.40391
      H   32    0.07531      0.00000     0.42279    0.00191     0.42469
      H   33    0.08352      0.00000     0.41440    0.00208     0.41648
      H   34    0.08584      0.00000     0.41308    0.00108     0.41416
      H   35    0.07764      0.00000     0.42105    0.00131     0.42236
      H   36    0.09046      0.00000     0.40847    0.00107     0.40954
      H   37    0.11379      0.00000     0.38517    0.00105     0.38621
 =======================================================================
   * Total *   -0.00000     21.99288    48.78226    0.22486    71.00000

 Normal termination of Gaussian 16 at Fri Dec 11 21:02:35 2020.
