 Gaussian 16, Revision A.03,

 -----------------------------------------------------------
 # opt freq B3LYP/6-31G(d) empiricaldispersion=gd3bj scf=xqc
 -----------------------------------------------------------

 -------------------------------
 CID_110931672_JID_5955_neutraal
 -------------------------------
 Symbolic Z-matrix:
 Charge =  0 Multiplicity = 1

 SCF Done:  E(RB3LYP) =  -692.425021658     A.U. after   14 cycles
 SCF Done:  E(RB3LYP) =  -692.428203907     A.U. after   12 cycles
 SCF Done:  E(RB3LYP) =  -692.428499456     A.U. after   12 cycles
 SCF Done:  E(RB3LYP) =  -692.429014279     A.U. after   11 cycles
 SCF Done:  E(RB3LYP) =  -692.429243376     A.U. after   11 cycles
 SCF Done:  E(RB3LYP) =  -692.429482039     A.U. after   12 cycles
 SCF Done:  E(RB3LYP) =  -692.429709596     A.U. after   12 cycles
 SCF Done:  E(RB3LYP) =  -692.430386115     A.U. after   13 cycles
 SCF Done:  E(RB3LYP) =  -692.429946468     A.U. after   13 cycles
 SCF Done:  E(RB3LYP) =  -692.430744507     A.U. after   13 cycles
 SCF Done:  E(RB3LYP) =  -692.431244428     A.U. after   10 cycles
 SCF Done:  E(RB3LYP) =  -692.431270382     A.U. after    9 cycles
 SCF Done:  E(RB3LYP) =  -692.431277100     A.U. after    9 cycles
 SCF Done:  E(RB3LYP) =  -692.431277595     A.U. after    7 cycles
 SCF Done:  E(RB3LYP) =  -692.431277710     A.U. after    8 cycles
 SCF Done:  E(RB3LYP) =  -692.431277802     A.U. after    7 cycles
 Optimization completed.
    -- Stationary point found.
 Normal termination of Gaussian 16 at Thu Dec 10 17:55:24 2020.

 --------------------------------------------------------------------
 #N Geom=AllCheck Guess=TCheck SCRF=Check GenChk RB3LYP/6-31G(d) Freq
 --------------------------------------------------------------------

 Structure from the checkpoint file:  "JID_5955.chk"
 -------------------------------
 CID_110931672_JID_5955_neutraal
 -------------------------------
 Charge =  0 Multiplicity = 1

 SCF Done:  E(RB3LYP) =  -692.431277802     A.U. after    1 cycles

  Exact polarizability: 157.113  -5.988 120.970   0.322  -0.645 122.941
 Approx polarizability: 191.597  -8.148 170.106   8.331  -6.181 192.961

                      1                      2                      3
                      A                      A                      A
 Frequencies --     27.0084                42.9770                60.8127
 Red. masses --      4.8569                 4.4168                 3.7582
 Frc consts  --      0.0021                 0.0048                 0.0082
 IR Inten    --      1.8058                 0.2044                 1.8121

                      4                      5                      6
                      A                      A                      A
 Frequencies --     62.6496                82.5714                97.1733
 Red. masses --      4.8470                 3.7972                 3.4330
 Frc consts  --      0.0112                 0.0153                 0.0191
 IR Inten    --      0.1340                 1.1523                 2.4121

                      7                      8                      9
                      A                      A                      A
 Frequencies --    131.0666               137.0143               168.4148
 Red. masses --      2.7157                 1.1208                 3.5502
 Frc consts  --      0.0275                 0.0124                 0.0593
 IR Inten    --      1.1517                 0.2454                 0.2471

                     10                     11                     12
                      A                      A                      A
 Frequencies --    200.5916               225.8967               257.0965
 Red. masses --      2.4407                 3.3364                 2.2647
 Frc consts  --      0.0579                 0.1003                 0.0882
 IR Inten    --      5.0388                 7.7534                21.8143

                     13                     14                     15
                      A                      A                      A
 Frequencies --    284.6438               303.1848               340.9916
 Red. masses --      2.4436                 1.1990                 2.7397
 Frc consts  --      0.1166                 0.0649                 0.1877
 IR Inten    --      0.9346                84.0932                 1.4240

                     16                     17                     18
                      A                      A                      A
 Frequencies --    368.4745               390.2299               409.0878
 Red. masses --      2.3044                 1.9623                 1.9028
 Frc consts  --      0.1843                 0.1761                 0.1876
 IR Inten    --      2.6473                 3.4255                 3.5447

                     19                     20                     21
                      A                      A                      A
 Frequencies --    439.3310               479.2981               506.5440
 Red. masses --      2.4702                 2.6537                 2.5732
 Frc consts  --      0.2809                 0.3592                 0.3890
 IR Inten    --      4.2486                 5.0247                 0.4172

                     22                     23                     24
                      A                      A                      A
 Frequencies --    536.9186               554.1531               573.5702
 Red. masses --      2.6015                 2.8489                 2.4609
 Frc consts  --      0.4419                 0.5154                 0.4770
 IR Inten    --      8.0599                12.5307                 1.0695

                     25                     26                     27
                      A                      A                      A
 Frequencies --    588.9581               678.9855               697.2384
 Red. masses --      2.7181                 2.4171                 1.2509
 Frc consts  --      0.5555                 0.6565                 0.3583
 IR Inten    --     18.8518                 6.8468                73.5851

                     28                     29                     30
                      A                      A                      A
 Frequencies --    743.4779               778.1290               806.0474
 Red. masses --      1.8701                 2.2065                 2.6690
 Frc consts  --      0.6091                 0.7871                 1.0217
 IR Inten    --      3.6141                 7.7763                 7.4231

                     31                     32                     33
                      A                      A                      A
 Frequencies --    832.6474               858.1194               895.9123
 Red. masses --      2.7133                 2.7455                 1.6364
 Frc consts  --      1.1083                 1.1911                 0.7739
 IR Inten    --      2.3257                 4.4371                 9.7535

                     34                     35                     36
                      A                      A                      A
 Frequencies --    907.9055               930.7614               935.9942
 Red. masses --      2.2164                 2.1382                 1.8291
 Frc consts  --      1.0764                 1.0914                 0.9441
 IR Inten    --      1.9323                 5.7510                11.9202

                     37                     38                     39
                      A                      A                      A
 Frequencies --    950.4948               998.4336              1020.3435
 Red. masses --      1.9121                 1.7534                 1.6855
 Frc consts  --      1.0178                 1.0299                 1.0339
 IR Inten    --     13.0871                10.2254                 3.8694

                     40                     41                     42
                      A                      A                      A
 Frequencies --   1041.1985              1050.0627              1063.3837
 Red. masses --      2.1181                 1.6321                 1.7423
 Frc consts  --      1.3529                 1.0603                 1.1608
 IR Inten    --     29.3990                13.9036                 4.2094

                     43                     44                     45
                      A                      A                      A
 Frequencies --   1066.4879              1085.5408              1095.3286
 Red. masses --      1.8156                 2.0239                 2.6819
 Frc consts  --      1.2167                 1.4052                 1.8957
 IR Inten    --      7.5974                33.3276                54.1552

                     46                     47                     48
                      A                      A                      A
 Frequencies --   1113.1494              1119.6860              1145.0346
 Red. masses --      1.6239                 2.5022                 2.0521
 Frc consts  --      1.1855                 1.8483                 1.5852
 IR Inten    --     14.7016                11.0827                11.6518

                     49                     50                     51
                      A                      A                      A
 Frequencies --   1162.6111              1189.3845              1206.0477
 Red. masses --      2.4784                 1.1174                 1.7953
 Frc consts  --      1.9737                 0.9313                 1.5385
 IR Inten    --     44.9731                10.1811                 9.9965

                     52                     53                     54
                      A                      A                      A
 Frequencies --   1226.1428              1229.4064              1258.3787
 Red. masses --      1.3590                 1.4768                 1.5110
 Frc consts  --      1.2038                 1.3151                 1.4098
 IR Inten    --     17.0728                 9.8829                12.1815

                     55                     56                     57
                      A                      A                      A
 Frequencies --   1300.1934              1324.8410              1336.2823
 Red. masses --      1.2305                 1.3546                 1.2851
 Frc consts  --      1.2256                 1.4008                 1.3520
 IR Inten    --     19.2548                 1.5719                 7.5387

                     58                     59                     60
                      A                      A                      A
 Frequencies --   1348.7536              1353.9724              1368.8564
 Red. masses --      1.5050                 1.5071                 1.4674
 Frc consts  --      1.6131                 1.6279                 1.6200
 IR Inten    --     23.1671                49.6231                25.8847

                     61                     62                     63
                      A                      A                      A
 Frequencies --   1376.2744              1378.1117              1392.0156
 Red. masses --      1.4081                 1.5704                 1.3858
 Frc consts  --      1.5714                 1.7573                 1.5821
 IR Inten    --     16.5029                35.9388                 6.3462

                     64                     65                     66
                      A                      A                      A
 Frequencies --   1403.8001              1409.7566              1412.2514
 Red. masses --      1.3871                 1.2124                 1.4273
 Frc consts  --      1.6106                 1.4197                 1.6773
 IR Inten    --      5.2411                50.5738                 2.2915

                     67                     68                     69
                      A                      A                      A
 Frequencies --   1417.0348              1425.7040              1429.1806
 Red. masses --      1.3976                 1.5812                 1.3955
 Frc consts  --      1.6534                 1.8937                 1.6795
 IR Inten    --     19.2002                85.3269                 1.2074

                     70                     71                     72
                      A                      A                      A
 Frequencies --   1440.5669              1444.6757              1492.8192
 Red. masses --      1.3367                 1.4007                 1.8206
 Frc consts  --      1.6344                 1.7224                 2.3905
 IR Inten    --     32.8524                13.4372               168.2975

                     73                     74                     75
                      A                      A                      A
 Frequencies --   1503.0640              1504.5882              1510.2512
 Red. masses --      1.0788                 1.0830                 1.0886
 Frc consts  --      1.4359                 1.4446                 1.4629
 IR Inten    --      3.9773                 0.9218                 6.3104

                     76                     77                     78
                      A                      A                      A
 Frequencies --   1512.2053              1517.1353              1519.3809
 Red. masses --      1.0867                 1.0585                 1.0856
 Frc consts  --      1.4641                 1.4354                 1.4765
 IR Inten    --     11.1956                10.0452                 1.1740

                     79                     80                     81
                      A                      A                      A
 Frequencies --   1520.3016              1526.3797              1536.8554
 Red. masses --      1.0992                 1.0922                 1.1007
 Frc consts  --      1.4969                 1.4992                 1.5317
 IR Inten    --      8.2757                 6.7244                 3.2243

                     82                     83                     84
                      A                      A                      A
 Frequencies --   1540.7459              1791.3791              2927.7623
 Red. masses --      1.0938                 8.3983                 1.0728
 Frc consts  --      1.5299                15.8788                 5.4181
 IR Inten    --      4.6783               453.1381                56.9410

                     85                     86                     87
                      A                      A                      A
 Frequencies --   2957.1123              3010.9243              3023.6798
 Red. masses --      1.0710                 1.0705                 1.0659
 Frc consts  --      5.5180                 5.7181                 5.7415
 IR Inten    --     75.9679                57.9753                12.4199

                     88                     89                     90
                      A                      A                      A
 Frequencies --   3034.8003              3037.0603              3049.4581
 Red. masses --      1.0658                 1.0654                 1.0630
 Frc consts  --      5.7833                 5.7898                 5.8241
 IR Inten    --     32.4186                49.7841                14.5412

                     91                     92                     93
                      A                      A                      A
 Frequencies --   3057.5123              3058.6768              3066.0369
 Red. masses --      1.0409                 1.0617                 1.0984
 Frc consts  --      5.7330                 5.8522                 6.0835
 IR Inten    --      4.8932                19.5258                10.0354

                     94                     95                     96
                      A                      A                      A
 Frequencies --   3079.5246              3084.0702              3085.9506
 Red. masses --      1.0880                 1.0937                 1.0867
 Frc consts  --      6.0789                 6.1290                 6.0975
 IR Inten    --     21.4297                79.0533                20.5860

                     97                     98                     99
                      A                      A                      A
 Frequencies --   3090.4832              3091.7017              3100.4767
 Red. masses --      1.0953                 1.1008                 1.0908
 Frc consts  --      6.1636                 6.1995                 6.1779
 IR Inten    --     47.7820                58.1790                42.6756

                    100                    101                    102
                      A                      A                      A
 Frequencies --   3102.6970              3104.3827              3117.5721
 Red. masses --      1.1047                 1.0946                 1.1000
 Frc consts  --      6.2656                 6.2151                 6.2991
 IR Inten    --     34.3951                50.7674                14.8418

                    103                    104                    105
                      A                      A                      A
 Frequencies --   3178.6996              3575.9495              3755.1033
 Red. masses --      1.1002                 1.0752                 1.0661
 Frc consts  --      6.5494                 8.1006                 8.8572
 IR Inten    --     10.6514                42.2583                 7.0495

 - Thermochemistry -
 -------------------
 Temperature   298.150 Kelvin.  Pressure   1.00000 Atm.
 Atom     1 has atomic number  6 and mass  12.00000

 Molecular mass:   214.16813 amu.
 Principal axes and moments of inertia in atomic units:
                           1         2         3
     Eigenvalues --  1790.142336603.979287271.62784
           X            0.99991   0.00033  -0.01309
           Y            0.00009   0.99950   0.03170
           Z            0.01310  -0.03169   0.99941
 This molecule is an asymmetric top.
 Rotational symmetry number  1.
 Warning -- assumption of classical behavior for rotation
           may cause significant error
 Rotational temperatures (Kelvin)      0.04838     0.01312     0.01191
 Rotational constants (GHZ):           1.00816     0.27328     0.24819
 Zero-point vibrational energy     879147.6 (Joules/Mol)
                                  210.12132 (Kcal/Mol)
 Warning -- explicit consideration of  25 degrees of freedom as
           vibrations may cause significant error
 Vibrational temperatures:     38.86    61.83    87.50    90.14   118.80
          (Kelvin)            139.81   188.58   197.13   242.31   288.61
                              325.01   369.90   409.54   436.22   490.61
                              530.15   561.45   588.59   632.10   689.60
                              728.80   772.51   797.30   825.24   847.38
                              976.91  1003.17  1069.70  1119.55  1159.72
                             1197.99  1234.64  1289.02  1306.27  1339.16
                             1346.69  1367.55  1436.52  1468.05  1498.05
                             1510.81  1529.97  1534.44  1561.85  1575.93
                             1601.57  1610.98  1647.45  1672.74  1711.26
                             1735.23  1764.15  1768.84  1810.53  1870.69
                             1906.15  1922.61  1940.56  1948.06  1969.48
                             1980.15  1982.80  2002.80  2019.76  2028.33
                             2031.91  2038.80  2051.27  2056.27  2072.65
                             2078.57  2147.83  2162.57  2164.77  2172.91
                             2175.73  2182.82  2186.05  2187.37  2196.12
                             2211.19  2216.79  2577.39  4212.40  4254.63
                             4332.05  4350.40  4366.40  4369.65  4387.49
                             4399.08  4400.75  4411.34  4430.75  4437.29
                             4439.99  4446.52  4448.27  4460.89  4464.09
                             4466.51  4485.49  4573.44  5144.99  5402.76

 Zero-point correction=                           0.334850 (Hartree/Particle)
 Thermal correction to Energy=                    0.351172
 Thermal correction to Enthalpy=                  0.352116
 Thermal correction to Gibbs Free Energy=         0.289770
 Sum of electronic and zero-point Energies=           -692.096428
 Sum of electronic and thermal Energies=              -692.080106
 Sum of electronic and thermal Enthalpies=            -692.079162
 Sum of electronic and thermal Free Energies=         -692.141507

                     E (Thermal)             CV                S
                      KCal/Mol        Cal/Mol-Kelvin    Cal/Mol-Kelvin
 Total                  220.363             61.245            131.217
 Electronic               0.000              0.000              0.000
 Translational            0.889              2.981             41.988
 Rotational               0.889              2.981             32.819
 Vibrational            218.586             55.284             56.410
 Vibration     1          0.593              1.984              6.038
 Vibration     2          0.595              1.980              5.117
 Vibration     3          0.597              1.973              4.431
 Vibration     4          0.597              1.972              4.372
 Vibration     5          0.600              1.961              3.829
 Vibration     6          0.603              1.951              3.510
 Vibration     7          0.612              1.922              2.930
 Vibration     8          0.614              1.916              2.845
 Vibration     9          0.625              1.881              2.453
 Vibration    10          0.638              1.839              2.128
 Vibration    11          0.650              1.802              1.911
 Vibration    12          0.667              1.751              1.681
 Vibration    13          0.683              1.702              1.506
 Vibration    14          0.695              1.668              1.399
 Vibration    15          0.721              1.594              1.208
 Vibration    16          0.741              1.537              1.086
 Vibration    17          0.758              1.491              0.999
 Vibration    18          0.773              1.450              0.930
 Vibration    19          0.799              1.384              0.829
 Vibration    20          0.836              1.296              0.712
 Vibration    21          0.862              1.235              0.642
 Vibration    22          0.892              1.168              0.572
 Vibration    23          0.910              1.131              0.536
 Vibration    24          0.930              1.088              0.497
 Vibration    25          0.946              1.055              0.469

                           ! Non-Optimized Parameters !
 Normal termination of Gaussian 16 at Thu Dec 10 18:07:03 2020.

 ----------------------------------------------------------------------
 # B3LYP/6-311++G(d,p) empiricaldispersion=gd3bj scf=xqc pop=npa geom=c
 heck
 ----------------------------------------------------------------------

 ---------------------------------------
 CID_110931672_JID_5955_Energie_neutraal
 ---------------------------------------
 Structure from the checkpoint file:  "JID_5955.chk"
 Charge =  0 Multiplicity = 1

 SCF Done:  E(RB3LYP) =  -692.643045427     A.U. after   15 cycles
 Normal termination of Gaussian 16 at Thu Dec 10 18:12:26 2020.

 ----------------------------------------------------------------------
 # B3LYP/6-311++G(d,p) empiricaldispersion=gd3bj scf=xqc pop=npa geom=c
 heck
 ----------------------------------------------------------------------

 -------------------------------------
 CID_110931672_JID_5955_Energie_kation
 -------------------------------------
 Structure from the checkpoint file:  "JID_5955.chk"
 Charge =  1 Multiplicity = 2

 SCF Done:  E(UB3LYP) =  -692.349469891     A.U. after   27 cycles
 Normal termination of Gaussian 16 at Thu Dec 10 18:25:07 2020.
 Gaussian 16:  ES64L-G16RevA.03 25-Dec-2016

 ----------------------------------------------------------------------
 # B3LYP/6-311++G(d,p) empiricaldispersion=gd3bj scf=xqc pop=npa geom=c
 heck
 ----------------------------------------------------------------------

 ------------------------------------
 CID_110931672_JID_5955_Energie_anion
 ------------------------------------
 Structure from the checkpoint file:  "JID_5955.chk"
 Charge = -1 Multiplicity = 2

                         Standard orientation:
 ---------------------------------------------------------------------
 Center     Atomic      Atomic             Coordinates (Angstroms)
 Number     Number       Type             X           Y           Z
 ---------------------------------------------------------------------
      1          6           0        4.159531   -1.240166   -0.899586
      2          6           0        3.434671   -1.019408    0.420811
      3          8           0        3.956062   -1.275164    1.499404
      4          7           0        2.150690   -0.551529    0.343071
      5          6           0        1.438629   -0.050968   -0.823672
      6          6           0        1.732555    1.435385   -1.111792
      7          6           0        1.208408    2.320996    0.024711
      8          6           0       -0.263559    2.018888    0.324678
      9          7           0       -0.449742    0.592431    0.577674
     10          6           0       -0.066504   -0.221225   -0.569317
     11          6           0       -1.695691    0.243748    1.256810
     12          6           0       -3.024922    0.747595    0.658234
     13          6           0       -3.427108    0.203158   -0.720462
     14          6           0       -3.573106   -1.319420   -0.782458
     15          8           0       -4.547022   -1.821469    0.127215
     16          1           0        5.168838   -1.585817   -0.675012
     17          1           0        4.215900   -0.321851   -1.494236
     18          1           0        3.649188   -1.996907   -1.507041
     19          1           0        1.703728   -0.366384    1.234477
     20          1           0        1.714918   -0.657323   -1.691969
     21          1           0        2.808501    1.587269   -1.252692
     22          1           0        1.240278    1.709888   -2.055524
     23          1           0        1.799845    2.140619    0.929642
     24          1           0        1.322597    3.380234   -0.232954
     25          1           0       -0.587778    2.571946    1.213575
     26          1           0       -0.887799    2.368903   -0.521032
     27          1           0       -0.607659    0.047539   -1.494739
     28          1           0       -0.282267   -1.270452   -0.345624
     29          1           0       -1.711507   -0.848849    1.356634
     30          1           0       -1.626668    0.641998    2.278491
     31          1           0       -3.819895    0.504275    1.377812
     32          1           0       -3.003047    1.843008    0.613843
     33          1           0       -4.390603    0.647829   -0.999019
     34          1           0       -2.703810    0.519632   -1.481983
     35          1           0       -3.922358   -1.614701   -1.776790
     36          1           0       -2.600792   -1.811329   -0.625618
     37          1           0       -4.196008   -1.714268    1.023846
 ---------------------------------------------------------------------

 SCF Done:  E(UB3LYP) =  -692.636140267     A.U. after   32 cycles

 The electronic state is 2-A.
 Alpha  occ. eigenvalues --  -19.03285 -18.99035 -14.23379 -14.21602 -10.17890
 Alpha  occ. eigenvalues --  -10.12367 -10.12073 -10.10588 -10.10441 -10.10097
 Alpha  occ. eigenvalues --  -10.08244 -10.07730 -10.07609 -10.07575 -10.07553
 Alpha  occ. eigenvalues --   -0.94086  -0.93326  -0.85129  -0.81880  -0.71188
 Alpha  occ. eigenvalues --   -0.68735  -0.66748  -0.64470  -0.62746  -0.57429
 Alpha  occ. eigenvalues --   -0.54609  -0.53134  -0.50146  -0.48483  -0.45589
 Alpha  occ. eigenvalues --   -0.42338  -0.41140  -0.39651  -0.38656  -0.38133
 Alpha  occ. eigenvalues --   -0.37292  -0.36497  -0.35260  -0.34720  -0.33633
 Alpha  occ. eigenvalues --   -0.32568  -0.31806  -0.31522  -0.31152  -0.30683
 Alpha  occ. eigenvalues --   -0.29145  -0.28950  -0.27578  -0.27106  -0.25869
 Alpha  occ. eigenvalues --   -0.25444  -0.24798  -0.23857  -0.23396  -0.22707
 Alpha  occ. eigenvalues --   -0.18728  -0.16351  -0.15933  -0.12475   0.03755
 Alpha virt. eigenvalues --    0.05708   0.06467   0.07069   0.08091   0.08185
 Alpha virt. eigenvalues --    0.08731   0.09217   0.09779   0.10340   0.10604
 Alpha virt. eigenvalues --    0.11284   0.11346   0.11564   0.12340   0.12500

  Beta  occ. eigenvalues --  -19.03258 -18.99033 -14.23376 -14.21601 -10.17889
  Beta  occ. eigenvalues --  -10.12349 -10.12061 -10.10567 -10.10419 -10.10070
  Beta  occ. eigenvalues --  -10.08215 -10.07706 -10.07588 -10.07562 -10.07539
  Beta  occ. eigenvalues --   -0.94081  -0.93269  -0.85112  -0.81867  -0.71152
  Beta  occ. eigenvalues --   -0.68696  -0.66715  -0.64430  -0.62694  -0.57374
  Beta  occ. eigenvalues --   -0.54567  -0.53083  -0.50109  -0.48434  -0.45537
  Beta  occ. eigenvalues --   -0.42286  -0.41088  -0.39614  -0.38622  -0.38097
  Beta  occ. eigenvalues --   -0.37261  -0.36456  -0.35223  -0.34689  -0.33606
  Beta  occ. eigenvalues --   -0.32531  -0.31782  -0.31476  -0.31123  -0.30653
  Beta  occ. eigenvalues --   -0.29117  -0.28911  -0.27555  -0.27080  -0.25830
  Beta  occ. eigenvalues --   -0.25406  -0.24765  -0.23825  -0.23362  -0.22668
  Beta  occ. eigenvalues --   -0.18689  -0.16343  -0.15923  -0.12447
  Beta virt. eigenvalues --    0.05959   0.06611   0.07206   0.07459   0.08411
  Beta virt. eigenvalues --    0.08702   0.09080   0.09627   0.10134   0.10454
  Beta virt. eigenvalues --    0.10955   0.11513   0.11567   0.11793   0.12611

 Mulliken charges and spin densities:
               1          2
     1  C    0.230846  -0.662716
     2  C    0.086919   0.004234
     3  O   -0.354198   0.008134
     4  N   -0.059417  -0.036465
     5  C    0.438638  -0.343965
     6  C    0.664741  -1.054481
     7  C    0.652073  -1.162691
     8  C   -0.303445  -0.016575
     9  N   -0.007229   0.107097
    10  C   -0.976602   0.269936
    11  C    0.234154  -0.291760
    12  C    0.101817  -0.663586
    13  C   -0.457205   0.472831
    14  C    0.709901  -1.195862
    15  O   -0.252935   0.014448
    16  H    0.154598   0.029105
    17  H   -0.166730   0.314847
    18  H   -0.156299   0.312000
    19  H    0.272658   0.051770
    20  H   -0.546662   0.799424
    21  H    0.094253   0.043707
    22  H   -0.345735   0.485202
    23  H    0.229114  -0.066447
    24  H   -0.325949   0.506889
    25  H   -0.275178   0.444579
    26  H    0.164155  -0.023292
    27  H    0.190681  -0.062948
    28  H    0.258956  -0.053321
    29  H   -0.130240   0.263442
    30  H   -0.125772   0.307533
    31  H   -0.217710   0.390232
    32  H   -0.234520   0.371903
    33  H   -0.052019   0.240867
    34  H   -0.365520   0.488526
    35  H    0.022334   0.144115
    36  H   -0.210486   0.374547
    37  H    0.058017   0.188740
 Sum of Mulliken charges =  -1.00000   1.00000

 Dipole moment (field-independent basis, Debye):
    X=              0.3706    Y=              0.4403    Z=              0.1820  Tot=              0.6036
 Quadrupole moment (field-independent basis, Debye-Ang):
   XX=           -180.5738   YY=           -141.0569   ZZ=           -138.7937
   XY=              1.0496   XZ=             -1.4524   YZ=              3.2989

 Summary of Natural Population Analysis:

                                       Natural Population
                Natural  -----------------------------------------------
    Atom  No    Charge         Core      Valence    Rydberg      Total
 -----------------------------------------------------------------------
      C    1   -0.33496      0.99963     2.33071    0.00463     3.33496
      C    2    0.34352      0.99970     1.63535    0.02143     2.65648
      O    3   -0.32805      0.99988     3.32236    0.00580     4.32805
      N    4   -0.32596      0.99966     2.81598    0.01033     3.82596
      C    5   -0.01672      0.99958     2.00279    0.01435     3.01672
      C    6   -0.19222      0.99960     2.18390    0.00871     3.19222
      C    7   -0.19461      0.99962     2.18619    0.00880     3.19461
      C    8   -0.08349      0.99961     2.07296    0.01092     3.08349
      N    9   -0.29270      0.99971     2.78069    0.01230     3.79270
      C   10   -0.08438      0.99958     2.07198    0.01282     3.08438
      C   11   -0.07976      0.99960     2.06728    0.01288     3.07976
      C   12   -0.20543      0.99962     2.19635    0.00946     3.20543
      C   13   -0.20509      0.99962     2.19813    0.00734     3.20509
      C   14   -0.01041      0.99960     1.99905    0.01176     3.01041
      O   15   -0.36983      0.99990     3.36336    0.00658     4.36983
      H   16    0.11062      0.00000     0.38861    0.00077     0.38938
      H   17    0.10834      0.00000     0.39055    0.00111     0.39166
      H   18    0.11012      0.00000     0.38878    0.00110     0.38988
      H   19    0.19972      0.00000     0.29710    0.00318     0.30028
      H   20    0.10422      0.00000     0.39333    0.00245     0.39578
      H   21    0.10038      0.00000     0.39838    0.00124     0.39962
      H   22    0.10115      0.00000     0.39709    0.00176     0.39885
      H   23    0.09687      0.00000     0.40161    0.00151     0.40313
      H   24    0.10165      0.00000     0.39742    0.00093     0.39835
      H   25    0.09910      0.00000     0.39969    0.00121     0.40090
      H   26    0.08261      0.00000     0.41560    0.00179     0.41739
      H   27    0.08726      0.00000     0.41079    0.00194     0.41274
      H   28    0.10112      0.00000     0.39711    0.00177     0.39888
      H   29    0.09239      0.00000     0.40625    0.00136     0.40761
      H   30    0.09645      0.00000     0.40240    0.00115     0.40355
      H   31    0.09743      0.00000     0.40100    0.00157     0.40257
      H   32    0.10196      0.00000     0.39668    0.00136     0.39804
      H   33    0.09904      0.00000     0.39978    0.00117     0.40096
      H   34    0.09979      0.00000     0.39840    0.00181     0.40021
      H   35    0.08566      0.00000     0.41305    0.00129     0.41434
      H   36    0.07652      0.00000     0.42188    0.00160     0.42348
      H   37    0.22766      0.00000     0.26908    0.00326     0.27234
 =======================================================================
   * Total *   -0.00000     14.99490    43.81165    0.19344    59.00000

 Normal termination of Gaussian 16 at Thu Dec 10 18:39:59 2020.
