 Gaussian 16, Revision A.03,

 -----------------------------------------------------------
 # opt freq B3LYP/6-31G(d) empiricaldispersion=gd3bj scf=xqc
 -----------------------------------------------------------

 ------------------------------
 CID_3144703_JID_10046_neutraal
 ------------------------------
 Symbolic Z-matrix:
 Charge =  0 Multiplicity = 1

 SCF Done:  E(RB3LYP) =  -865.664067948     A.U. after   15 cycles
 SCF Done:  E(RB3LYP) =  -865.668209284     A.U. after   13 cycles
 SCF Done:  E(RB3LYP) =  -865.664747011     A.U. after   14 cycles
 SCF Done:  E(RB3LYP) =  -865.668587983     A.U. after   13 cycles
 SCF Done:  E(RB3LYP) =  -865.668988314     A.U. after   13 cycles
 SCF Done:  E(RB3LYP) =  -865.668878380     A.U. after   13 cycles
 SCF Done:  E(RB3LYP) =  -865.669496445     A.U. after   12 cycles
 SCF Done:  E(RB3LYP) =  -865.669848898     A.U. after   12 cycles
 SCF Done:  E(RB3LYP) =  -865.669704401     A.U. after   12 cycles
 SCF Done:  E(RB3LYP) =  -865.669971193     A.U. after   11 cycles
 SCF Done:  E(RB3LYP) =  -865.669971045     A.U. after    8 cycles
 SCF Done:  E(RB3LYP) =  -865.669972336     A.U. after    8 cycles
 SCF Done:  E(RB3LYP) =  -865.669972521     A.U. after    7 cycles
 SCF Done:  E(RB3LYP) =  -865.669972618     A.U. after    7 cycles
 Optimization completed.
    -- Stationary point found.
 Normal termination of Gaussian 16 at Sun Dec 13 12:46:07 2020.

 --------------------------------------------------------------------
 #N Geom=AllCheck Guess=TCheck SCRF=Check GenChk RB3LYP/6-31G(d) Freq
 --------------------------------------------------------------------

 Structure from the checkpoint file:  "JID_10046.chk"
 ------------------------------
 CID_3144703_JID_10046_neutraal
 ------------------------------
 Charge =  0 Multiplicity = 1

 SCF Done:  E(RB3LYP) =  -865.669972618     A.U. after    1 cycles

  Exact polarizability: 226.849   5.371 184.643   4.068   0.703 133.550
 Approx polarizability: 294.015  12.325 316.169   7.244   3.256 197.015

                      1                      2                      3
                      A                      A                      A
 Frequencies --     27.3423                35.9552                54.1456
 Red. masses --      4.4566                 3.8484                 3.9430
 Frc consts  --      0.0020                 0.0029                 0.0068
 IR Inten    --      0.4115                 0.0585                 0.2923

                      4                      5                      6
                      A                      A                      A
 Frequencies --     79.8228               109.0495               123.0021
 Red. masses --      4.0858                 4.7047                 4.2977
 Frc consts  --      0.0153                 0.0330                 0.0383
 IR Inten    --      0.9023                 0.5811                 0.5081

                      7                      8                      9
                      A                      A                      A
 Frequencies --    141.0587               152.1319               172.2280
 Red. masses --      3.5540                 3.5812                 3.6102
 Frc consts  --      0.0417                 0.0488                 0.0631
 IR Inten    --      0.2984                 0.5727                 1.3169

                     10                     11                     12
                      A                      A                      A
 Frequencies --    179.6472               214.7117               219.6173
 Red. masses --      3.0966                 1.2260                 1.2838
 Frc consts  --      0.0589                 0.0333                 0.0365
 IR Inten    --      0.6985                 0.0434                 1.0614

                     13                     14                     15
                      A                      A                      A
 Frequencies --    233.7031               239.4140               251.3113
 Red. masses --      1.3100                 3.1585                 2.2055
 Frc consts  --      0.0422                 0.1067                 0.0821
 IR Inten    --      1.0156                 1.2324                 0.5682

                     16                     17                     18
                      A                      A                      A
 Frequencies --    283.3249               285.5376               325.9961
 Red. masses --      3.6809                 2.7164                 4.3045
 Frc consts  --      0.1741                 0.1305                 0.2695
 IR Inten    --      2.6225                 1.8219                 3.6936

                     19                     20                     21
                      A                      A                      A
 Frequencies --    347.0089               371.0803               406.2589
 Red. masses --      2.4517                 3.3390                 4.6689
 Frc consts  --      0.1739                 0.2709                 0.4540
 IR Inten    --      1.7192                 1.0981                 0.9838

                     22                     23                     24
                      A                      A                      A
 Frequencies --    416.8910               442.3691               448.1840
 Red. masses --      2.9903                 2.9852                 3.6062
 Frc consts  --      0.3062                 0.3442                 0.4268
 IR Inten    --      0.0012                 5.4734                 3.2329

                     25                     26                     27
                      A                      A                      A
 Frequencies --    456.4229               473.1092               493.0002
 Red. masses --      3.0069                 2.7645                 4.7098
 Frc consts  --      0.3691                 0.3646                 0.6745
 IR Inten    --      1.5468                 1.1610                 2.8571

                     28                     29                     30
                      A                      A                      A
 Frequencies --    536.5738               568.8056               593.6977
 Red. masses --      3.4735                 4.4893                 1.2400
 Frc consts  --      0.5892                 0.8558                 0.2575
 IR Inten    --      3.3433                13.3223                49.4736

                     31                     32                     33
                      A                      A                      A
 Frequencies --    610.4246               634.3289               653.6288
 Red. masses --      4.6124                 6.3891                 1.2468
 Frc consts  --      1.0126                 1.5147                 0.3138
 IR Inten    --      4.9552                 1.0240                39.0190

                     34                     35                     36
                      A                      A                      A
 Frequencies --    664.7836               694.1389               699.2593
 Red. masses --      4.3323                 4.7556                 3.9097
 Frc consts  --      1.1281                 1.3501                 1.1263
 IR Inten    --      2.5565                 0.2805                 0.6094

                     37                     38                     39
                      A                      A                      A
 Frequencies --    717.2543               742.8816               792.7565
 Red. masses --      1.6521                 5.3474                 2.4962
 Frc consts  --      0.5008                 1.7387                 0.9243
 IR Inten    --     68.8433                11.3533                 3.5078

                     40                     41                     42
                      A                      A                      A
 Frequencies --    808.8484               841.8249               867.6816
 Red. masses --      2.6170                 4.2415                 1.2690
 Frc consts  --      1.0088                 1.7710                 0.5629
 IR Inten    --      3.8590                 6.0415                 0.2605

                     43                     44                     45
                      A                      A                      A
 Frequencies --    869.3948               906.3419               922.6010
 Red. masses --      2.4065                 1.7906                 2.6296
 Frc consts  --      1.0717                 0.8666                 1.3188
 IR Inten    --      1.7454                 2.7965                10.0738

                     46                     47                     48
                      A                      A                      A
 Frequencies --    939.8983               954.4023               976.9878
 Red. masses --      2.0890                 1.4005                 2.5744
 Frc consts  --      1.0873                 0.7516                 1.4478
 IR Inten    --     48.7115                 0.9326                89.4942

                     49                     50                     51
                      A                      A                      A
 Frequencies --    983.3488               984.5339              1007.5887
 Red. masses --      1.3958                 1.8105                 1.2683
 Frc consts  --      0.7952                 1.0340                 0.7587
 IR Inten    --      2.4970                21.3555                 0.0732

                     52                     53                     54
                      A                      A                      A
 Frequencies --   1023.6609              1045.9798              1052.4329
 Red. masses --      6.2606                 2.2884                 2.2566
 Frc consts  --      3.8653                 1.4751                 1.4727
 IR Inten    --      3.0915                20.7648                18.0827

                     55                     56                     57
                      A                      A                      A
 Frequencies --   1056.8799              1091.8180              1108.2464
 Red. masses --      2.2879                 1.9141                 1.8613
 Frc consts  --      1.5057                 1.3443                 1.3469
 IR Inten    --     34.9528                29.0225                58.3195

                     58                     59                     60
                      A                      A                      A
 Frequencies --   1109.7833              1120.9979              1130.7796
 Red. masses --      1.7870                 1.9346                 1.5514
 Frc consts  --      1.2968                 1.4323                 1.1688
 IR Inten    --     12.4880                 3.0507                33.9513

                     61                     62                     63
                      A                      A                      A
 Frequencies --   1141.7854              1169.1092              1174.1395
 Red. masses --      3.5378                 1.6753                 2.1261
 Frc consts  --      2.7174                 1.3491                 1.7269
 IR Inten    --    189.8972                14.4095                10.2283

                     64                     65                     66
                      A                      A                      A
 Frequencies --   1175.5233              1194.8996              1208.2977
 Red. masses --      2.5778                 1.1022                 1.1515
 Frc consts  --      2.0987                 0.9272                 0.9905
 IR Inten    --      7.0670                 0.4100                52.8852

                     67                     68                     69
                      A                      A                      A
 Frequencies --   1226.9212              1272.2680              1299.1803
 Red. masses --      2.3412                 2.2901                 4.7149
 Frc consts  --      2.0764                 2.1840                 4.6888
 IR Inten    --     39.8276                22.1306               583.2183

                     70                     71                     72
                      A                      A                      A
 Frequencies --   1308.4285              1326.8349              1344.0976
 Red. masses --      1.6379                 1.5842                 1.3988
 Frc consts  --      1.6521                 1.6432                 1.4889
 IR Inten    --     15.2294                 5.9018                 5.6687

                     73                     74                     75
                      A                      A                      A
 Frequencies --   1351.7669              1362.8073              1370.1898
 Red. masses --      1.4792                 1.4587                 5.0381
 Frc consts  --      1.5925                 1.5962                 5.5729
 IR Inten    --     11.8760                 1.1585                 3.1238

                     76                     77                     78
                      A                      A                      A
 Frequencies --   1384.8463              1398.0831              1407.9345
 Red. masses --      1.3457                 1.3059                 1.3506
 Frc consts  --      1.5206                 1.5040                 1.5774
 IR Inten    --      7.5647                 6.0765                 3.6944

                     79                     80                     81
                      A                      A                      A
 Frequencies --   1427.1367              1442.9912              1449.4862
 Red. masses --      1.4249                 1.2860                 1.2276
 Frc consts  --      1.7099                 1.5777                 1.5196
 IR Inten    --     17.1826                10.7969                 8.3569

                     82                     83                     84
                      A                      A                      A
 Frequencies --   1485.8368              1499.0980              1508.0091
 Red. masses --      1.1572                 2.2581                 1.0817
 Frc consts  --      1.5053                 2.9899                 1.4494
 IR Inten    --      2.0753                14.8200                 2.2773

                     85                     86                     87
                      A                      A                      A
 Frequencies --   1513.4527              1522.8645              1524.7680
 Red. masses --      1.0675                 1.0659                 1.0477
 Frc consts  --      1.4406                 1.4564                 1.4351
 IR Inten    --      4.9228                17.3679                 6.2878

                     88                     89                     90
                      A                      A                      A
 Frequencies --   1527.3594              1530.4533              1537.1061
 Red. masses --      1.0588                 1.0529                 1.0595
 Frc consts  --      1.4553                 1.4531                 1.4750
 IR Inten    --      0.5768                16.9302                 1.6636

                     91                     92                     93
                      A                      A                      A
 Frequencies --   1542.0390              1544.3964              1644.8116
 Red. masses --      2.2320                 1.0491                 5.7833
 Frc consts  --      3.1270                 1.4743                 9.2185
 IR Inten    --      0.6911                 2.9126                 4.8896

                     94                     95                     96
                      A                      A                      A
 Frequencies --   1664.2444              1802.3698              2238.4718
 Red. masses --      5.6011                12.5855                 5.9584
 Frc consts  --      9.1402                24.0883                17.5906
 IR Inten    --     12.8391               192.3806                 2.8877

                     97                     98                     99
                      A                      A                      A
 Frequencies --   2956.3426              3044.5044              3047.0360
 Red. masses --      1.0604                 1.0827                 1.0772
 Frc consts  --      5.4605                 5.9128                 5.8925
 IR Inten    --     60.7281                19.4430                 4.5364

                    100                    101                    102
                      A                      A                      A
 Frequencies --   3054.7494              3059.6052              3064.2337
 Red. masses --      1.0587                 1.0485                 1.0465
 Frc consts  --      5.8205                 5.7827                 5.7892
 IR Inten    --      8.1140                57.2795                37.0242

                    103                    104                    105
                      A                      A                      A
 Frequencies --   3069.8556              3074.4087              3096.7903
 Red. masses --      1.0589                 1.0711                 1.1045
 Frc consts  --      5.8793                 5.9652                 6.2408
 IR Inten    --     20.1715                61.2182                25.4092

                    106                    107                    108
                      A                      A                      A
 Frequencies --   3113.0368              3118.3016              3124.1218
 Red. masses --      1.1033                 1.1036                 1.0982
 Frc consts  --      6.2993                 6.3228                 6.3154
 IR Inten    --     20.2379                28.7438                30.6003

                    109                    110                    111
                      A                      A                      A
 Frequencies --   3129.4937              3167.6055              3174.6000
 Red. masses --      1.1015                 1.0980                 1.0976
 Frc consts  --      6.3561                 6.4910                 6.5173
 IR Inten    --     32.7798                19.1561                13.7446

                    112                    113                    114
                      A                      A                      A
 Frequencies --   3186.9373              3198.9307              3209.7454
 Red. masses --      1.0857                 1.0900                 1.0951
 Frc consts  --      6.4971                 6.5718                 6.6470
 IR Inten    --      0.1902                16.8992                29.1358

                    115                    116                    117
                      A                      A                      A
 Frequencies --   3228.9415              3237.2152              3496.7874
 Red. masses --      1.0930                 1.0925                 1.1606
 Frc consts  --      6.7144                 6.7457                 8.3609
 IR Inten    --      6.2684                 3.9257                57.0062

 - Thermochemistry -
 -------------------
 Temperature   298.150 Kelvin.  Pressure   1.00000 Atm.
 Atom     1 has atomic number  6 and mass  12.00000

 Molecular mass:   271.15723 amu.
 Principal axes and moments of inertia in atomic units:
                           1         2         3
     Eigenvalues --  2567.403679686.59851**********
           X            1.00000  -0.00261  -0.00028
           Y            0.00260   0.99975  -0.02205
           Z            0.00033   0.02205   0.99976
 This molecule is an asymmetric top.
 Rotational symmetry number  1.
 Warning -- assumption of classical behavior for rotation
           may cause significant error
 Rotational temperatures (Kelvin)      0.03374     0.00894     0.00843
 Rotational constants (GHZ):           0.70294     0.18631     0.17557
 Zero-point vibrational energy     915562.8 (Joules/Mol)
                                  218.82475 (Kcal/Mol)
 Warning -- explicit consideration of  31 degrees of freedom as
           vibrations may cause significant error
 Vibrational temperatures:     39.34    51.73    77.90   114.85   156.90
          (Kelvin)            176.97   202.95   218.88   247.80   258.47
                              308.92   315.98   336.25   344.46   361.58
                              407.64   410.82   469.04   499.27   533.90
                              584.52   599.81   636.47   644.84   656.69
                              680.70   709.32   772.01   818.38   854.20
                              878.26   912.66   940.43   956.48   998.71
                             1006.08  1031.97  1068.84  1140.60  1163.75
                             1211.20  1248.40  1250.87  1304.02  1327.42
                             1352.30  1373.17  1405.67  1414.82  1416.52
                             1449.70  1472.82  1504.93  1514.22  1520.61
                             1570.88  1594.52  1596.73  1612.87  1626.94
                             1642.77  1682.09  1689.32  1691.32  1719.19
                             1738.47  1765.27  1830.51  1869.23  1882.54
                             1909.02  1933.86  1944.89  1960.78  1971.40
                             1992.48  2011.53  2025.70  2053.33  2076.14
                             2085.49  2137.79  2156.87  2169.69  2177.52
                             2191.06  2193.80  2197.53  2201.98  2211.55
                             2218.65  2222.04  2366.52  2394.48  2593.21
                             3220.66  4253.52  4380.36  4384.01  4395.10
                             4402.09  4408.75  4416.84  4423.39  4455.59
                             4478.97  4486.54  4494.91  4502.64  4557.48
                             4567.54  4585.29  4602.55  4618.11  4645.73
                             4657.63  5031.10

 Zero-point correction=                           0.348719 (Hartree/Particle)
 Thermal correction to Energy=                    0.367973
 Thermal correction to Enthalpy=                  0.368918
 Thermal correction to Gibbs Free Energy=         0.301412
 Sum of electronic and zero-point Energies=           -865.321253
 Sum of electronic and thermal Energies=              -865.301999
 Sum of electronic and thermal Enthalpies=            -865.301055
 Sum of electronic and thermal Free Energies=         -865.368561

                     E (Thermal)             CV                S
                      KCal/Mol        Cal/Mol-Kelvin    Cal/Mol-Kelvin
 Total                  230.907             75.390            142.078
 Electronic               0.000              0.000              0.000
 Translational            0.889              2.981             42.691
 Rotational               0.889              2.981             33.902
 Vibrational            229.129             69.428             65.485
 Vibration     1          0.593              1.984              6.013
 Vibration     2          0.594              1.982              5.470
 Vibration     3          0.596              1.976              4.660
 Vibration     4          0.600              1.963              3.895
 Vibration     5          0.606              1.942              3.286
 Vibration     6          0.610              1.930              3.053
 Vibration     7          0.615              1.912              2.789
 Vibration     8          0.619              1.900              2.645
 Vibration     9          0.626              1.877              2.411
 Vibration    10          0.629              1.867              2.332
 Vibration    11          0.645              1.819              2.003
 Vibration    12          0.647              1.811              1.962
 Vibration    13          0.654              1.789              1.850
 Vibration    14          0.657              1.780              1.807
 Vibration    15          0.663              1.761              1.721
 Vibration    16          0.682              1.705              1.514
 Vibration    17          0.683              1.701              1.500
 Vibration    18          0.710              1.624              1.280
 Vibration    19          0.725              1.581              1.180
 Vibration    20          0.743              1.532              1.075
 Vibration    21          0.771              1.457              0.940
 Vibration    22          0.780              1.434              0.903
 Vibration    23          0.802              1.378              0.819
 Vibration    24          0.807              1.365              0.801
 Vibration    25          0.815              1.347              0.777
 Vibration    26          0.830              1.310              0.729
 Vibration    27          0.849              1.266              0.676
 Vibration    28          0.892              1.169              0.573
 Vibration    29          0.925              1.099              0.507
 Vibration    30          0.951              1.045              0.461
 Vibration    31          0.969              1.010              0.432

                           ! Non-Optimized Parameters !
 Normal termination of Gaussian 16 at Sun Dec 13 13:11:55 2020.

 ----------------------------------------------------------------------
 # B3LYP/6-311++G(d,p) empiricaldispersion=gd3bj scf=xqc pop=npa geom=c
 heck
 ----------------------------------------------------------------------

 --------------------------------------
 CID_3144703_JID_10046_Energie_neutraal
 --------------------------------------
 Structure from the checkpoint file:  "JID_10046.chk"
 Charge =  0 Multiplicity = 1

 SCF Done:  E(RB3LYP) =  -865.904604448     A.U. after   17 cycles
 Normal termination of Gaussian 16 at Sun Dec 13 13:25:13 2020.

 ----------------------------------------------------------------------
 # B3LYP/6-311++G(d,p) empiricaldispersion=gd3bj scf=xqc pop=npa geom=c
 heck
 ----------------------------------------------------------------------

 ------------------------------------
 CID_3144703_JID_10046_Energie_kation
 ------------------------------------
 Structure from the checkpoint file:  "JID_10046.chk"
 Charge =  1 Multiplicity = 2

 SCF Done:  E(UB3LYP) =  -865.619274974     A.U. after   32 cycles
 Normal termination of Gaussian 16 at Sun Dec 13 14:01:10 2020.
 Gaussian 16:  ES64L-G16RevA.03 25-Dec-2016

 ----------------------------------------------------------------------
 # B3LYP/6-311++G(d,p) empiricaldispersion=gd3bj scf=xqc pop=npa geom=c
 heck
 ----------------------------------------------------------------------

 -----------------------------------
 CID_3144703_JID_10046_Energie_anion
 -----------------------------------
 Structure from the checkpoint file:  "JID_10046.chk"
 Charge = -1 Multiplicity = 2

                         Standard orientation:
 ---------------------------------------------------------------------
 Center     Atomic      Atomic             Coordinates (Angstroms)
 Number     Number       Type             X           Y           Z
 ---------------------------------------------------------------------
      1          6           0        3.786282   -0.159689    1.899476
      2          6           0        3.093313   -1.076233    0.884907
      3          6           0        1.547913   -1.001927    0.897680
      4          6           0        0.936795    0.234013    0.193724
      5          6           0        1.561809    0.385123   -1.216746
      6          6           0        3.103169    0.332774   -1.090098
      7          7           0        3.641996   -0.869194   -0.463678
      8          6           0        3.554132   -2.047738   -1.314121
      9          6           0        1.145997    1.637718   -1.990014
     10          6           0        1.087149    1.435149    1.018757
     11          6           0        1.277822    2.389119    1.731957
     12          8           0       -0.474226   -0.165311    0.082683
     13          6           0       -1.485978    0.720652   -0.071474
     14          8           0       -1.349495    1.912437   -0.251573
     15          6           0       -2.811686    0.039247   -0.002373
     16          6           0       -3.954746    0.824732   -0.197552
     17          6           0       -5.218431    0.244056   -0.143289
     18          6           0       -5.347428   -1.124404    0.106260
     19          6           0       -4.209795   -1.910258    0.302002
     20          6           0       -2.943130   -1.332551    0.248583
     21          1           0        3.398041   -0.342339    2.907674
     22          1           0        3.633535    0.897595    1.678505
     23          1           0        4.861060   -0.363749    1.892606
     24          1           0        3.347984   -2.105315    1.166717
     25          1           0        1.150603   -1.871780    0.363117
     26          1           0        1.163599   -1.049456    1.921287
     27          1           0        1.227721   -0.502534   -1.769289
     28          1           0        3.436204    1.209767   -0.522001
     29          1           0        3.540765    0.424365   -2.090289
     30          1           0        2.527302   -2.394764   -1.531933
     31          1           0        4.041265   -1.836412   -2.272175
     32          1           0        4.091266   -2.876074   -0.839802
     33          1           0        1.671697    1.662869   -2.951967
     34          1           0        0.073275    1.670404   -2.180709
     35          1           0        1.406022    2.542958   -1.432478
     36          1           0        1.415920    3.248392    2.347760
     37          1           0       -3.827647    1.884804   -0.388435
     38          1           0       -6.102841    0.856037   -0.294943
     39          1           0       -6.333837   -1.577925    0.148725
     40          1           0       -4.310274   -2.974019    0.497441
     41          1           0       -2.054979   -1.934159    0.400984
 ---------------------------------------------------------------------

 SCF Done:  E(UB3LYP) =  -865.905141246     A.U. after   33 cycles
 SCF Done:  E(UB3LYP) =  -865.905141246     a.u. after    1 cycles

 The electronic state is 2-A.
 Alpha  occ. eigenvalues --  -19.03326 -18.95565 -14.20864 -10.15957 -10.14394
 Alpha  occ. eigenvalues --  -10.10823 -10.09754 -10.09330 -10.08093 -10.07852
 Alpha  occ. eigenvalues --  -10.07520 -10.06789 -10.06391 -10.05421 -10.04602
 Alpha  occ. eigenvalues --  -10.04581 -10.03991 -10.03815 -10.03785 -10.03703
 Alpha  occ. eigenvalues --   -0.96753  -0.88040  -0.83695  -0.73089  -0.72099
 Alpha  occ. eigenvalues --   -0.68921  -0.65483  -0.63637  -0.62117  -0.61726
 Alpha  occ. eigenvalues --   -0.60132  -0.56670  -0.54363  -0.51482  -0.50368
 Alpha  occ. eigenvalues --   -0.48047  -0.47197  -0.44765  -0.42496  -0.40556
 Alpha  occ. eigenvalues --   -0.40138  -0.37596  -0.36759  -0.35817  -0.35060
 Alpha  occ. eigenvalues --   -0.34203  -0.33520  -0.32572  -0.32199  -0.31513
 Alpha  occ. eigenvalues --   -0.30927  -0.30631  -0.30231  -0.29625  -0.28665
 Alpha  occ. eigenvalues --   -0.27542  -0.27030  -0.26804  -0.25946  -0.25312
 Alpha  occ. eigenvalues --   -0.24501  -0.24118  -0.23222  -0.23019  -0.22592
 Alpha  occ. eigenvalues --   -0.21439  -0.18744  -0.18166  -0.17422  -0.13387
 Alpha  occ. eigenvalues --   -0.13142  -0.12996  -0.11914   0.04345
 Alpha virt. eigenvalues --    0.05800   0.07312   0.07699   0.08191   0.08885
 Alpha virt. eigenvalues --    0.09122   0.09651   0.09791   0.10228   0.10682
 Alpha virt. eigenvalues --    0.10774   0.11185   0.11471   0.11886   0.12146

  Beta  occ. eigenvalues --  -19.03267 -18.95305 -14.20861 -10.15956 -10.14166
  Beta  occ. eigenvalues --  -10.10815 -10.09750 -10.09302 -10.08082 -10.07856
  Beta  occ. eigenvalues --  -10.07515 -10.06775 -10.06387 -10.05417 -10.04647
  Beta  occ. eigenvalues --  -10.04623 -10.03868 -10.03692 -10.03548 -10.03493
  Beta  occ. eigenvalues --   -0.96506  -0.87646  -0.83680  -0.72915  -0.71921
  Beta  occ. eigenvalues --   -0.68905  -0.65461  -0.63435  -0.61804  -0.61498
  Beta  occ. eigenvalues --   -0.60104  -0.56618  -0.54279  -0.51245  -0.50180
  Beta  occ. eigenvalues --   -0.47842  -0.47074  -0.44616  -0.42471  -0.40454
  Beta  occ. eigenvalues --   -0.40079  -0.37557  -0.36663  -0.35531  -0.34996
  Beta  occ. eigenvalues --   -0.34107  -0.33450  -0.32398  -0.32044  -0.31344
  Beta  occ. eigenvalues --   -0.30840  -0.30497  -0.29720  -0.29574  -0.28470
  Beta  occ. eigenvalues --   -0.27494  -0.27010  -0.26691  -0.25884  -0.25215
  Beta  occ. eigenvalues --   -0.24455  -0.23750  -0.23085  -0.22694  -0.22304
  Beta  occ. eigenvalues --   -0.21331  -0.18479  -0.17978  -0.16920  -0.13116
  Beta  occ. eigenvalues --   -0.12458  -0.11886  -0.11603
  Beta virt. eigenvalues --    0.06329   0.07381   0.07853   0.08133   0.08865
  Beta virt. eigenvalues --    0.09183   0.09343   0.09628   0.09929   0.10261
  Beta virt. eigenvalues --    0.10685   0.10783   0.11355   0.11598   0.11935

 Mulliken charges and spin densities:
               1          2
     1  C   -0.383932  -0.234645
     2  C   -0.344651   0.051690
     3  C   -0.239709  -0.098538
     4  C   -0.198634  -0.101664
     5  C    0.245617   0.273187
     6  C   -0.657639  -0.210351
     7  N    0.194594   0.073859
     8  C    0.564974  -0.808635
     9  C   -0.759478  -0.042790
    10  C    0.530648  -0.084961
    11  C   -0.313337   0.028696
    12  O    0.270000   0.010750
    13  C   -0.461058   0.014518
    14  O   -0.223081   0.095115
    15  C    0.845942   0.065357
    16  C    0.084620   0.153765
    17  C   -0.531887  -0.025108
    18  C   -0.315582   0.205095
    19  C   -0.431706  -0.004588
    20  C   -0.428264   0.049984
    21  H    0.128960   0.001246
    22  H    0.122820   0.022686
    23  H    0.071241   0.074370
    24  H   -0.264030   0.454829
    25  H    0.176270  -0.016539
    26  H    0.182373   0.036528
    27  H    0.219094  -0.003962
    28  H    0.194335  -0.010237
    29  H    0.109538   0.047212
    30  H   -0.089516   0.217144
    31  H   -0.141454   0.274516
    32  H   -0.234383   0.394440
    33  H    0.065133   0.048783
    34  H    0.166352   0.020448
    35  H    0.154173  -0.001121
    36  H    0.163180   0.003977
    37  H    0.167003  -0.007727
    38  H    0.118277   0.003468
    39  H    0.097745  -0.020805
    40  H    0.126138   0.018666
    41  H    0.019315   0.031340
 Sum of Mulliken charges =  -1.00000   1.00000

 Dipole moment (field-independent basis, Debye):
    X=              3.2544    Y=              1.9571    Z=              1.0226  Tot=              3.9328
 Quadrupole moment (field-independent basis, Debye-Ang):
   XX=           -197.8998   YY=           -149.9668   ZZ=           -138.3326
   XY=             13.5571   XZ=              2.8798   YZ=             -0.0452

 Summary of Natural Population Analysis:

                                       Natural Population
                Natural  -----------------------------------------------
    Atom  No    Charge         Core      Valence    Rydberg      Total
 -----------------------------------------------------------------------
      C    1   -0.28943      0.99964     2.28330    0.00650     3.28943
      C    2   -0.00518      0.99958     1.99228    0.01331     3.00518
      C    3   -0.19418      0.99957     2.18297    0.01164     3.19418
      C    4    0.10377      0.99938     1.88240    0.01446     2.89623
      C    5   -0.12203      0.99956     2.11216    0.01031     3.12203
      C    6   -0.08529      0.99959     2.07321    0.01249     3.08529
      N    7   -0.28323      0.99972     2.76943    0.01408     3.78323
      C    8   -0.17674      0.99964     2.16867    0.00843     3.17674
      C    9   -0.28716      0.99965     2.28189    0.00563     3.28716
      C   10    0.00082      0.99935     1.99022    0.00961     2.99918
      C   11   -0.11394      0.99927     2.11074    0.00393     3.11394
      O   12   -0.28937      0.99985     3.27968    0.00983     4.28937
      C   13    0.42618      0.99962     1.54736    0.02683     2.57382
      O   14   -0.29025      0.99987     3.28484    0.00554     4.29025
      C   15   -0.05336      0.99945     2.04366    0.01025     3.05336
      C   16   -0.05773      0.99954     2.05003    0.00816     3.05773
      C   17   -0.12430      0.99957     2.11546    0.00927     3.12430
      C   18   -0.05052      0.99958     2.04143    0.00951     3.05052
      C   19   -0.12432      0.99958     2.11552    0.00922     3.12432
      C   20   -0.06247      0.99954     2.05442    0.00851     3.06247
      H   21    0.09724      0.00000     0.40210    0.00066     0.40276
      H   22    0.10375      0.00000     0.39530    0.00095     0.39625
      H   23    0.09949      0.00000     0.39936    0.00115     0.40051
      H   24    0.09726      0.00000     0.40095    0.00178     0.40274
      H   25    0.10899      0.00000     0.38983    0.00118     0.39101
      H   26    0.10698      0.00000     0.39194    0.00108     0.39302
      H   27    0.10310      0.00000     0.39516    0.00174     0.39690
      H   28    0.09683      0.00000     0.40212    0.00104     0.40317
      H   29    0.09690      0.00000     0.40215    0.00095     0.40310
      H   30    0.08135      0.00000     0.41726    0.00139     0.41865
      H   31    0.09393      0.00000     0.40508    0.00099     0.40607
      H   32    0.09630      0.00000     0.40234    0.00135     0.40370
      H   33    0.09156      0.00000     0.40757    0.00086     0.40844
      H   34    0.11630      0.00000     0.38272    0.00098     0.38370
      H   35    0.10301      0.00000     0.39610    0.00088     0.39699
      H   36    0.10843      0.00000     0.39014    0.00144     0.39157
      H   37    0.10494      0.00000     0.39410    0.00096     0.39506
      H   38    0.09129      0.00000     0.40767    0.00104     0.40871
      H   39    0.08700      0.00000     0.41199    0.00101     0.41300
      H   40    0.09192      0.00000     0.40712    0.00096     0.40808
      H   41    0.10215      0.00000     0.39673    0.00112     0.39785
 =======================================================================
   * Total *   -0.00000     19.99156    52.77743    0.23101    73.00000

 Normal termination of Gaussian 16 at Sun Dec 13 14:37:23 2020.
