 Gaussian 16, Revision A.03,

 -----------------------------------------------------------
 # opt freq B3LYP/6-31G(d) empiricaldispersion=gd3bj scf=xqc
 -----------------------------------------------------------

 -------------------------------
 CID_118535409_JID_6878_neutraal
 -------------------------------
 Symbolic Z-matrix:
 Charge =  0 Multiplicity = 1

 SCF Done:  E(RB3LYP) =  -674.967517874     A.U. after   14 cycles
 SCF Done:  E(RB3LYP) =  -674.971852449     A.U. after   12 cycles
 SCF Done:  E(RB3LYP) =  -674.972345192     A.U. after   11 cycles
 SCF Done:  E(RB3LYP) =  -674.972474407     A.U. after   12 cycles
 SCF Done:  E(RB3LYP) =  -674.972601762     A.U. after   11 cycles
 SCF Done:  E(RB3LYP) =  -674.972674153     A.U. after   13 cycles
 SCF Done:  E(RB3LYP) =  -674.972802963     A.U. after   12 cycles
 SCF Done:  E(RB3LYP) =  -674.972801144     A.U. after   13 cycles
 SCF Done:  E(RB3LYP) =  -674.973000435     A.U. after   12 cycles
 SCF Done:  E(RB3LYP) =  -674.973015367     A.U. after   11 cycles
 SCF Done:  E(RB3LYP) =  -674.973139680     A.U. after    9 cycles
 SCF Done:  E(RB3LYP) =  -674.973143618     A.U. after    9 cycles
 SCF Done:  E(RB3LYP) =  -674.973142317     A.U. after    8 cycles
 SCF Done:  E(RB3LYP) =  -674.973142545     A.U. after    6 cycles
 SCF Done:  E(RB3LYP) =  -674.973142633     A.U. after    7 cycles
 Optimization completed.
    -- Stationary point found.
 Normal termination of Gaussian 16 at Fri Dec 11 01:06:08 2020.

 --------------------------------------------------------------------
 #N Geom=AllCheck Guess=TCheck SCRF=Check GenChk RB3LYP/6-31G(d) Freq
 --------------------------------------------------------------------

 Structure from the checkpoint file:  "JID_6878.chk"
 -------------------------------
 CID_118535409_JID_6878_neutraal
 -------------------------------
 Charge =  0 Multiplicity = 1

 SCF Done:  E(RB3LYP) =  -674.973142633     A.U. after    1 cycles

  Exact polarizability: 151.121 -20.825 147.506 -25.914 -19.664 147.031
 Approx polarizability: 217.279 -41.273 237.388 -56.883 -37.068 247.839

                      1                      2                      3
                      A                      A                      A
 Frequencies --     14.8050                46.6838                48.8859
 Red. masses --      3.8873                 3.8383                 2.6887
 Frc consts  --      0.0005                 0.0049                 0.0038
 IR Inten    --      0.2437                 0.0398                 0.2010

                      4                      5                      6
                      A                      A                      A
 Frequencies --     71.9409               110.8650               185.6725
 Red. masses --      4.1627                 3.9351                 2.7698
 Frc consts  --      0.0127                 0.0285                 0.0563
 IR Inten    --      1.4386                 0.6880                 0.1272

                      7                      8                      9
                      A                      A                      A
 Frequencies --    195.7425               217.3729               233.6625
 Red. masses --      2.6114                 3.3095                 1.3199
 Frc consts  --      0.0590                 0.0921                 0.0425
 IR Inten    --      1.2168                 9.5027                 1.3606

                     10                     11                     12
                      A                      A                      A
 Frequencies --    246.3301               262.8814               273.8114
 Red. masses --      1.8416                 1.5629                 3.9444
 Frc consts  --      0.0658                 0.0636                 0.1742
 IR Inten    --      0.1381                 0.2654                 4.4217

                     13                     14                     15
                      A                      A                      A
 Frequencies --    314.3306               351.6131               369.3079
 Red. masses --      2.3093                 2.9254                 2.1416
 Frc consts  --      0.1344                 0.2131                 0.1721
 IR Inten    --      2.0872                14.8419                 0.3399

                     16                     17                     18
                      A                      A                      A
 Frequencies --    383.3942               418.6590               438.7308
 Red. masses --      1.3399                 1.9693                 2.2549
 Frc consts  --      0.1160                 0.2034                 0.2557
 IR Inten    --     60.7064                 3.4089                 4.1259

                     19                     20                     21
                      A                      A                      A
 Frequencies --    472.6420               512.4035               552.9315
 Red. masses --      4.4547                 3.6664                 3.1071
 Frc consts  --      0.5863                 0.5672                 0.5597
 IR Inten    --      4.8228                 0.9618                 1.7967

                     22                     23                     24
                      A                      A                      A
 Frequencies --    553.3662               609.2766               617.8044
 Red. masses --      4.2349                 5.3356                 3.4305
 Frc consts  --      0.7641                 1.1670                 0.7714
 IR Inten    --      1.7601                 1.6669                 0.7895

                     25                     26                     27
                      A                      A                      A
 Frequencies --    648.7616               683.7241               722.8994
 Red. masses --      3.7687                 5.4563                 1.3680
 Frc consts  --      0.9346                 1.5028                 0.4212
 IR Inten    --      1.0830                 2.0280                30.1331

                     28                     29                     30
                      A                      A                      A
 Frequencies --    748.5027               754.2968               798.2147
 Red. masses --      1.6709                 1.4225                 3.4414
 Frc consts  --      0.5515                 0.4769                 1.2919
 IR Inten    --     13.9451                58.8498                 4.2171

                     31                     32                     33
                      A                      A                      A
 Frequencies --    828.0635               846.2672               851.2560
 Red. masses --      2.1614                 1.3172                 3.7537
 Frc consts  --      0.8732                 0.5558                 1.6026
 IR Inten    --      0.5651                 3.1694                 4.7730

                     34                     35                     36
                      A                      A                      A
 Frequencies --    872.9548               879.6784               918.3499
 Red. masses --      1.5191                 2.2478                 3.7561
 Frc consts  --      0.6820                 1.0248                 1.8664
 IR Inten    --      2.4608                 2.9653                 6.6375

                     37                     38                     39
                      A                      A                      A
 Frequencies --    924.2710               942.2612               942.4018
 Red. masses --      2.1166                 1.2242                 1.2303
 Frc consts  --      1.0653                 0.6404                 0.6438
 IR Inten    --     14.8527                 1.7676                 0.6685

                     40                     41                     42
                      A                      A                      A
 Frequencies --    976.7006               980.0232              1011.7560
 Red. masses --      1.9236                 1.4342                 2.1477
 Frc consts  --      1.0812                 0.8116                 1.2953
 IR Inten    --      7.1414                 1.2341                 6.6967

                     43                     44                     45
                      A                      A                      A
 Frequencies --   1055.1205              1064.0713              1086.6414
 Red. masses --      1.9206                 1.6169                 1.8973
 Frc consts  --      1.2598                 1.0786                 1.3199
 IR Inten    --     29.1322                24.5479                 5.4657

                     46                     47                     48
                      A                      A                      A
 Frequencies --   1103.2692              1114.4005              1149.3719
 Red. masses --      2.4756                 1.8826                 1.3977
 Frc consts  --      1.7754                 1.3775                 1.0879
 IR Inten    --     52.2644                37.6121                12.1986

                     49                     50                     51
                      A                      A                      A
 Frequencies --   1158.2646              1180.5081              1195.3191
 Red. masses --      1.9457                 1.7707                 1.5202
 Frc consts  --      1.5379                 1.4539                 1.2797
 IR Inten    --      1.4373                 2.2095                 3.2298

                     52                     53                     54
                      A                      A                      A
 Frequencies --   1209.4615              1236.3175              1255.2798
 Red. masses --      1.7594                 2.0659                 1.3357
 Frc consts  --      1.5164                 1.8604                 1.2401
 IR Inten    --      3.3903                 7.4439                 4.1225

                     55                     56                     57
                      A                      A                      A
 Frequencies --   1267.0016              1292.4844              1308.7311
 Red. masses --      1.8773                 1.5776                 2.4268
 Frc consts  --      1.7755                 1.5527                 2.4490
 IR Inten    --     97.6830                26.4333                35.9040

                     58                     59                     60
                      A                      A                      A
 Frequencies --   1337.2350              1364.6200              1383.7250
 Red. masses --      1.2070                 1.2101                 5.5489
 Frc consts  --      1.2716                 1.3277                 6.2598
 IR Inten    --      8.3235                 3.2318                12.1722

                     61                     62                     63
                      A                      A                      A
 Frequencies --   1387.4229              1397.9694              1415.3600
 Red. masses --      1.4833                 1.8119                 1.4535
 Frc consts  --      1.6822                 2.0863                 1.7155
 IR Inten    --     16.1495                57.9901                 3.9243

                     64                     65                     66
                      A                      A                      A
 Frequencies --   1418.0240              1429.5746              1438.0591
 Red. masses --      1.4574                 1.3070                 1.3244
 Frc consts  --      1.7267                 1.5737                 1.6137
 IR Inten    --      4.2143                 5.0045                 6.8887

                     67                     68                     69
                      A                      A                      A
 Frequencies --   1449.1188              1453.7383              1478.4169
 Red. masses --      1.2495                 4.5052                 2.2910
 Frc consts  --      1.5459                 5.6097                 2.9504
 IR Inten    --      3.5896                15.5388                14.5750

                     70                     71                     72
                      A                      A                      A
 Frequencies --   1504.5864              1515.4297              1524.0575
 Red. masses --      1.0787                 1.0672                 1.0557
 Frc consts  --      1.4387                 1.4440                 1.4448
 IR Inten    --      0.6412                 4.8113                 6.4730

                     73                     74                     75
                      A                      A                      A
 Frequencies --   1528.2590              1530.1857              1535.1526
 Red. masses --      1.0686                 1.1940                 1.0605
 Frc consts  --      1.4705                 1.6472                 1.4725
 IR Inten    --      7.3583                14.3411                 1.4985

                     76                     77                     78
                      A                      A                      A
 Frequencies --   1542.4147              1554.9753              1566.9145
 Red. masses --      1.0543                 2.4614                 4.3600
 Frc consts  --      1.4778                 3.5066                 6.3071
 IR Inten    --     12.0001                63.5677                 4.1491

                     79                     80                     81
                      A                      A                      A
 Frequencies --   1634.2922              1672.2758              3024.2067
 Red. masses --      5.8165                 6.8509                 1.0688
 Frc consts  --      9.1531                11.2880                 5.7595
 IR Inten    --     43.6314                20.2492                15.5048

                     82                     83                     84
                      A                      A                      A
 Frequencies --   3033.3336              3035.2893              3040.3306
 Red. masses --      1.0396                 1.0489                 1.0524
 Frc consts  --      5.6358                 5.6934                 5.7318
 IR Inten    --     19.9365                26.1569                48.4013

                     85                     86                     87
                      A                      A                      A
 Frequencies --   3057.9418              3070.7092              3076.1669
 Red. masses --      1.0787                 1.0772                 1.0821
 Frc consts  --      5.9429                 5.9847                 6.0328
 IR Inten    --     18.4045                35.1141                33.8813

                     88                     89                     90
                      A                      A                      A
 Frequencies --   3095.8670              3101.2196              3105.3870
 Red. masses --      1.1008                 1.0937                 1.0992
 Frc consts  --      6.2159                 6.1977                 6.2451
 IR Inten    --      2.9783                26.6838                65.4051

                     91                     92                     93
                      A                      A                      A
 Frequencies --   3109.5288              3116.4508              3125.6594
 Red. masses --      1.1012                 1.1011                 1.1052
 Frc consts  --      6.2736                 6.3010                 6.3617
 IR Inten    --     46.4992                43.0228                35.1816

                     94                     95                     96
                      A                      A                      A
 Frequencies --   3188.9511              3203.9773              3217.0248
 Red. masses --      1.0861                 1.0926                 1.0944
 Frc consts  --      6.5077                 6.6084                 6.6731
 IR Inten    --      3.2094                24.1352                11.0209

                     97                     98                     99
                      A                      A                      A
 Frequencies --   3267.5904              3286.3670              3673.7803
 Red. masses --      1.0898                 1.1034                 1.0801
 Frc consts  --      6.8555                 7.0211                 8.5889
 IR Inten    --      0.6684                 4.2477                63.2758

 - Thermochemistry -
 -------------------
 Temperature   298.150 Kelvin.  Pressure   1.00000 Atm.
 Atom     1 has atomic number  6 and mass  12.00000

 Molecular mass:   217.14666 amu.
 Principal axes and moments of inertia in atomic units:
                           1         2         3
     Eigenvalues --  2544.334574491.792084554.72757
           X            0.99996   0.00309   0.00897
           Y           -0.00131   0.98143  -0.19183
           Z           -0.00939   0.19181   0.98139
 This molecule is an asymmetric top.
 Rotational symmetry number  1.
 Warning -- assumption of classical behavior for rotation
           may cause significant error
 Rotational temperatures (Kelvin)      0.03404     0.01928     0.01902
 Rotational constants (GHZ):           0.70932     0.40179     0.39623
 Zero-point vibrational energy     803898.5 (Joules/Mol)
                                  192.13634 (Kcal/Mol)
 Warning -- explicit consideration of  24 degrees of freedom as
           vibrations may cause significant error
 Vibrational temperatures:     21.30    67.17    70.34   103.51   159.51
          (Kelvin)            267.14   281.63   312.75   336.19   354.41
                              378.23   393.95   452.25   505.89   531.35
                              551.62   602.36   631.24   680.03   737.23
                              795.55   796.17   876.61   888.88   933.42
                              983.73  1040.09  1076.93  1085.26  1148.45
                             1191.40  1217.59  1224.77  1255.99  1265.66
                             1321.30  1329.82  1355.70  1355.91  1405.25
                             1410.03  1455.69  1518.08  1530.96  1563.43
                             1587.36  1603.37  1653.69  1666.48  1698.49
                             1719.80  1740.15  1778.79  1806.07  1822.93
                             1859.60  1882.97  1923.98  1963.38  1990.87
                             1996.19  2011.37  2036.39  2040.22  2056.84
                             2069.05  2084.96  2091.61  2127.11  2164.76
                             2180.37  2192.78  2198.82  2201.60  2208.74
                             2219.19  2237.26  2254.44  2351.38  2406.03
                             4351.16  4364.29  4367.10  4374.36  4399.70
                             4418.07  4425.92  4454.26  4461.96  4467.96
                             4473.92  4483.88  4497.13  4588.19  4609.81
                             4628.58  4701.33  4728.35  5285.75

 Zero-point correction=                           0.306189 (Hartree/Particle)
 Thermal correction to Energy=                    0.321526
 Thermal correction to Enthalpy=                  0.322471
 Thermal correction to Gibbs Free Energy=         0.262626
 Sum of electronic and zero-point Energies=           -674.666954
 Sum of electronic and thermal Energies=              -674.651616
 Sum of electronic and thermal Enthalpies=            -674.650672
 Sum of electronic and thermal Free Energies=         -674.710516

                     E (Thermal)             CV                S
                      KCal/Mol        Cal/Mol-Kelvin    Cal/Mol-Kelvin
 Total                  201.761             60.050            125.953
 Electronic               0.000              0.000              0.000
 Translational            0.889              2.981             42.029
 Rotational               0.889              2.981             32.321
 Vibrational            199.983             54.088             51.603
 Vibration     1          0.593              1.986              7.232
 Vibration     2          0.595              1.979              4.953
 Vibration     3          0.595              1.978              4.862
 Vibration     4          0.598              1.967              4.100
 Vibration     5          0.607              1.940              3.254
 Vibration     6          0.632              1.859              2.271
 Vibration     7          0.636              1.846              2.173
 Vibration     8          0.646              1.815              1.981
 Vibration     9          0.654              1.789              1.851
 Vibration    10          0.661              1.769              1.757
 Vibration    11          0.670              1.741              1.643
 Vibration    12          0.676              1.722              1.572
 Vibration    13          0.702              1.646              1.339
 Vibration    14          0.728              1.572              1.159
 Vibration    15          0.742              1.535              1.083
 Vibration    16          0.753              1.506              1.026
 Vibration    17          0.782              1.430              0.897
 Vibration    18          0.799              1.386              0.831
 Vibration    19          0.830              1.311              0.730
 Vibration    20          0.867              1.223              0.628
 Vibration    21          0.908              1.133              0.538
 Vibration    22          0.909              1.132              0.537
 Vibration    23          0.968              1.012              0.434
 Vibration    24          0.978              0.994              0.420

                           ! Non-Optimized Parameters !
 Normal termination of Gaussian 16 at Fri Dec 11 01:18:43 2020.

 ----------------------------------------------------------------------
 # B3LYP/6-311++G(d,p) empiricaldispersion=gd3bj scf=xqc pop=npa geom=c
 heck
 ----------------------------------------------------------------------

 ---------------------------------------
 CID_118535409_JID_6878_Energie_neutraal
 ---------------------------------------
 Structure from the checkpoint file:  "JID_6878.chk"
 Charge =  0 Multiplicity = 1

 SCF Done:  E(RB3LYP) =  -675.156385669     A.U. after   15 cycles
 Normal termination of Gaussian 16 at Fri Dec 11 01:23:57 2020.

 ----------------------------------------------------------------------
 # B3LYP/6-311++G(d,p) empiricaldispersion=gd3bj scf=xqc pop=npa geom=c
 heck
 ----------------------------------------------------------------------

 -------------------------------------
 CID_118535409_JID_6878_Energie_kation
 -------------------------------------
 Structure from the checkpoint file:  "JID_6878.chk"
 Charge =  1 Multiplicity = 2

 SCF Done:  E(UB3LYP) =  -674.887700039     A.U. after   23 cycles
 Normal termination of Gaussian 16 at Fri Dec 11 01:34:33 2020.
 Gaussian 16:  ES64L-G16RevA.03 25-Dec-2016

 ----------------------------------------------------------------------
 # B3LYP/6-311++G(d,p) empiricaldispersion=gd3bj scf=xqc pop=npa geom=c
 heck
 ----------------------------------------------------------------------

 ------------------------------------
 CID_118535409_JID_6878_Energie_anion
 ------------------------------------
 Structure from the checkpoint file:  "JID_6878.chk"
 Charge = -1 Multiplicity = 2

                         Standard orientation:
 ---------------------------------------------------------------------
 Center     Atomic      Atomic             Coordinates (Angstroms)
 Number     Number       Type             X           Y           Z
 ---------------------------------------------------------------------
      1          6           0        2.840599    0.492397    2.019779
      2          6           0        1.979476    0.854534    0.803774
      3          6           0        1.795005    2.372274    0.689052
      4          6           0        2.563638    0.296823   -0.506620
      5          6           0        2.636496   -1.233799   -0.618912
      6          6           0        1.306509   -1.960011   -0.428947
      7          8           0        0.347438   -1.602093   -1.438886
      8          6           0       -0.540532   -0.594875   -1.151302
      9          6           0       -0.635524    0.474927   -2.033916
     10          6           0       -1.534769    1.533301   -1.805184
     11          6           0       -2.358474    1.555053   -0.687415
     12          6           0       -2.275691    0.463193    0.183608
     13          6           0       -1.392898   -0.634128   -0.026868
     14          6           0       -1.626561   -1.571113    1.040810
     15          6           0       -2.598679   -1.034245    1.843097
     16          7           0       -2.986775    0.192143    1.335891
     17          1           0        3.857108    0.893348    1.911154
     18          1           0        2.924242   -0.591772    2.156204
     19          1           0        2.415003    0.908428    2.940378
     20          1           0        0.982173    0.422490    0.952460
     21          1           0        2.754416    2.873574    0.504277
     22          1           0        1.117109    2.618754   -0.135722
     23          1           0        1.371917    2.790634    1.609985
     24          1           0        1.969976    0.680387   -1.342730
     25          1           0        3.577298    0.702792   -0.638142
     26          1           0        3.037248   -1.499562   -1.605033
     27          1           0        3.339539   -1.640269    0.121661
     28          1           0        1.452312   -3.040395   -0.530821
     29          1           0        0.897665   -1.767302    0.566589
     30          1           0        0.014459    0.480126   -2.902514
     31          1           0       -1.572847    2.354783   -2.514605
     32          1           0       -3.044555    2.376458   -0.503721
     33          1           0       -1.154123   -2.531679    1.181387
     34          1           0       -3.057237   -1.427157    2.739295
     35          1           0       -3.705369    0.782119    1.723997
 ---------------------------------------------------------------------

 SCF Done:  E(UB3LYP) =  -675.145202454     A.U. after   33 cycles
 SCF Done:  E(UB3LYP) =  -675.145202454     a.u. after    1 cycles

 The electronic state is 2-A.
 Alpha  occ. eigenvalues --  -19.04588 -14.25344 -10.13249 -10.12916 -10.10957
 Alpha  occ. eigenvalues --  -10.10526 -10.07936 -10.07742 -10.07685 -10.07579
 Alpha  occ. eigenvalues --  -10.07409 -10.07162 -10.06805 -10.06555 -10.06509
 Alpha  occ. eigenvalues --  -10.06215  -0.96058  -0.88012  -0.74588  -0.72404
 Alpha  occ. eigenvalues --   -0.68712  -0.67495  -0.64084  -0.62368  -0.59206
 Alpha  occ. eigenvalues --   -0.58473  -0.52922  -0.52025  -0.49870  -0.48931
 Alpha  occ. eigenvalues --   -0.46543  -0.44018  -0.40508  -0.39541  -0.38057
 Alpha  occ. eigenvalues --   -0.37782  -0.36485  -0.35721  -0.34950  -0.33761
 Alpha  occ. eigenvalues --   -0.32758  -0.32496  -0.30846  -0.30156  -0.29847
 Alpha  occ. eigenvalues --   -0.29214  -0.28525  -0.27722  -0.26615  -0.26349
 Alpha  occ. eigenvalues --   -0.25531  -0.23672  -0.23387  -0.22752  -0.22005
 Alpha  occ. eigenvalues --   -0.20009  -0.16762  -0.13168  -0.10653   0.04221
 Alpha virt. eigenvalues --    0.05936   0.06872   0.07376   0.07723   0.08067
 Alpha virt. eigenvalues --    0.08186   0.09103   0.09600   0.10354   0.10545
 Alpha virt. eigenvalues --    0.10664   0.11045   0.12014   0.12274   0.13005

  Beta  occ. eigenvalues --  -19.04587 -14.25286 -10.13249 -10.12907 -10.10958
  Beta  occ. eigenvalues --  -10.10501 -10.07927 -10.07740 -10.07682 -10.07574
  Beta  occ. eigenvalues --  -10.07394 -10.07157 -10.06804 -10.06536 -10.06505
  Beta  occ. eigenvalues --  -10.06206  -0.96055  -0.87949  -0.74569  -0.72391
  Beta  occ. eigenvalues --   -0.68676  -0.67467  -0.64062  -0.62341  -0.59175
  Beta  occ. eigenvalues --   -0.58451  -0.52882  -0.51980  -0.49825  -0.48895
  Beta  occ. eigenvalues --   -0.46510  -0.43972  -0.40466  -0.39521  -0.38031
  Beta  occ. eigenvalues --   -0.37744  -0.36455  -0.35693  -0.34931  -0.33736
  Beta  occ. eigenvalues --   -0.32732  -0.32464  -0.30823  -0.30126  -0.29827
  Beta  occ. eigenvalues --   -0.29197  -0.28512  -0.27705  -0.26595  -0.26332
  Beta  occ. eigenvalues --   -0.25514  -0.23659  -0.23369  -0.22735  -0.21994
  Beta  occ. eigenvalues --   -0.20000  -0.16748  -0.13159  -0.10637
  Beta virt. eigenvalues --    0.06070   0.07123   0.07459   0.07534   0.07775
  Beta virt. eigenvalues --    0.08660   0.09007   0.09230   0.09765   0.10526
  Beta virt. eigenvalues --    0.10728   0.11210   0.11306   0.12161   0.12318

 Mulliken charges and spin densities:
               1          2
     1  C    0.002399  -0.614353
     2  C   -0.096650   0.479263
     3  C   -0.404155  -0.302356
     4  C   -0.307369   0.254429
     5  C    0.081300  -0.751317
     6  C   -0.340075   0.170055
     7  O   -0.084368   0.003958
     8  C   -0.370569  -0.484412
     9  C   -0.406412   0.312481
    10  C    0.257360  -0.636777
    11  C   -0.304747  -0.130276
    12  C   -0.225937   0.068027
    13  C    1.285003  -0.312492
    14  C    1.490211  -1.498312
    15  C   -0.020820  -0.183974
    16  N   -0.035435  -0.029942
    17  H   -0.019907   0.155569
    18  H   -0.084959   0.226412
    19  H   -0.037824   0.179637
    20  H    0.762856  -0.504753
    21  H    0.041059   0.077626
    22  H    0.109300   0.041941
    23  H   -0.032527   0.166542
    24  H    0.114682   0.025027
    25  H    0.047217   0.117767
    26  H    0.117367   0.059344
    27  H   -0.012141   0.139988
    28  H   -0.091408   0.271816
    29  H    0.058254   0.027414
    30  H    0.096544   0.069428
    31  H    0.180918  -0.028721
    32  H   -0.590676   0.767002
    33  H   -0.126349   0.279907
    34  H   -1.408099   1.599427
    35  H   -0.644042   0.984627
 Sum of Mulliken charges =  -1.00000   1.00000

 Dipole moment (field-independent basis, Debye):
    X=              7.6383    Y=             -0.3435    Z=             -6.4205  Tot=              9.9842
 Quadrupole moment (field-independent basis, Debye-Ang):
   XX=           -177.0020   YY=           -137.5407   ZZ=           -147.9080
   XY=              5.3326   XZ=             18.3161   YZ=             -2.6035

 Summary of Natural Population Analysis:

                                       Natural Population
                Natural  -----------------------------------------------
    Atom  No    Charge         Core      Valence    Rydberg      Total
 -----------------------------------------------------------------------
      C    1   -0.28354      0.99965     2.27910    0.00479     3.28354
      C    2   -0.12579      0.99961     2.11688    0.00931     3.12579
      C    3   -0.28068      0.99965     2.27627    0.00476     3.28068
      C    4   -0.19202      0.99961     2.18335    0.00906     3.19202
      C    5   -0.20052      0.99962     2.19245    0.00845     3.20052
      C    6   -0.01139      0.99954     1.99958    0.01227     3.01139
      O    7   -0.29072      0.99986     3.28152    0.00934     4.29072
      C    8    0.16264      0.99932     1.82446    0.01358     2.83736
      C    9   -0.13987      0.99952     2.13120    0.00915     3.13987
      C   10   -0.10477      0.99958     2.09496    0.01023     3.10477
      C   11   -0.12269      0.99952     2.11330    0.00987     3.12269
      C   12    0.08105      0.99949     1.90606    0.01340     2.91895
      C   13   -0.07404      0.99944     2.06442    0.01018     3.07404
      C   14   -0.15280      0.99953     2.14315    0.01011     3.15280
      C   15    0.01158      0.99956     1.97537    0.01349     2.98842
      N   16   -0.26793      0.99966     2.75656    0.01170     3.76793
      H   17    0.09317      0.00000     0.40589    0.00094     0.40683
      H   18    0.09799      0.00000     0.40087    0.00115     0.40201
      H   19    0.10069      0.00000     0.39848    0.00083     0.39931
      H   20    0.10153      0.00000     0.39547    0.00300     0.39847
      H   21    0.09104      0.00000     0.40812    0.00084     0.40896
      H   22    0.10352      0.00000     0.39555    0.00093     0.39648
      H   23    0.09964      0.00000     0.39955    0.00081     0.40036
      H   24    0.10306      0.00000     0.39555    0.00139     0.39694
      H   25    0.09416      0.00000     0.40494    0.00090     0.40584
      H   26    0.09754      0.00000     0.40147    0.00099     0.40246
      H   27    0.09802      0.00000     0.40089    0.00109     0.40198
      H   28    0.08839      0.00000     0.41058    0.00103     0.41161
      H   29    0.08980      0.00000     0.40843    0.00177     0.41020
      H   30    0.10302      0.00000     0.39598    0.00100     0.39698
      H   31    0.09811      0.00000     0.40117    0.00072     0.40189
      H   32    0.10647      0.00000     0.39238    0.00115     0.39353
      H   33    0.10809      0.00000     0.39089    0.00102     0.39191
      H   34    0.10567      0.00000     0.39043    0.00390     0.39433
      H   35    0.21158      0.00000     0.25683    0.03159     0.28842
 =======================================================================
   * Total *    0.00000     15.99314    42.79211    0.21475    59.00000

 Normal termination of Gaussian 16 at Fri Dec 11 01:50:02 2020.
