 Gaussian 16, Revision A.03,

 -----------------------------------------------------------
 # opt freq B3LYP/6-31G(d) empiricaldispersion=gd3bj scf=xqc
 -----------------------------------------------------------

 ------------------------------
 CID_54182431_JID_7724_neutraal
 ------------------------------
 Symbolic Z-matrix:
 Charge =  0 Multiplicity = 1

 SCF Done:  E(RB3LYP) =  -751.412466037     A.U. after   14 cycles
 SCF Done:  E(RB3LYP) =  -751.416146840     A.U. after   13 cycles
 SCF Done:  E(RB3LYP) =  -751.414342503     A.U. after   12 cycles
 SCF Done:  E(RB3LYP) =  -751.417062606     A.U. after   12 cycles
 SCF Done:  E(RB3LYP) =  -751.417247952     A.U. after   12 cycles
 SCF Done:  E(RB3LYP) =  -751.417365287     A.U. after   12 cycles
 SCF Done:  E(RB3LYP) =  -751.417430119     A.U. after   11 cycles
 SCF Done:  E(RB3LYP) =  -751.417459460     A.U. after   11 cycles
 SCF Done:  E(RB3LYP) =  -751.417473831     A.U. after   11 cycles
 SCF Done:  E(RB3LYP) =  -751.417484933     A.U. after   10 cycles
 SCF Done:  E(RB3LYP) =  -751.417488706     A.U. after   10 cycles
 SCF Done:  E(RB3LYP) =  -751.417489420     A.U. after    8 cycles
 SCF Done:  E(RB3LYP) =  -751.417489413     A.U. after    7 cycles
 SCF Done:  E(RB3LYP) =  -751.417489486     A.U. after    6 cycles
 Optimization completed.
    -- Stationary point found.
 Normal termination of Gaussian 16 at Fri Dec 11 13:07:52 2020.

 --------------------------------------------------------------------
 #N Geom=AllCheck Guess=TCheck SCRF=Check GenChk RB3LYP/6-31G(d) Freq
 --------------------------------------------------------------------

 Structure from the checkpoint file:  "JID_7724.chk"
 ------------------------------
 CID_54182431_JID_7724_neutraal
 ------------------------------
 Charge =  0 Multiplicity = 1

 SCF Done:  E(RB3LYP) =  -751.417489486     A.U. after    1 cycles

  Exact polarizability: 190.364  20.684 132.129   9.251 -13.997 138.461
 Approx polarizability: 237.400  37.412 198.563  16.667 -31.336 236.415

                      1                      2                      3
                      A                      A                      A
 Frequencies --     13.3275                24.6673                26.8720
 Red. masses --      4.2256                 4.1629                 3.8910
 Frc consts  --      0.0004                 0.0015                 0.0017
 IR Inten    --      0.4671                 0.5516                 0.6671

                      4                      5                      6
                      A                      A                      A
 Frequencies --     50.8019                60.1675                90.0745
 Red. masses --      4.0010                 3.4784                 4.0707
 Frc consts  --      0.0061                 0.0074                 0.0195
 IR Inten    --      0.2604                 0.1088                 0.7988

                      7                      8                      9
                      A                      A                      A
 Frequencies --    115.5039               145.7530               174.7118
 Red. masses --      4.0914                 2.9676                 4.2554
 Frc consts  --      0.0322                 0.0371                 0.0765
 IR Inten    --      0.2846                 0.6927                 0.5302

                     10                     11                     12
                      A                      A                      A
 Frequencies --    193.7156               225.5560               238.3079
 Red. masses --      1.6583                 2.6709                 1.0727
 Frc consts  --      0.0367                 0.0801                 0.0359
 IR Inten    --      1.6156                 1.6081                 0.3493

                     13                     14                     15
                      A                      A                      A
 Frequencies --    251.3734               277.8472               291.4051
 Red. masses --      1.5704                 1.6232                 1.4968
 Frc consts  --      0.0585                 0.0738                 0.0749
 IR Inten    --      0.5884                 1.6061                 2.4358

                     16                     17                     18
                      A                      A                      A
 Frequencies --    323.1908               340.6867               368.3960
 Red. masses --      3.1457                 2.5570                 2.6425
 Frc consts  --      0.1936                 0.1749                 0.2113
 IR Inten    --      0.2535                 4.8686                 7.6711

                     19                     20                     21
                      A                      A                      A
 Frequencies --    373.8303               375.8151               416.4098
 Red. masses --      3.1271                 2.1917                 2.9875
 Frc consts  --      0.2575                 0.1824                 0.3052
 IR Inten    --      6.4612                 2.2468                 0.0213

                     22                     23                     24
                      A                      A                      A
 Frequencies --    445.8822               467.6258               506.9102
 Red. masses --      2.9695                 3.7021                 3.9021
 Frc consts  --      0.3478                 0.4770                 0.5908
 IR Inten    --      3.8862                 4.5747                 5.0032

                     25                     26                     27
                      A                      A                      A
 Frequencies --    527.3995               589.1910               617.4590
 Red. masses --      3.9023                 3.3274                 2.9258
 Frc consts  --      0.6395                 0.6806                 0.6572
 IR Inten    --      2.9131                 6.1849                10.4225

                     28                     29                     30
                      A                      A                      A
 Frequencies --    637.9815               715.7253               765.3839
 Red. masses --      6.2266                 1.7670                 3.9686
 Frc consts  --      1.4932                 0.5333                 1.3698
 IR Inten    --      0.0686                33.2622                43.0733

                     31                     32                     33
                      A                      A                      A
 Frequencies --    771.1979               780.0802               790.6838
 Red. masses --      2.3293                 1.5381                 1.8493
 Frc consts  --      0.8162                 0.5515                 0.6812
 IR Inten    --      7.3609                54.1797                 6.6863

                     34                     35                     36
                      A                      A                      A
 Frequencies --    842.9734               847.5340               861.1536
 Red. masses --      2.0155                 2.4646                 1.2529
 Frc consts  --      0.8438                 1.0431                 0.5474
 IR Inten    --      1.3655                50.9054                 0.8747

                     37                     38                     39
                      A                      A                      A
 Frequencies --    883.3434               910.6683               920.6702
 Red. masses --      2.7027                 2.0868                 1.8823
 Frc consts  --      1.2425                 1.0196                 0.9401
 IR Inten    --      9.5316                 1.2035                 7.1567

                     40                     41                     42
                      A                      A                      A
 Frequencies --    930.1561               961.4412               965.4883
 Red. masses --      1.6926                 1.6240                 1.3623
 Frc consts  --      0.8628                 0.8844                 0.7482
 IR Inten    --      0.1536                 8.7821                 0.1231

                     43                     44                     45
                      A                      A                      A
 Frequencies --    970.2034               994.5256              1020.6709
 Red. masses --      1.5693                 1.2478                 2.5713
 Frc consts  --      0.8703                 0.7271                 1.5783
 IR Inten    --     11.8478                 0.6187                 4.4643

                     46                     47                     48
                      A                      A                      A
 Frequencies --   1022.9226              1032.7371              1051.4639
 Red. masses --      3.7783                 1.3743                 3.4780
 Frc consts  --      2.3293                 0.8636                 2.2655
 IR Inten    --      0.5130                 2.2408                32.3348

                     49                     50                     51
                      A                      A                      A
 Frequencies --   1059.9854              1081.0404              1121.2196
 Red. masses --      2.2399                 1.7216                 1.6088
 Frc consts  --      1.4828                 1.1854                 1.1916
 IR Inten    --      1.5088                 0.9905                 9.1865

                     52                     53                     54
                      A                      A                      A
 Frequencies --   1133.1100              1145.8453              1189.0414
 Red. masses --      1.9504                 3.7960                 2.5506
 Frc consts  --      1.4754                 2.9365                 2.1246
 IR Inten    --     16.7770                63.2634               174.5719

                     55                     56                     57
                      A                      A                      A
 Frequencies --   1193.3524              1199.5917              1214.1537
 Red. masses --      1.1186                 1.7079                 1.1394
 Frc consts  --      0.9386                 1.4480                 0.9896
 IR Inten    --      0.9293                 6.6891                 0.3429

                     58                     59                     60
                      A                      A                      A
 Frequencies --   1215.1575              1228.9597              1242.5934
 Red. masses --      1.8720                 3.1882                 2.0461
 Frc consts  --      1.6286                 2.8371                 1.8614
 IR Inten    --     51.1855                12.0221               113.4581

                     61                     62                     63
                      A                      A                      A
 Frequencies --   1280.4187              1306.7749              1342.5713
 Red. masses --      2.8017                 1.9859                 1.1253
 Frc consts  --      2.7063                 1.9981                 1.1951
 IR Inten    --     75.0219                89.6762                13.6784

                     64                     65                     66
                      A                      A                      A
 Frequencies --   1355.0835              1366.4258              1374.0848
 Red. masses --      1.8686                 2.9585                 1.3195
 Frc consts  --      2.0216                 3.2545                 1.4678
 IR Inten    --     24.3439                 2.2564                 2.0937

                     67                     68                     69
                      A                      A                      A
 Frequencies --   1382.4510              1407.6858              1417.9614
 Red. masses --      1.2889                 1.3285                 1.2904
 Frc consts  --      1.4514                 1.5510                 1.5286
 IR Inten    --     13.0517                 2.2914                 3.4643

                     70                     71                     72
                      A                      A                      A
 Frequencies --   1423.2525              1441.9220              1453.2510
 Red. masses --      1.2259                 1.3100                 1.2738
 Frc consts  --      1.4631                 1.6047                 1.5850
 IR Inten    --      7.9083                13.2635                13.4683

                     73                     74                     75
                      A                      A                      A
 Frequencies --   1501.4359              1503.7130              1511.7430
 Red. masses --      1.2313                 1.7721                 1.1388
 Frc consts  --      1.6354                 2.3609                 1.5334
 IR Inten    --      9.5092                 3.7324                 4.5666

                     76                     77                     78
                      A                      A                      A
 Frequencies --   1515.4859              1515.5709              1518.7961
 Red. masses --      1.0669                 1.0539                 1.0790
 Frc consts  --      1.4437                 1.4262                 1.4664
 IR Inten    --      4.1417                 8.2678                 3.6513

                     79                     80                     81
                      A                      A                      A
 Frequencies --   1527.7320              1530.3319              1538.7669
 Red. masses --      1.0632                 1.0542                 1.1028
 Frc consts  --      1.4620                 1.4545                 1.5385
 IR Inten    --      1.8231                 7.7590                21.8068

                     82                     83                     84
                      A                      A                      A
 Frequencies --   1539.0652              1546.8935              1550.2200
 Red. masses --      1.0681                 2.1525                 1.0674
 Frc consts  --      1.4907                 3.0348                 1.5114
 IR Inten    --      6.2321                 5.5992                24.7211

                     85                     86                     87
                      A                      A                      A
 Frequencies --   1647.2835              1666.6358              1804.8011
 Red. masses --      5.5140                 5.5861                11.1419
 Frc consts  --      8.8156                 9.1420                21.3830
 IR Inten    --      0.8526                 2.0123               150.8732

                     88                     89                     90
                      A                      A                      A
 Frequencies --   2979.1285              3051.9888              3052.2837
 Red. masses --      1.0712                 1.0420                 1.0541
 Frc consts  --      5.6012                 5.7183                 5.7863
 IR Inten    --     45.2137                29.0671                26.5179

                     91                     92                     93
                      A                      A                      A
 Frequencies --   3057.0485              3060.4558              3094.3756
 Red. masses --      1.0382                 1.0365                 1.0593
 Frc consts  --      5.7165                 5.7197                 5.9759
 IR Inten    --     29.5992                20.0500                24.7203

                     94                     95                     96
                      A                      A                      A
 Frequencies --   3095.8932              3098.7415              3117.0487
 Red. masses --      1.1009                 1.0947                 1.1023
 Frc consts  --      6.2168                 6.1932                 6.3104
 IR Inten    --      8.2673                21.2554                14.1384

                     97                     98                     99
                      A                      A                      A
 Frequencies --   3124.7522              3125.2709              3141.2162
 Red. masses --      1.0998                 1.1009                 1.1038
 Frc consts  --      6.3267                 6.3357                 6.4170
 IR Inten    --     55.8513                13.5920                 5.4652

                    100                    101                    102
                      A                      A                      A
 Frequencies --   3142.2250              3143.0940              3160.0464
 Red. masses --      1.1018                 1.1018                 1.1071
 Frc consts  --      6.4094                 6.4132                 6.5139
 IR Inten    --     25.3728                17.4787                28.1681

                    103                    104                    105
                      A                      A                      A
 Frequencies --   3165.3505              3176.5512              3187.4901
 Red. masses --      1.0875                 1.0864                 1.0892
 Frc consts  --      6.4196                 6.4589                 6.5199
 IR Inten    --     11.8946                 6.5859                 5.2621

                    106                    107                    108
                      A                      A                      A
 Frequencies --   3196.7196              3209.3874              3493.1275
 Red. masses --      1.0935                 1.0978                 1.0734
 Frc consts  --      6.5840                 6.6621                 7.7166
 IR Inten    --     39.5620                24.1426                 0.2625

 - Thermochemistry -
 -------------------
 Temperature   298.150 Kelvin.  Pressure   1.00000 Atm.
 Atom     1 has atomic number  6 and mass  12.00000

 Molecular mass:   235.15723 amu.
 Principal axes and moments of inertia in atomic units:
                           1         2         3
     Eigenvalues --  1598.878309358.862789620.15576
           X            1.00000   0.00234  -0.00048
           Y           -0.00234   0.99999  -0.00292
           Z            0.00047   0.00292   1.00000
 This molecule is an asymmetric top.
 Rotational symmetry number  1.
 Warning -- assumption of classical behavior for rotation
           may cause significant error
 Rotational temperatures (Kelvin)      0.05417     0.00925     0.00900
 Rotational constants (GHZ):           1.12875     0.19284     0.18760
 Zero-point vibrational energy     873731.4 (Joules/Mol)
                                  208.82683 (Kcal/Mol)
 Warning -- explicit consideration of  27 degrees of freedom as
           vibrations may cause significant error
 Vibrational temperatures:     19.18    35.49    38.66    73.09    86.57
          (Kelvin)            129.60   166.18   209.71   251.37   278.71
                              324.52   342.87   361.67   399.76   419.27
                              465.00   490.17   530.04   537.86   540.71
                              599.12   641.53   672.81   729.33   758.81
                              847.71   888.39   917.91  1029.77  1101.22
                             1109.58  1122.36  1137.62  1212.85  1219.41
                             1239.01  1270.93  1310.25  1324.64  1338.29
                             1383.30  1389.12  1395.91  1430.90  1468.52
                             1471.76  1485.88  1512.82  1525.08  1555.38
                             1613.18  1630.29  1648.62  1710.77  1716.97
                             1725.94  1746.90  1748.34  1768.20  1787.81
                             1842.24  1880.16  1931.66  1949.66  1965.98
                             1977.00  1989.04  2025.35  2040.13  2047.74
                             2074.60  2090.90  2160.23  2163.51  2175.06
                             2180.45  2180.57  2185.21  2198.07  2201.81
                             2213.94  2214.37  2225.63  2230.42  2370.07
                             2397.92  2596.71  4286.30  4391.13  4391.56
                             4398.41  4403.31  4452.12  4454.30  4458.40
                             4484.74  4495.82  4496.57  4519.51  4520.96
                             4522.21  4546.60  4554.23  4570.35  4586.09
                             4599.37  4617.59  5025.83

 Zero-point correction=                           0.332787 (Hartree/Particle)
 Thermal correction to Energy=                    0.350627
 Thermal correction to Enthalpy=                  0.351572
 Thermal correction to Gibbs Free Energy=         0.284211
 Sum of electronic and zero-point Energies=           -751.084703
 Sum of electronic and thermal Energies=              -751.066862
 Sum of electronic and thermal Enthalpies=            -751.065918
 Sum of electronic and thermal Free Energies=         -751.133278

                     E (Thermal)             CV                S
                      KCal/Mol        Cal/Mol-Kelvin    Cal/Mol-Kelvin
 Total                  220.022             66.792            141.771
 Electronic               0.000              0.000              0.000
 Translational            0.889              2.981             42.267
 Rotational               0.889              2.981             33.331
 Vibrational            218.245             60.831             66.173
 Vibration     1          0.593              1.987              7.440
 Vibration     2          0.593              1.985              6.218
 Vibration     3          0.593              1.984              6.048
 Vibration     4          0.595              1.977              4.786
 Vibration     5          0.597              1.973              4.452
 Vibration     6          0.602              1.956              3.658
 Vibration     7          0.608              1.937              3.174
 Vibration     8          0.617              1.907              2.727
 Vibration     9          0.627              1.874              2.384
 Vibration    10          0.635              1.849              2.192
 Vibration    11          0.650              1.802              1.914
 Vibration    12          0.656              1.782              1.815
 Vibration    13          0.663              1.760              1.721
 Vibration    14          0.679              1.714              1.547
 Vibration    15          0.687              1.690              1.466
 Vibration    16          0.708              1.629              1.294
 Vibration    17          0.720              1.594              1.209
 Vibration    18          0.741              1.537              1.086
 Vibration    19          0.745              1.526              1.064
 Vibration    20          0.747              1.522              1.056
 Vibration    21          0.780              1.435              0.904
 Vibration    22          0.805              1.370              0.808
 Vibration    23          0.825              1.322              0.744
 Vibration    24          0.862              1.235              0.641
 Vibration    25          0.882              1.189              0.593
 Vibration    26          0.946              1.055              0.469
 Vibration    27          0.977              0.995              0.421

 Optimization completed.
    -- Stationary point found.
 Normal termination of Gaussian 16 at Fri Dec 11 13:20:37 2020.

 ----------------------------------------------------------------------
 # B3LYP/6-311++G(d,p) empiricaldispersion=gd3bj scf=xqc pop=npa geom=c
 heck
 ----------------------------------------------------------------------

 --------------------------------------
 CID_54182431_JID_7724_Energie_neutraal
 --------------------------------------
 Structure from the checkpoint file:  "JID_7724.chk"
 Charge =  0 Multiplicity = 1

 SCF Done:  E(RB3LYP) =  -751.630326328     A.U. after   15 cycles
 Normal termination of Gaussian 16 at Fri Dec 11 13:26:13 2020.

 ----------------------------------------------------------------------
 # B3LYP/6-311++G(d,p) empiricaldispersion=gd3bj scf=xqc pop=npa geom=c
 heck
 ----------------------------------------------------------------------

 ------------------------------------
 CID_54182431_JID_7724_Energie_kation
 ------------------------------------
 Structure from the checkpoint file:  "JID_7724.chk"
 Charge =  1 Multiplicity = 2

 SCF Done:  E(UB3LYP) =  -751.329929726     A.U. after   33 cycles
 SCF Done:  E(UB3LYP) =  -751.329936552     a.u. after    6 cycles
 Normal termination of Gaussian 16 at Fri Dec 11 14:49:26 2020.
 Gaussian 16:  ES64L-G16RevA.03 25-Dec-2016

 ----------------------------------------------------------------------
 # B3LYP/6-311++G(d,p) empiricaldispersion=gd3bj scf=xqc pop=npa geom=c
 heck
 ----------------------------------------------------------------------

 -----------------------------------
 CID_54182431_JID_7724_Energie_anion
 -----------------------------------
 Structure from the checkpoint file:  "JID_7724.chk"
 Charge = -1 Multiplicity = 2

                         Standard orientation:
 ---------------------------------------------------------------------
 Center     Atomic      Atomic             Coordinates (Angstroms)
 Number     Number       Type             X           Y           Z
 ---------------------------------------------------------------------
      1          6           0       -5.444527   -0.537970   -0.289789
      2          6           0       -4.203706   -1.334799    0.079701
      3          8           0       -3.173418   -0.476266    0.620403
      4          6           0       -2.400049    0.163261   -0.279876
      5          8           0       -2.546376    0.064568   -1.481443
      6          6           0       -1.328785    1.048764    0.363590
      7          6           0       -1.561599    2.490380   -0.128312
      8          6           0       -1.351401    1.006007    1.897449
      9          6           0        0.023765    0.549394   -0.185896
     10          7           0        0.257460   -0.846491    0.175384
     11          6           0        1.367752   -1.473425   -0.552841
     12          6           0        2.720892   -0.821868   -0.334053
     13          6           0        3.457394   -1.099703    0.824635
     14          6           0        4.668447   -0.456510    1.075132
     15          6           0        5.163078    0.479955    0.164771
     16          6           0        4.440415    0.764244   -0.994177
     17          6           0        3.228736    0.116471   -1.239250
     18          1           0       -5.813558    0.026122    0.573135
     19          1           0       -6.238597   -1.215093   -0.624532
     20          1           0       -5.220286    0.159178   -1.101171
     21          1           0       -4.407285   -2.048950    0.881109
     22          1           0       -3.798830   -1.863214   -0.786410
     23          1           0       -2.511533    2.883806    0.250353
     24          1           0       -0.758700    3.145031    0.228366
     25          1           0       -1.586971    2.525251   -1.220834
     26          1           0       -1.248000   -0.013385    2.277992
     27          1           0       -0.531887    1.616963    2.294531
     28          1           0       -2.292878    1.402983    2.287934
     29          1           0       -0.013065    0.604003   -1.278679
     30          1           0        0.820286    1.235448    0.149892
     31          1           0        0.451112   -0.906774    1.173389
     32          1           0        1.406148   -2.524845   -0.244395
     33          1           0        1.111406   -1.457847   -1.618449
     34          1           0        3.078598   -1.833423    1.533994
     35          1           0        5.229822   -0.689241    1.976007
     36          1           0        6.107851    0.980906    0.356254
     37          1           0        4.820551    1.488897   -1.709137
     38          1           0        2.669476    0.337995   -2.145235
 ---------------------------------------------------------------------

 SCF Done:  E(UB3LYP) =  -751.617135993     A.U. after   33 cycles
 SCF Done:  E(UB3LYP) =  -751.617135993     a.u. after    1 cycles

 The electronic state is 2-A.
 Alpha  occ. eigenvalues --  -19.07681 -19.01770 -14.21194 -10.20776 -10.13905
 Alpha  occ. eigenvalues --  -10.10905 -10.10873 -10.10454 -10.09024 -10.08733
 Alpha  occ. eigenvalues --  -10.08571 -10.08566 -10.08461 -10.08434 -10.08064
 Alpha  occ. eigenvalues --  -10.07977 -10.07256  -1.01640  -0.92865  -0.82532
 Alpha  occ. eigenvalues --   -0.76769  -0.73331  -0.68284  -0.67120  -0.65879
 Alpha  occ. eigenvalues --   -0.60654  -0.60481  -0.58030  -0.55622  -0.52050
 Alpha  occ. eigenvalues --   -0.51039  -0.49568  -0.45899  -0.43277  -0.42359
 Alpha  occ. eigenvalues --   -0.39801  -0.38691  -0.38604  -0.37541  -0.36897
 Alpha  occ. eigenvalues --   -0.36399  -0.35876  -0.34395  -0.33427  -0.32809
 Alpha  occ. eigenvalues --   -0.32094  -0.31747  -0.31371  -0.30046  -0.29871
 Alpha  occ. eigenvalues --   -0.28828  -0.28211  -0.27508  -0.27299  -0.26251
 Alpha  occ. eigenvalues --   -0.25598  -0.25343  -0.24821  -0.24435  -0.21542
 Alpha  occ. eigenvalues --   -0.18630  -0.16900  -0.16564  -0.14200   0.03940
 Alpha virt. eigenvalues --    0.05287   0.06331   0.06614   0.06915   0.07149
 Alpha virt. eigenvalues --    0.07571   0.07926   0.08487   0.08782   0.09114
 Alpha virt. eigenvalues --    0.09322   0.09672   0.10132   0.10445   0.11284

  Beta  occ. eigenvalues --  -19.07680 -19.01764 -14.21182 -10.20771 -10.13890
  Beta  occ. eigenvalues --  -10.10897 -10.10872 -10.10447 -10.09017 -10.08724
  Beta  occ. eigenvalues --  -10.08557 -10.08550 -10.08438 -10.08415 -10.08054
  Beta  occ. eigenvalues --  -10.07949 -10.07236  -1.01633  -0.92857  -0.82511
  Beta  occ. eigenvalues --   -0.76737  -0.73316  -0.68253  -0.67083  -0.65840
  Beta  occ. eigenvalues --   -0.60626  -0.60450  -0.57988  -0.55585  -0.52009
  Beta  occ. eigenvalues --   -0.51001  -0.49527  -0.45879  -0.43238  -0.42319
  Beta  occ. eigenvalues --   -0.39775  -0.38670  -0.38578  -0.37504  -0.36867
  Beta  occ. eigenvalues --   -0.36365  -0.35849  -0.34370  -0.33390  -0.32772
  Beta  occ. eigenvalues --   -0.32066  -0.31727  -0.31349  -0.30020  -0.29844
  Beta  occ. eigenvalues --   -0.28805  -0.28190  -0.27475  -0.27271  -0.26213
  Beta  occ. eigenvalues --   -0.25574  -0.25317  -0.24803  -0.24416  -0.21529
  Beta  occ. eigenvalues --   -0.18619  -0.16867  -0.16511  -0.14182
  Beta virt. eigenvalues --    0.05824   0.06261   0.06733   0.07129   0.07191
  Beta virt. eigenvalues --    0.07284   0.07920   0.08332   0.08771   0.09063
  Beta virt. eigenvalues --    0.09514   0.09595   0.09787   0.10196   0.10653

 Mulliken charges and spin densities:
               1          2
     1  C    0.583165  -0.954577
     2  C   -0.300443   0.158962
     3  O    0.079720   0.036064
     4  C   -1.041807   0.244544
     5  O   -0.194413   0.005430
     6  C    0.729979   0.191340
     7  C   -0.197580  -0.284631
     8  C    0.518878  -1.012210
     9  C   -1.132289  -0.080060
    10  N    0.132587   0.011655
    11  C    1.214846  -1.936350
    12  C    0.069878   0.595224
    13  C   -0.875917   0.654121
    14  C    0.359711  -0.635004
    15  C    1.402781  -1.775985
    16  C   -0.173027  -0.079494
    17  C   -0.766867   0.886466
    18  H   -0.043968   0.182807
    19  H   -0.272313   0.416564
    20  H   -0.027199   0.200760
    21  H   -0.385339   0.547203
    22  H    0.234362  -0.076394
    23  H    0.059052   0.096252
    24  H   -0.003454   0.158282
    25  H    0.109396   0.051234
    26  H   -0.052450   0.227006
    27  H   -0.000193   0.158541
    28  H   -0.054617   0.227697
    29  H    0.197141   0.026485
    30  H    0.479153  -0.296847
    31  H    0.172580   0.028770
    32  H   -0.034670   0.244837
    33  H    0.089615   0.057858
    34  H   -0.476016   0.645326
    35  H   -0.626438   0.812625
    36  H   -0.372170   0.528538
    37  H   -0.424400   0.604913
    38  H    0.022726   0.132049
 Sum of Mulliken charges =  -1.00000   1.00000

 Dipole moment (field-independent basis, Debye):
    X=             -2.7181    Y=              1.3616    Z=             -2.4977  Tot=              3.9345
 Quadrupole moment (field-independent basis, Debye-Ang):
   XX=           -234.9306   YY=           -140.0640   ZZ=           -144.9000
   XY=             -6.8727   XZ=             -5.8247   YZ=              4.7609

 Summary of Natural Population Analysis:

                                       Natural Population
                Natural  -----------------------------------------------
    Atom  No    Charge         Core      Valence    Rydberg      Total
 -----------------------------------------------------------------------
      C    1   -0.29998      0.99966     2.29537    0.00494     3.29998
      C    2   -0.01727      0.99957     2.00553    0.01217     3.01727
      O    3   -0.27928      0.99986     3.27001    0.00941     4.27928
      C    4    0.42593      0.99961     1.54563    0.02883     2.57407
      O    5   -0.31734      0.99987     3.31230    0.00517     4.31734
      C    6   -0.08480      0.99953     2.07289    0.01238     3.08480
      C    7   -0.27996      0.99963     2.27469    0.00564     3.27996
      C    8   -0.28867      0.99964     2.28096    0.00807     3.28867
      C    9   -0.08410      0.99958     2.07392    0.01061     3.08410
      N   10   -0.33452      0.99975     2.82414    0.01063     3.83452
      C   11   -0.09252      0.99959     2.08082    0.01211     3.09252
      C   12   -0.02749      0.99950     2.01796    0.01003     3.02749
      C   13   -0.10051      0.99951     2.08993    0.01107     3.10051
      C   14   -0.09677      0.99956     2.08666    0.01055     3.09677
      C   15   -0.10141      0.99956     2.09179    0.01006     3.10141
      C   16   -0.10056      0.99956     2.09014    0.01086     3.10056
      C   17   -0.10100      0.99951     2.09227    0.00922     3.10100
      H   18    0.10073      0.00000     0.39810    0.00117     0.39927
      H   19    0.10220      0.00000     0.39669    0.00111     0.39780
      H   20    0.10551      0.00000     0.39347    0.00101     0.39449
      H   21    0.09150      0.00000     0.40705    0.00145     0.40850
      H   22    0.09500      0.00000     0.40371    0.00129     0.40500
      H   23    0.10094      0.00000     0.39821    0.00085     0.39906
      H   24    0.10063      0.00000     0.39846    0.00091     0.39937
      H   25    0.10739      0.00000     0.39167    0.00094     0.39261
      H   26    0.10713      0.00000     0.39151    0.00136     0.39287
      H   27    0.09933      0.00000     0.39974    0.00093     0.40067
      H   28    0.10512      0.00000     0.39380    0.00107     0.39488
      H   29    0.10120      0.00000     0.39740    0.00140     0.39880
      H   30    0.08867      0.00000     0.40984    0.00149     0.41133
      H   31    0.17347      0.00000     0.32323    0.00330     0.32653
      H   32    0.09939      0.00000     0.39963    0.00097     0.40061
      H   33    0.09493      0.00000     0.40391    0.00116     0.40507
      H   34    0.10156      0.00000     0.39670    0.00174     0.39844
      H   35    0.10304      0.00000     0.39524    0.00172     0.39696
      H   36    0.10251      0.00000     0.39596    0.00153     0.39749
      H   37    0.10102      0.00000     0.39791    0.00107     0.39898
      H   38    0.09897      0.00000     0.39951    0.00152     0.40103
 =======================================================================
   * Total *   -0.00000     16.99348    46.79678    0.20974    64.00000

 Normal termination of Gaussian 16 at Fri Dec 11 15:06:04 2020.
