 Gaussian 16, Revision A.03,

 -----------------------------------------------------------
 # opt freq B3LYP/6-31G(d) empiricaldispersion=gd3bj scf=xqc
 -----------------------------------------------------------

 ------------------------------
 CID_118104365_JID_149_neutraal
 ------------------------------
 Symbolic Z-matrix:
 Charge =  0 Multiplicity = 1

 SCF Done:  E(RB3LYP) =  -779.197448372     A.U. after   15 cycles
 SCF Done:  E(RB3LYP) =  -779.204204522     A.U. after   13 cycles
 SCF Done:  E(RB3LYP) =  -779.205061242     A.U. after   12 cycles
 SCF Done:  E(RB3LYP) =  -779.205445908     A.U. after   12 cycles
 SCF Done:  E(RB3LYP) =  -779.205589312     A.U. after   12 cycles
 SCF Done:  E(RB3LYP) =  -779.205651972     A.U. after   11 cycles
 SCF Done:  E(RB3LYP) =  -779.205720871     A.U. after   11 cycles
 SCF Done:  E(RB3LYP) =  -779.205729131     A.U. after   10 cycles
 SCF Done:  E(RB3LYP) =  -779.205733849     A.U. after   11 cycles
 SCF Done:  E(RB3LYP) =  -779.205742675     A.U. after   11 cycles
 SCF Done:  E(RB3LYP) =  -779.207549658     A.U. after   10 cycles
 SCF Done:  E(RB3LYP) =  -779.207552115     A.U. after    9 cycles
 SCF Done:  E(RB3LYP) =  -779.207552594     A.U. after    8 cycles
 SCF Done:  E(RB3LYP) =  -779.207552739     A.U. after    8 cycles
 SCF Done:  E(RB3LYP) =  -779.207552783     A.U. after    8 cycles
 Optimization completed.
    -- Stationary point found.
 Normal termination of Gaussian 16 at Tue Dec  8 10:21:22 2020.

 --------------------------------------------------------------------
 #N Geom=AllCheck Guess=TCheck SCRF=Check GenChk RB3LYP/6-31G(d) Freq
 --------------------------------------------------------------------

 Structure from the checkpoint file:  "JID_149.chk"
 ------------------------------
 CID_118104365_JID_149_neutraal
 ------------------------------
 Charge =  0 Multiplicity = 1

 SCF Done:  E(RB3LYP) =  -779.207552783     A.U. after    1 cycles

  Exact polarizability: 131.411   4.558  95.045  -8.787   3.344  65.430
 Approx polarizability: 188.134   6.227 176.523 -14.458  10.074 102.087

                      1                      2                      3
                      A                      A                      A
 Frequencies --     60.9169                89.1531               176.2024
 Red. masses --      5.5559                 3.3794                 3.1817
 Frc consts  --      0.0121                 0.0158                 0.0582
 IR Inten    --      0.7654                 0.2949                 2.2759

                      4                      5                      6
                      A                      A                      A
 Frequencies --    200.7451               262.3936               356.9281
 Red. masses --      3.5512                 2.8475                 5.1098
 Frc consts  --      0.0843                 0.1155                 0.3835
 IR Inten    --      3.0654                 1.8118                 7.6863

                      7                      8                      9
                      A                      A                      A
 Frequencies --    362.7051               379.5936               396.7607
 Red. masses --      2.6836                 2.2602                 3.2966
 Frc consts  --      0.2080                 0.1919                 0.3058
 IR Inten    --     22.2849                 6.8966                 5.0406

                     10                     11                     12
                      A                      A                      A
 Frequencies --    476.1831               534.0221               571.6771
 Red. masses --      6.7531                 7.2137                 2.6950
 Frc consts  --      0.9022                 1.2121                 0.5189
 IR Inten    --     16.0105                 1.1155                22.7794

                     13                     14                     15
                      A                      A                      A
 Frequencies --    665.3037               692.1253               710.2919
 Red. masses --      5.4380                 1.4026                 3.0955
 Frc consts  --      1.4182                 0.3959                 0.9201
 IR Inten    --      9.9043                31.3440               132.4132

                     16                     17                     18
                      A                      A                      A
 Frequencies --    816.3532               854.1935               857.1988
 Red. masses --      2.1820                 2.2302                 5.2192
 Frc consts  --      0.8568                 0.9588                 2.2595
 IR Inten    --     21.2397                 3.0988                20.6873

                     19                     20                     21
                      A                      A                      A
 Frequencies --    921.0968               933.6343               949.7078
 Red. masses --      2.1384                 1.3092                 2.0186
 Frc consts  --      1.0689                 0.6724                 1.0727
 IR Inten    --      6.9910                 3.9883                 6.9355

                     22                     23                     24
                      A                      A                      A
 Frequencies --    965.7819              1013.5341              1101.9139
 Red. masses --      3.1659                 3.1594                 2.7568
 Frc consts  --      1.7398                 1.9122                 1.9722
 IR Inten    --      8.4479                 7.1109                43.0839

                     25                     26                     27
                      A                      A                      A
 Frequencies --   1129.7935              1132.1967              1140.1675
 Red. masses --      1.1041                 1.1414                 1.1932
 Frc consts  --      0.8303                 0.8620                 0.9139
 IR Inten    --     32.6797                10.6645                 5.4677

                     28                     29                     30
                      A                      A                      A
 Frequencies --   1180.3732              1209.2098              1239.1447
 Red. masses --      1.2506                 2.3147                 2.0516
 Frc consts  --      1.0267                 1.9941                 1.8560
 IR Inten    --      4.8026                 3.9009                 9.9763

                     31                     32                     33
                      A                      A                      A
 Frequencies --   1264.3678              1336.6574              1360.8204
 Red. masses --      1.3251                 2.3186                 1.6340
 Frc consts  --      1.2481                 2.4407                 1.7828
 IR Inten    --     40.6395                62.5731                47.2548

                     34                     35                     36
                      A                      A                      A
 Frequencies --   1390.3059              1426.0486              1452.3404
 Red. masses --      2.0657                 1.2302                 1.1923
 Frc consts  --      2.3526                 1.4740                 1.4817
 IR Inten    --      9.0347                 9.8989                 5.6814

                     37                     38                     39
                      A                      A                      A
 Frequencies --   1459.3990              1583.0652              1658.6597
 Red. masses --      1.4274                 5.8989                 7.1990
 Frc consts  --      1.7912                 8.7100                11.6690
 IR Inten    --     10.4928                12.3345                26.1951

                     40                     41                     42
                      A                      A                      A
 Frequencies --   1736.4187              3036.3955              3067.2718
 Red. masses --      8.2240                 1.0619                 1.0982
 Frc consts  --     14.6098                 5.7683                 6.0876
 IR Inten    --     63.2429                14.2641                 7.5853

                     43                     44                     45
                      A                      A                      A
 Frequencies --   3116.8068              3131.9844              3232.8048
 Red. masses --      1.0875                 1.0895                 1.0870
 Frc consts  --      6.2242                 6.2970                 6.6933
 IR Inten    --      6.2805                23.7352                 2.3095

                     46                     47                     48
                      A                      A                      A
 Frequencies --   3253.3735              3371.0701              3447.6865
 Red. masses --      1.1033                 1.0740                 1.0749
 Frc consts  --      6.8801                 7.1911                 7.5278
 IR Inten    --     14.6482                12.8284                 2.6418

 - Thermochemistry -
 -------------------
 Temperature   298.150 Kelvin.  Pressure   1.00000 Atm.
 Atom     1 has atomic number  6 and mass  12.00000

 Molecular mass:   152.04082 amu.
 Principal axes and moments of inertia in atomic units:
                           1         2         3
     Eigenvalues --   756.359742151.209552528.78021
           X            0.99992   0.00594  -0.01152
           Y           -0.00562   0.99959   0.02796
           Z            0.01169  -0.02789   0.99954
 This molecule is an asymmetric top.
 Rotational symmetry number  1.
 Warning -- assumption of classical behavior for rotation
           may cause significant error
 Rotational temperatures (Kelvin)      0.11451     0.04026     0.03425
 Rotational constants (GHZ):           2.38609     0.83894     0.71368
 Zero-point vibrational energy     369076.5 (Joules/Mol)
                                   88.21141 (Kcal/Mol)
 Warning -- explicit consideration of  12 degrees of freedom as
           vibrations may cause significant error
 Vibrational temperatures:     87.65   128.27   253.52   288.83   377.53
          (Kelvin)            513.54   521.85   546.15   570.85   685.12
                              768.34   822.52   957.22   995.81  1021.95
                             1174.55  1228.99  1233.32  1325.25  1343.29
                             1366.42  1389.54  1458.25  1585.41  1625.52
                             1628.98  1640.45  1698.29  1739.78  1782.85
                             1819.14  1923.15  1957.92  2000.34  2051.77
                             2089.59  2099.75  2277.68  2386.44  2498.32
                             4368.70  4413.12  4484.39  4506.23  4651.29
                             4680.88  4850.22  4960.45

 Zero-point correction=                           0.140574 (Hartree/Particle)
 Thermal correction to Energy=                    0.149541
 Thermal correction to Enthalpy=                  0.150485
 Thermal correction to Gibbs Free Energy=         0.106001
 Sum of electronic and zero-point Energies=           -779.066979
 Sum of electronic and thermal Energies=              -779.058012
 Sum of electronic and thermal Enthalpies=            -779.057068
 Sum of electronic and thermal Free Energies=         -779.101552

                     E (Thermal)             CV                S
                      KCal/Mol        Cal/Mol-Kelvin    Cal/Mol-Kelvin
 Total                   93.838             34.021             93.624
 Electronic               0.000              0.000              0.000
 Translational            0.889              2.981             40.967
 Rotational               0.889              2.981             29.799
 Vibrational             92.061             28.060             22.858
 Vibration     1          0.597              1.973              4.427
 Vibration     2          0.602              1.957              3.679
 Vibration     3          0.628              1.872              2.368
 Vibration     4          0.638              1.839              2.126
 Vibration     5          0.670              1.742              1.646
 Vibration     6          0.732              1.561              1.135
 Vibration     7          0.737              1.549              1.110
 Vibration     8          0.750              1.514              1.041
 Vibration     9          0.763              1.477              0.975
 Vibration    10          0.833              1.303              0.720
 Vibration    11          0.889              1.175              0.578
 Vibration    12          0.928              1.093              0.501

 Optimization completed.
    -- Stationary point found.
 Normal termination of Gaussian 16 at Tue Dec  8 10:24:05 2020.

 ----------------------------------------------------------------------
 # B3LYP/6-311++G(d,p) empiricaldispersion=gd3bj scf=xqc pop=npa geom=c
 heck
 ----------------------------------------------------------------------

 --------------------------------------
 CID_118104365_JID_149_Energie_neutraal
 --------------------------------------
 Structure from the checkpoint file:  "JID_149.chk"
 Charge =  0 Multiplicity = 1

 SCF Done:  E(RB3LYP) =  -779.343938289     A.U. after   16 cycles
 Normal termination of Gaussian 16 at Tue Dec  8 10:25:06 2020.

 ----------------------------------------------------------------------
 # B3LYP/6-311++G(d,p) empiricaldispersion=gd3bj scf=xqc pop=npa geom=c
 heck
 ----------------------------------------------------------------------

 ------------------------------------
 CID_118104365_JID_149_Energie_kation
 ------------------------------------
 Structure from the checkpoint file:  "JID_149.chk"
 Charge =  1 Multiplicity = 2

 SCF Done:  E(UB3LYP) =  -779.076815824     A.U. after   23 cycles
 Normal termination of Gaussian 16 at Tue Dec  8 10:27:35 2020.
 Gaussian 16:  ES64L-G16RevA.03 25-Dec-2016

 ----------------------------------------------------------------------
 # B3LYP/6-311++G(d,p) empiricaldispersion=gd3bj scf=xqc pop=npa geom=c
 heck
 ----------------------------------------------------------------------

 -----------------------------------
 CID_118104365_JID_149_Energie_anion
 -----------------------------------
 Structure from the checkpoint file:  "JID_149.chk"
 Charge = -1 Multiplicity = 2

                         Standard orientation:
 ---------------------------------------------------------------------
 Center     Atomic      Atomic             Coordinates (Angstroms)
 Number     Number       Type             X           Y           Z
 ---------------------------------------------------------------------
      1          6           0       -2.145919   -1.332090    0.007287
      2          6           0       -2.963552   -0.158810    0.515814
      3          6           0       -2.217696    0.968985    0.507609
      4          6           0       -0.888164    0.635269   -0.002537
      5          6           0       -0.831869   -0.680292   -0.304406
      6          7           0        0.383968   -1.188201   -0.822985
      7          6           0        1.429380   -0.198243   -0.575625
      8         16           0        0.602234    1.522719   -0.357453
      9          6           0        2.148873   -0.497024    0.716966
     10          7           0        3.405063   -0.524588    0.908359
     11          1           0       -2.042968   -2.118531    0.768129
     12          1           0       -2.615916   -1.805621   -0.867487
     13          1           0       -3.995286   -0.246396    0.833610
     14          1           0       -2.534247    1.956831    0.819794
     15          1           0        0.313416   -1.424066   -1.813377
     16          1           0        2.132580   -0.146619   -1.410188
     17          1           0        1.489693   -0.701072    1.565517
     18          1           0        3.907454   -0.315276    0.034968
 ---------------------------------------------------------------------

 SCF Done:  E(UB3LYP) =  -779.336900795     A.U. after   33 cycles
 SCF Done:  E(UB3LYP) =  -779.336900795     a.u. after    1 cycles

 The electronic state is 2-A.
 Alpha  occ. eigenvalues --  -88.71534 -14.20419 -14.17278 -10.11381 -10.08591
 Alpha  occ. eigenvalues --  -10.05691 -10.05597 -10.05247 -10.04616 -10.03533
 Alpha  occ. eigenvalues --   -7.80102  -5.76440  -5.76167  -5.75524  -0.82487
 Alpha  occ. eigenvalues --   -0.77834  -0.72173  -0.64448  -0.58947  -0.56931
 Alpha  occ. eigenvalues --   -0.51181  -0.46589  -0.43837  -0.40466  -0.38648
 Alpha  occ. eigenvalues --   -0.35011  -0.33878  -0.31546  -0.29927  -0.28160
 Alpha  occ. eigenvalues --   -0.26976  -0.25440  -0.23377  -0.21471  -0.20472
 Alpha  occ. eigenvalues --   -0.19071  -0.16279  -0.14171  -0.12340  -0.05607
 Alpha  occ. eigenvalues --    0.05269
 Alpha virt. eigenvalues --    0.07810   0.08354   0.09259   0.10181   0.10577
 Alpha virt. eigenvalues --    0.11375   0.11580   0.13085   0.13210   0.14106
 Alpha virt. eigenvalues --    0.14708   0.15810   0.16570   0.16900   0.18269

  Beta  occ. eigenvalues --  -88.71493 -14.20432 -14.17136 -10.11297 -10.08491
  Beta  occ. eigenvalues --  -10.05622 -10.05551 -10.05172 -10.04602 -10.03324
  Beta  occ. eigenvalues --   -7.80060  -5.76335  -5.76136  -5.75496  -0.82325
  Beta  occ. eigenvalues --   -0.77568  -0.71972  -0.64204  -0.58636  -0.56783
  Beta  occ. eigenvalues --   -0.50863  -0.46413  -0.43527  -0.40311  -0.38425
  Beta  occ. eigenvalues --   -0.34884  -0.33650  -0.31236  -0.29759  -0.27865
  Beta  occ. eigenvalues --   -0.26854  -0.25228  -0.23166  -0.21098  -0.20119
  Beta  occ. eigenvalues --   -0.18404  -0.16045  -0.13898  -0.11910  -0.05059
  Beta virt. eigenvalues --    0.08256   0.08588   0.09279   0.09811   0.10609
  Beta virt. eigenvalues --    0.11131   0.11979   0.12083   0.13168   0.13225
  Beta virt. eigenvalues --    0.14440   0.15224   0.15882   0.16559   0.16883

 Mulliken charges and spin densities:
               1          2
     1  C    0.486438  -1.542946
     2  C    0.088943   0.161716
     3  C   -0.488356   0.297336
     4  C    1.060961  -0.141617
     5  C   -0.765645   0.278283
     6  N   -0.049386   0.074132
     7  C   -0.157679   0.098335
     8  S   -0.270085  -0.161228
     9  C   -0.214654   0.044881
    10  N   -0.314127   0.078770
    11  H    0.166892  -0.019807
    12  H   -0.379580   0.546878
    13  H    0.026461   0.101017
    14  H   -0.129647   0.273175
    15  H   -0.251014   0.541754
    16  H   -0.110263   0.360631
    17  H    0.138905   0.013269
    18  H    0.161836  -0.004579
 Sum of Mulliken charges =  -1.00000   1.00000

 Dipole moment (field-independent basis, Debye):
    X=             -0.2138    Y=              1.1393    Z=              1.4839  Tot=              1.8830
 Quadrupole moment (field-independent basis, Debye-Ang):
   XX=           -105.2325   YY=            -92.7663   ZZ=            -92.2793
   XY=              1.8345   XZ=            -10.1478   YZ=             -4.8615

 Summary of Natural Population Analysis:

                                       Natural Population
                Natural  -----------------------------------------------
    Atom  No    Charge         Core      Valence    Rydberg      Total
 -----------------------------------------------------------------------
      C    1   -0.22287      0.99959     2.21469    0.00859     3.22287
      C    2   -0.05698      0.99956     2.04763    0.00979     3.05698
      C    3   -0.11361      0.99948     2.10357    0.01056     3.11361
      C    4   -0.10808      0.99925     2.09599    0.01284     3.10808
      C    5    0.07928      0.99931     1.90721    0.01419     2.92072
      N    6   -0.32753      0.99967     2.81383    0.01403     3.82753
      C    7   -0.06783      0.99956     2.04740    0.02087     3.06783
      S    8    0.10458      4.99956     2.87756    0.01830     7.89542
      C    9    0.08447      0.99964     1.89814    0.01775     2.91553
      N   10   -0.30514      0.99974     2.79622    0.00919     3.80514
      H   11    0.11327      0.00000     0.38542    0.00130     0.38673
      H   12    0.11821      0.00000     0.37787    0.00392     0.38179
      H   13    0.08970      0.00000     0.40949    0.00081     0.41030
      H   14    0.09923      0.00000     0.39983    0.00094     0.40077
      H   15    0.18898      0.00000     0.30237    0.00865     0.31102
      H   16    0.09647      0.00000     0.40194    0.00159     0.40353
      H   17    0.07925      0.00000     0.41894    0.00182     0.42075
      H   18    0.14860      0.00000     0.34858    0.00282     0.35140
 =======================================================================
   * Total *   -0.00000     13.99536    25.84668    0.15796    40.00000

 Normal termination of Gaussian 16 at Tue Dec  8 10:31:12 2020.
