 Gaussian 16, Revision A.03,

 -----------------------------------------------------------
 # opt freq B3LYP/6-31G(d) empiricaldispersion=gd3bj scf=xqc
 -----------------------------------------------------------

 ------------------------------
 CID_61063107_JID_9772_neutraal
 ------------------------------
 Symbolic Z-matrix:
 Charge =  0 Multiplicity = 1

 SCF Done:  E(RB3LYP) =  -846.066875065     A.U. after   15 cycles
 SCF Done:  E(RB3LYP) =  -846.073205522     A.U. after   13 cycles
 SCF Done:  E(RB3LYP) =  -846.072712647     A.U. after   14 cycles
 SCF Done:  E(RB3LYP) =  -846.075022599     A.U. after   11 cycles
 SCF Done:  E(RB3LYP) =  -846.076864630     A.U. after   12 cycles
 SCF Done:  E(RB3LYP) =  -846.075311400     A.U. after   13 cycles
 SCF Done:  E(RB3LYP) =  -846.077380755     A.U. after   12 cycles
 SCF Done:  E(RB3LYP) =  -846.078224237     A.U. after   12 cycles
 SCF Done:  E(RB3LYP) =  -846.079039132     A.U. after   12 cycles
 SCF Done:  E(RB3LYP) =  -846.075289611     A.U. after   14 cycles
 SCF Done:  E(RB3LYP) =  -846.082769504     A.U. after    9 cycles
 SCF Done:  E(RB3LYP) =  -846.082770500     A.U. after    8 cycles
 SCF Done:  E(RB3LYP) =  -846.082770725     A.U. after    8 cycles
 SCF Done:  E(RB3LYP) =  -846.082771066     A.U. after    8 cycles
 SCF Done:  E(RB3LYP) =  -846.082771128     A.U. after    7 cycles
 Optimization completed.
    -- Stationary point found.
 Normal termination of Gaussian 16 at Sat Dec 12 10:26:53 2020.

 --------------------------------------------------------------------
 #N Geom=AllCheck Guess=TCheck SCRF=Check GenChk RB3LYP/6-31G(d) Freq
 --------------------------------------------------------------------

 Structure from the checkpoint file:  "JID_9772.chk"
 ------------------------------
 CID_61063107_JID_9772_neutraal
 ------------------------------
 Charge =  0 Multiplicity = 1

 SCF Done:  E(RB3LYP) =  -846.082771128     A.U. after    1 cycles

  Exact polarizability: 167.077   5.124 176.438 -10.849   6.108 162.080
 Approx polarizability: 216.682  13.106 273.924 -25.853   0.075 273.420

                      1                      2                      3
                      A                      A                      A
 Frequencies --     23.3157                34.4142                43.1006
 Red. masses --      4.5644                 2.9973                 4.5459
 Frc consts  --      0.0015                 0.0021                 0.0050
 IR Inten    --      0.2518                 0.3415                 0.5734

                      4                      5                      6
                      A                      A                      A
 Frequencies --     48.8471                62.3982                72.2951
 Red. masses --      3.8997                 3.2243                 4.8178
 Frc consts  --      0.0055                 0.0074                 0.0148
 IR Inten    --      3.4287                 0.1191                 0.4541

                      7                      8                      9
                      A                      A                      A
 Frequencies --     87.3612                97.9124               134.4959
 Red. masses --      3.9816                 3.2856                 3.1376
 Frc consts  --      0.0179                 0.0186                 0.0334
 IR Inten    --      1.1964                 1.4196                 0.8049

                     10                     11                     12
                      A                      A                      A
 Frequencies --    155.6699               163.8530               187.9127
 Red. masses --      1.7493                 2.4657                 2.5620
 Frc consts  --      0.0250                 0.0390                 0.0533
 IR Inten    --      1.6084                 1.1985                 0.7480

                     13                     14                     15
                      A                      A                      A
 Frequencies --    199.3603               231.8302               240.5879
 Red. masses --      2.7209                 1.1021                 3.2549
 Frc consts  --      0.0637                 0.0349                 0.1110
 IR Inten    --      4.8312                 0.0942                 4.7752

                     16                     17                     18
                      A                      A                      A
 Frequencies --    257.9637               266.9919               314.4607
 Red. masses --      1.2037                 3.1428                 2.3015
 Frc consts  --      0.0472                 0.1320                 0.1341
 IR Inten    --      0.9594                 7.0832                 0.8496

                     19                     20                     21
                      A                      A                      A
 Frequencies --    328.0104               344.0172               362.4739
 Red. masses --      2.5824                 3.3176                 3.0467
 Frc consts  --      0.1637                 0.2313                 0.2358
 IR Inten    --      0.4254                 9.1676                 2.9225

                     22                     23                     24
                      A                      A                      A
 Frequencies --    388.9293               426.0622               427.9724
 Red. masses --      2.1715                 2.3235                 1.9678
 Frc consts  --      0.1935                 0.2485                 0.2124
 IR Inten    --      0.0338                 0.7053                 0.5389

                     25                     26                     27
                      A                      A                      A
 Frequencies --    456.6933               492.0317               506.5462
 Red. masses --      3.3755                 2.6409                 2.3780
 Frc consts  --      0.4148                 0.3767                 0.3595
 IR Inten    --      3.5944                 3.3267                19.9035

                     28                     29                     30
                      A                      A                      A
 Frequencies --    517.2898               537.4965               564.2017
 Red. masses --      3.7417                 4.2234                 3.1431
 Frc consts  --      0.5899                 0.7189                 0.5895
 IR Inten    --     17.5979                 5.1996                14.8663

                     31                     32                     33
                      A                      A                      A
 Frequencies --    594.3867               619.2438               622.8248
 Red. masses --      3.8308                 5.2324                 2.3412
 Frc consts  --      0.7974                 1.1822                 0.5351
 IR Inten    --     25.2308                 5.6061                25.7852

                     34                     35                     36
                      A                      A                      A
 Frequencies --    701.0199               737.9979               768.9639
 Red. masses --      1.8653                 2.4813                 2.1357
 Frc consts  --      0.5401                 0.7962                 0.7440
 IR Inten    --     81.3995                12.7393                 1.5661

                     37                     38                     39
                      A                      A                      A
 Frequencies --    781.9411               791.0135               806.0885
 Red. masses --      2.0030                 2.7089                 2.8260
 Frc consts  --      0.7216                 0.9986                 1.0819
 IR Inten    --     16.6817                25.5820                29.6069

                     40                     41                     42
                      A                      A                      A
 Frequencies --    833.5969               873.6061               883.6406
 Red. masses --      4.2314                 1.7090                 1.4117
 Frc consts  --      1.7324                 0.7684                 0.6495
 IR Inten    --     26.1108                27.8561                 2.0545

                     43                     44                     45
                      A                      A                      A
 Frequencies --    918.8719               923.0554               944.6019
 Red. masses --      2.2082                 2.0346                 1.1816
 Frc consts  --      1.0985                 1.0214                 0.6212
 IR Inten    --     18.2905                49.4029                 2.1685

                     46                     47                     48
                      A                      A                      A
 Frequencies --    950.8831               961.8543               974.0111
 Red. masses --      1.5872                 2.8039                 1.4586
 Frc consts  --      0.8456                 1.5284                 0.8153
 IR Inten    --      6.2196                27.2346                 0.3374

                     49                     50                     51
                      A                      A                      A
 Frequencies --    983.7167               997.9595              1016.8672
 Red. masses --      1.2535                 1.7278                 1.9827
 Frc consts  --      0.7147                 1.0139                 1.2079
 IR Inten    --      0.4762                 0.4589                 0.3358

                     52                     53                     54
                      A                      A                      A
 Frequencies --   1026.6193              1037.7514              1074.7003
 Red. masses --      2.0354                 1.8981                 2.2524
 Frc consts  --      1.2639                 1.2043                 1.5328
 IR Inten    --      1.6772                 8.0594                 2.0587

                     55                     56                     57
                      A                      A                      A
 Frequencies --   1107.6466              1123.2626              1134.9530
 Red. masses --      2.3752                 2.5280                 2.5020
 Frc consts  --      1.7169                 1.8793                 1.8988
 IR Inten    --      8.4608                23.7312                48.3787

                     58                     59                     60
                      A                      A                      A
 Frequencies --   1148.3660              1167.1182              1182.4274
 Red. masses --      2.8909                 1.8876                 2.5742
 Frc consts  --      2.2462                 1.5149                 2.1205
 IR Inten    --    110.3111                 4.5327                 5.2149

                     61                     62                     63
                      A                      A                      A
 Frequencies --   1193.0214              1193.9909              1209.1399
 Red. masses --      1.2634                 1.0983                 1.7223
 Frc consts  --      1.0595                 0.9225                 1.4836
 IR Inten    --      1.8258                 1.4367                 2.2780

                     64                     65                     66
                      A                      A                      A
 Frequencies --   1214.4501              1233.9232              1248.2871
 Red. masses --      1.7752                 1.8018                 1.6813
 Frc consts  --      1.5426                 1.6163                 1.5436
 IR Inten    --      6.9358                29.9906                30.6371

                     67                     68                     69
                      A                      A                      A
 Frequencies --   1267.7232              1279.4423              1297.6293
 Red. masses --      1.6284                 1.7174                 1.3518
 Frc consts  --      1.5420                 1.6564                 1.3411
 IR Inten    --     21.6171                 6.9005                11.3849

                     70                     71                     72
                      A                      A                      A
 Frequencies --   1310.7390              1332.2387              1343.4227
 Red. masses --      1.4764                 1.4155                 1.3947
 Frc consts  --      1.4945                 1.4802                 1.4830
 IR Inten    --     21.1605                25.5374                59.1302

                     73                     74                     75
                      A                      A                      A
 Frequencies --   1355.2688              1360.2597              1388.1256
 Red. masses --      3.1748                 1.2304                 1.3486
 Frc consts  --      3.4357                 1.3413                 1.5310
 IR Inten    --      8.5018                 1.2600                 5.8393

                     76                     77                     78
                      A                      A                      A
 Frequencies --   1406.9588              1413.5250              1414.8259
 Red. masses --      1.4268                 1.4304                 1.4186
 Frc consts  --      1.6640                 1.6839                 1.6731
 IR Inten    --     16.7009                 7.4289                12.2870

                     79                     80                     81
                      A                      A                      A
 Frequencies --   1432.7704              1440.9194              1453.1971
 Red. masses --      1.2826                 1.6319                 1.2353
 Frc consts  --      1.5513                 1.9963                 1.5370
 IR Inten    --      6.5898                43.0003                 6.2841

                     82                     83                     84
                      A                      A                      A
 Frequencies --   1485.0363              1491.3425              1499.6366
 Red. masses --      1.6466                 1.6402                 1.1720
 Frc consts  --      2.1396                 2.1493                 1.5529
 IR Inten    --      4.1131                33.5621                 0.6843

                     85                     86                     87
                      A                      A                      A
 Frequencies --   1501.9216              1510.9123              1514.9532
 Red. masses --      1.1983                 1.1006                 1.0524
 Frc consts  --      1.5927                 1.4803                 1.4231
 IR Inten    --     12.2353                 3.3309                 2.3884

                     88                     89                     90
                      A                      A                      A
 Frequencies --   1518.3210              1521.3174              1526.3912
 Red. masses --      1.0595                 1.4044                 1.0898
 Frc consts  --      1.4390                 1.9150                 1.4960
 IR Inten    --      1.0212                43.4762                 6.1029

                     91                     92                     93
                      A                      A                      A
 Frequencies --   1529.5442              1535.5129              1537.6005
 Red. masses --      1.3045                 1.1124                 1.0711
 Frc consts  --      1.7982                 1.5454                 1.4920
 IR Inten    --     18.6713                26.4094                 9.0609

                     94                     95                     96
                      A                      A                      A
 Frequencies --   1541.5432              1545.7007              1556.3675
 Red. masses --      1.0740                 1.0740                 1.7430
 Frc consts  --      1.5038                 1.5118                 2.4875
 IR Inten    --      3.4598                 6.4485                 1.2913

                     97                     98                     99
                      A                      A                      A
 Frequencies --   1647.6188              1662.1267              1773.8173
 Red. masses --      5.0571                 5.4566                 7.7944
 Frc consts  --      8.0885                 8.8817                14.4494
 IR Inten    --      5.4942                14.9123               300.5281

                    100                    101                    102
                      A                      A                      A
 Frequencies --   3005.2637              3016.7696              3027.6780
 Red. masses --      1.0399                 1.0580                 1.0697
 Frc consts  --      5.5336                 5.6732                 5.7773
 IR Inten    --     59.1763                35.7501                 8.9748

                    103                    104                    105
                      A                      A                      A
 Frequencies --   3035.8151              3036.4856              3044.5511
 Red. masses --      1.0664                 1.0370                 1.0498
 Frc consts  --      5.7908                 5.6332                 5.7335
 IR Inten    --      6.4933                24.3045                43.0701

                    106                    107                    108
                      A                      A                      A
 Frequencies --   3058.8651              3062.9390              3063.2623
 Red. masses --      1.1038                 1.0772                 1.0934
 Frc consts  --      6.0851                 5.9545                 6.0451
 IR Inten    --     26.3228                 4.7414                62.7064

                    109                    110                    111
                      A                      A                      A
 Frequencies --   3077.1115              3086.0576              3096.9528
 Red. masses --      1.0688                 1.0914                 1.1008
 Frc consts  --      5.9624                 6.1238                 6.2203
 IR Inten    --     22.9198                24.0920                33.4555

                    112                    113                    114
                      A                      A                      A
 Frequencies --   3102.6673              3111.8860              3119.0516
 Red. masses --      1.1008                 1.1008                 1.1034
 Frc consts  --      6.2434                 6.2808                 6.3247
 IR Inten    --     36.7838                47.9884                28.9346

                    115                    116                    117
                      A                      A                      A
 Frequencies --   3135.1209              3139.4655              3166.5830
 Red. masses --      1.0999                 1.0992                 1.0920
 Frc consts  --      6.3698                 6.3830                 6.4514
 IR Inten    --     16.7029                37.7974                14.4536

                    118                    119                    120
                      A                      A                      A
 Frequencies --   3184.4099              3196.7461              3206.4070
 Red. masses --      1.0853                 1.0894                 1.0930
 Frc consts  --      6.4842                 6.5589                 6.6207
 IR Inten    --      1.6670                12.8280                12.4089

                    121                    122                    123
                      A                      A                      A
 Frequencies --   3213.3850              3492.7730              3577.4357
 Red. masses --      1.0963                 1.0728                 1.0755
 Frc consts  --      6.6697                 7.7109                 8.1098
 IR Inten    --     14.0330                12.6585                13.5508

 - Thermochemistry -
 -------------------
 Temperature   298.150 Kelvin.  Pressure   1.00000 Atm.
 Atom     1 has atomic number  6 and mass  12.00000

 Molecular mass:   264.18378 amu.
 Principal axes and moments of inertia in atomic units:
                           1         2         3
     Eigenvalues --  3831.674606647.284997624.21086
           X            0.99935  -0.03547   0.00642
           Y            0.03526   0.99893   0.02982
           Z           -0.00747  -0.02957   0.99953
 This molecule is an asymmetric top.
 Rotational symmetry number  1.
 Warning -- assumption of classical behavior for rotation
           may cause significant error
 Rotational temperatures (Kelvin)      0.02260     0.01303     0.01136
 Rotational constants (GHZ):           0.47101     0.27150     0.23671
 Zero-point vibrational energy     996553.2 (Joules/Mol)
                                  238.18194 (Kcal/Mol)
 Warning -- explicit consideration of  32 degrees of freedom as
           vibrations may cause significant error
 Vibrational temperatures:     33.55    49.51    62.01    70.28    89.78
          (Kelvin)            104.02   125.69   140.87   193.51   223.97
                              235.75   270.36   286.84   333.55   346.15
                              371.15   384.14   452.44   471.93   494.96
                              521.52   559.58   613.01   615.76   657.08
                              707.92   728.81   744.26   773.34   811.76
                              855.19   890.95   896.11  1008.61  1061.81
                             1106.37  1125.04  1138.09  1159.78  1199.36
                             1256.92  1271.36  1322.05  1328.07  1359.07
                             1368.11  1383.89  1401.38  1415.35  1435.84
                             1463.05  1477.08  1493.09  1546.25  1593.66
                             1616.12  1632.94  1652.24  1679.22  1701.25
                             1716.49  1717.89  1739.68  1747.32  1775.34
                             1796.01  1823.97  1840.83  1867.00  1885.86
                             1916.79  1932.89  1949.93  1957.11  1997.20
                             2024.30  2033.75  2035.62  2061.44  2073.16
                             2090.83  2136.64  2145.71  2157.64  2160.93
                             2173.87  2179.68  2184.53  2188.84  2196.14
                             2200.67  2209.26  2212.26  2217.94  2223.92
                             2239.27  2370.56  2391.43  2552.13  4323.90
                             4340.46  4356.15  4367.86  4368.83  4380.43
                             4401.02  4406.89  4407.35  4427.28  4440.15
                             4455.82  4464.05  4477.31  4487.62  4510.74
                             4516.99  4556.01  4581.66  4599.40  4613.30
                             4623.34  5025.32  5147.13

 Zero-point correction=                           0.379567 (Hartree/Particle)
 Thermal correction to Energy=                    0.399740
 Thermal correction to Enthalpy=                  0.400684
 Thermal correction to Gibbs Free Energy=         0.329391
 Sum of electronic and zero-point Energies=           -845.703204
 Sum of electronic and thermal Energies=              -845.683032
 Sum of electronic and thermal Enthalpies=            -845.682087
 Sum of electronic and thermal Free Energies=         -845.753380

                     E (Thermal)             CV                S
                      KCal/Mol        Cal/Mol-Kelvin    Cal/Mol-Kelvin
 Total                  250.840             75.583            150.048
 Electronic               0.000              0.000              0.000
 Translational            0.889              2.981             42.614
 Rotational               0.889              2.981             33.629
 Vibrational            249.063             69.622             73.806
 Vibration     1          0.593              1.985              6.330
 Vibration     2          0.594              1.983              5.557
 Vibration     3          0.595              1.980              5.111
 Vibration     4          0.595              1.978              4.864
 Vibration     5          0.597              1.972              4.380
 Vibration     6          0.598              1.967              4.090
 Vibration     7          0.601              1.958              3.718
 Vibration     8          0.603              1.951              3.495
 Vibration     9          0.613              1.919              2.881
 Vibration    10          0.620              1.896              2.602
 Vibration    11          0.623              1.887              2.505
 Vibration    12          0.633              1.856              2.248
 Vibration    13          0.637              1.841              2.139
 Vibration    14          0.653              1.792              1.865
 Vibration    15          0.658              1.778              1.799
 Vibration    16          0.667              1.749              1.676
 Vibration    17          0.672              1.734              1.616
 Vibration    18          0.702              1.646              1.339
 Vibration    19          0.711              1.620              1.270
 Vibration    20          0.723              1.587              1.193
 Vibration    21          0.736              1.550              1.111
 Vibration    22          0.757              1.494              1.004
 Vibration    23          0.788              1.414              0.872
 Vibration    24          0.789              1.409              0.865
 Vibration    25          0.815              1.346              0.776
 Vibration    26          0.848              1.268              0.678
 Vibration    27          0.862              1.235              0.642
 Vibration    28          0.872              1.212              0.616
 Vibration    29          0.893              1.167              0.571
 Vibration    30          0.920              1.109              0.516
 Vibration    31          0.952              1.044              0.459
 Vibration    32          0.979              0.991              0.418

 Optimization completed.
    -- Stationary point found.
 Normal termination of Gaussian 16 at Sat Dec 12 10:50:56 2020.

 ----------------------------------------------------------------------
 # B3LYP/6-311++G(d,p) empiricaldispersion=gd3bj scf=xqc pop=npa geom=c
 heck
 ----------------------------------------------------------------------

 --------------------------------------
 CID_61063107_JID_9772_Energie_neutraal
 --------------------------------------
 Structure from the checkpoint file:  "JID_9772.chk"
 Charge =  0 Multiplicity = 1

 SCF Done:  E(RB3LYP) =  -846.324321268     A.U. after   15 cycles
 Normal termination of Gaussian 16 at Sat Dec 12 11:02:25 2020.

 ----------------------------------------------------------------------
 # B3LYP/6-311++G(d,p) empiricaldispersion=gd3bj scf=xqc pop=npa geom=c
 heck
 ----------------------------------------------------------------------

 ------------------------------------
 CID_61063107_JID_9772_Energie_kation
 ------------------------------------
 Structure from the checkpoint file:  "JID_9772.chk"
 Charge =  1 Multiplicity = 2

 SCF Done:  E(UB3LYP) =  -846.033758311     A.U. after   26 cycles
 Normal termination of Gaussian 16 at Sat Dec 12 11:30:00 2020.
 Gaussian 16:  ES64L-G16RevA.03 25-Dec-2016

 ----------------------------------------------------------------------
 # B3LYP/6-311++G(d,p) empiricaldispersion=gd3bj scf=xqc pop=npa geom=c
 heck
 ----------------------------------------------------------------------

 -----------------------------------
 CID_61063107_JID_9772_Energie_anion
 -----------------------------------
 Structure from the checkpoint file:  "JID_9772.chk"
 Charge = -1 Multiplicity = 2

                         Standard orientation:
 ---------------------------------------------------------------------
 Center     Atomic      Atomic             Coordinates (Angstroms)
 Number     Number       Type             X           Y           Z
 ---------------------------------------------------------------------
      1          6           0        4.031525   -1.605269    0.472840
      2          6           0        2.521112   -1.450570    0.253621
      3          6           0        1.846555   -2.822151    0.135425
      4          6           0        1.846155   -0.629539    1.365114
      5          6           0        2.426879    0.776540    1.580263
      6          7           0        2.517469    1.581147    0.362256
      7          6           0        1.490985    2.131822   -0.342766
      8          8           0        1.637575    2.537825   -1.493490
      9          6           0        0.123887    2.294360    0.339600
     10          7           0       -0.954908    2.020331   -0.613583
     11          6           0       -1.119678    0.635808   -0.915772
     12          6           0       -0.633985    0.099366   -2.117079
     13          6           0       -0.825968   -1.246168   -2.422657
     14          6           0       -1.488834   -2.078253   -1.518891
     15          6           0       -1.961372   -1.551115   -0.317862
     16          6           0       -1.795579   -0.198606   -0.005002
     17          6           0       -2.366498    0.352784    1.287269
     18          8           0       -3.514887   -0.345211    1.738962
     19          6           0       -4.666085   -0.064789    0.962772
     20          1           0        4.239072   -2.086005    1.437793
     21          1           0        4.559409   -0.644082    0.462241
     22          1           0        4.476248   -2.228452   -0.310882
     23          1           0        2.359737   -0.918062   -0.693778
     24          1           0        1.984814   -3.405550    1.055220
     25          1           0        0.772484   -2.717710   -0.045094
     26          1           0        2.273814   -3.399605   -0.692537
     27          1           0        0.777998   -0.548727    1.129989
     28          1           0        1.918512   -1.172702    2.318743
     29          1           0        1.838062    1.319108    2.326420
     30          1           0        3.440640    0.712912    1.985802
     31          1           0        3.355603    1.472747   -0.197790
     32          1           0        0.005658    1.657352    1.215358
     33          1           0        0.046044    3.335318    0.677274
     34          1           0       -0.708973    2.519824   -1.467382
     35          1           0       -0.089127    0.748362   -2.796549
     36          1           0       -0.447322   -1.644997   -3.359627
     37          1           0       -1.637712   -3.129613   -1.747776
     38          1           0       -2.496570   -2.178123    0.388703
     39          1           0       -1.640006    0.258315    2.104936
     40          1           0       -2.581416    1.423912    1.156773
     41          1           0       -4.906062    1.009670    0.981764
     42          1           0       -4.542651   -0.375973   -0.083697
     43          1           0       -5.492284   -0.624491    1.408369
 ---------------------------------------------------------------------

 SCF Done:  E(UB3LYP) =  -846.313307203     A.U. after   33 cycles
 SCF Done:  E(UB3LYP) =  -846.313307203     a.u. after    1 cycles

 The electronic state is 2-A.
 Alpha  occ. eigenvalues --  -19.04175 -18.99886 -14.24441 -14.22507 -10.18064
 Alpha  occ. eigenvalues --  -10.12908 -10.12839 -10.11765 -10.11758 -10.11144
 Alpha  occ. eigenvalues --  -10.08669 -10.08527 -10.08370 -10.08308 -10.08297
 Alpha  occ. eigenvalues --  -10.07762 -10.07025 -10.06126 -10.05959  -0.95329
 Alpha  occ. eigenvalues --   -0.94983  -0.84114  -0.83227  -0.75904  -0.71469
 Alpha  occ. eigenvalues --   -0.68225  -0.66016  -0.64138  -0.62863  -0.60633
 Alpha  occ. eigenvalues --   -0.58877  -0.56158  -0.54977  -0.51882  -0.49975
 Alpha  occ. eigenvalues --   -0.48245  -0.46247  -0.43869  -0.41446  -0.40350
 Alpha  occ. eigenvalues --   -0.40017  -0.39512  -0.39247  -0.37927  -0.37079
 Alpha  occ. eigenvalues --   -0.36155  -0.36004  -0.35194  -0.34074  -0.33879
 Alpha  occ. eigenvalues --   -0.32627  -0.32189  -0.31527  -0.30544  -0.29669
 Alpha  occ. eigenvalues --   -0.29255  -0.28724  -0.27976  -0.27531  -0.27013
 Alpha  occ. eigenvalues --   -0.26590  -0.26074  -0.23711  -0.23359  -0.23061
 Alpha  occ. eigenvalues --   -0.22695  -0.19870  -0.17919  -0.17443  -0.16427
 Alpha  occ. eigenvalues --   -0.16208  -0.13491   0.04206
 Alpha virt. eigenvalues --    0.06161   0.06336   0.06620   0.07214   0.07623
 Alpha virt. eigenvalues --    0.07920   0.08344   0.08564   0.09095   0.09583
 Alpha virt. eigenvalues --    0.09927   0.10208   0.10427   0.10729   0.11356

  Beta  occ. eigenvalues --  -19.04171 -18.99884 -14.24426 -14.22507 -10.18064
  Beta  occ. eigenvalues --  -10.12898 -10.12829 -10.11740 -10.11734 -10.11102
  Beta  occ. eigenvalues --  -10.08621 -10.08485 -10.08361 -10.08305 -10.08301
  Beta  occ. eigenvalues --  -10.07758 -10.07010 -10.06084 -10.05946  -0.95320
  Beta  occ. eigenvalues --   -0.94976  -0.84089  -0.83197  -0.75856  -0.71443
  Beta  occ. eigenvalues --   -0.68152  -0.65975  -0.64085  -0.62827  -0.60595
  Beta  occ. eigenvalues --   -0.58816  -0.56107  -0.54919  -0.51863  -0.49918
  Beta  occ. eigenvalues --   -0.48187  -0.46195  -0.43850  -0.41413  -0.40298
  Beta  occ. eigenvalues --   -0.39971  -0.39469  -0.39215  -0.37894  -0.37050
  Beta  occ. eigenvalues --   -0.36125  -0.35976  -0.35151  -0.34048  -0.33842
  Beta  occ. eigenvalues --   -0.32598  -0.32163  -0.31501  -0.30489  -0.29631
  Beta  occ. eigenvalues --   -0.29208  -0.28696  -0.27945  -0.27482  -0.26973
  Beta  occ. eigenvalues --   -0.26536  -0.26045  -0.23674  -0.23334  -0.23026
  Beta  occ. eigenvalues --   -0.22667  -0.19819  -0.17891  -0.17423  -0.16352
  Beta  occ. eigenvalues --   -0.16079  -0.13398
  Beta virt. eigenvalues --    0.06018   0.06581   0.06816   0.07027   0.07553
  Beta virt. eigenvalues --    0.08048   0.08302   0.08753   0.08858   0.09433
  Beta virt. eigenvalues --    0.09616   0.10021   0.10421   0.10596   0.11012

 Mulliken charges and spin densities:
               1          2
     1  C    1.164085  -1.808626
     2  C   -0.347224   0.580177
     3  C   -0.901381   0.205884
     4  C   -0.929511   1.054971
     5  C    1.687253  -2.437731
     6  N   -0.162796   0.118283
     7  C   -0.445136   0.234393
     8  O   -0.349170   0.017119
     9  C    0.116807  -0.291850
    10  N   -0.098740   0.065450
    11  C    0.033372   0.079160
    12  C   -0.177912   0.007539
    13  C   -0.279797  -0.156011
    14  C   -0.476411   0.118427
    15  C   -0.054542  -0.050308
    16  C   -0.635245   0.820030
    17  C    0.832432  -1.484491
    18  O   -0.100188   0.030974
    19  C   -0.111652  -0.190826
    20  H   -0.121562   0.281606
    21  H   -0.373563   0.502311
    22  H   -0.169891   0.303148
    23  H    0.366375  -0.207983
    24  H    0.005195   0.130793
    25  H    0.049810   0.120449
    26  H    0.035164   0.092397
    27  H    0.845085  -0.582732
    28  H   -0.238342   0.421617
    29  H   -0.701645   0.909550
    30  H   -0.500276   0.696025
    31  H   -0.003115   0.310608
    32  H    0.818040  -0.672009
    33  H   -0.395249   0.622061
    34  H    0.233661   0.021746
    35  H    0.168056   0.023492
    36  H    0.068351   0.081269
    37  H    0.052908   0.108974
    38  H    0.126465   0.080663
    39  H   -0.438176   0.663336
    40  H    0.224923  -0.036584
    41  H    0.012545   0.106078
    42  H    0.110624   0.023275
    43  H    0.060371   0.087347
 Sum of Mulliken charges =  -1.00000   1.00000

 Dipole moment (field-independent basis, Debye):
    X=             -6.8049    Y=             -2.0166    Z=             -5.3259  Tot=              8.8735
 Quadrupole moment (field-independent basis, Debye-Ang):
   XX=           -192.3517   YY=           -164.1939   ZZ=           -167.7287
   XY=             -1.4094   XZ=             -6.6194   YZ=              0.6468

 Summary of Natural Population Analysis:

                                       Natural Population
                Natural  -----------------------------------------------
    Atom  No    Charge         Core      Valence    Rydberg      Total
 -----------------------------------------------------------------------
      C    1   -0.28544      0.99965     2.27969    0.00611     3.28544
      C    2   -0.11809      0.99961     2.10995    0.00853     3.11809
      C    3   -0.28266      0.99964     2.27717    0.00585     3.28266
      C    4   -0.19470      0.99960     2.18554    0.00956     3.19470
      C    5   -0.09060      0.99960     2.07834    0.01265     3.09060
      N    6   -0.31271      0.99967     2.80189    0.01116     3.81271
      C    7    0.33743      0.99967     1.64004    0.02286     2.66257
      O    8   -0.33583      0.99988     3.33015    0.00580     4.33583
      C    9   -0.12922      0.99957     2.11852    0.01113     3.12922
      N   10   -0.32928      0.99972     2.81865    0.01091     3.82928
      C   11    0.08227      0.99942     1.90693    0.01137     2.91773
      C   12   -0.11658      0.99951     2.10850    0.00856     3.11658
      C   13   -0.09383      0.99957     2.08468    0.00958     3.09383
      C   14   -0.11082      0.99956     2.10183    0.00943     3.11082
      C   15   -0.09947      0.99952     2.09048    0.00948     3.09947
      C   16   -0.03807      0.99945     2.02835    0.01027     3.03807
      C   17   -0.02222      0.99953     2.00862    0.01407     3.02222
      O   18   -0.29537      0.99989     3.28654    0.00894     4.29537
      C   19   -0.09958      0.99961     2.09202    0.00795     3.09958
      H   20    0.09853      0.00000     0.40028    0.00119     0.40147
      H   21    0.09783      0.00000     0.40074    0.00142     0.40217
      H   22    0.09869      0.00000     0.40044    0.00087     0.40131
      H   23    0.09461      0.00000     0.40296    0.00243     0.40539
      H   24    0.09463      0.00000     0.40457    0.00080     0.40537
      H   25    0.10520      0.00000     0.39354    0.00125     0.39480
      H   26    0.09555      0.00000     0.40372    0.00073     0.40445
      H   27    0.09858      0.00000     0.39813    0.00329     0.40142
      H   28    0.10013      0.00000     0.39835    0.00152     0.39987
      H   29    0.10122      0.00000     0.39646    0.00232     0.39878
      H   30    0.10531      0.00000     0.39188    0.00280     0.39469
      H   31    0.19545      0.00000     0.30216    0.00239     0.30455
      H   32    0.10257      0.00000     0.39544    0.00199     0.39743
      H   33    0.10840      0.00000     0.39038    0.00122     0.39160
      H   34    0.18624      0.00000     0.31125    0.00251     0.31376
      H   35    0.10792      0.00000     0.39103    0.00104     0.39208
      H   36    0.09876      0.00000     0.40042    0.00082     0.40124
      H   37    0.09934      0.00000     0.39985    0.00080     0.40066
      H   38    0.10626      0.00000     0.39207    0.00167     0.39374
      H   39    0.09882      0.00000     0.39874    0.00244     0.40118
      H   40    0.09230      0.00000     0.40597    0.00173     0.40770
      H   41    0.07813      0.00000     0.42056    0.00132     0.42187
      H   42    0.08282      0.00000     0.41602    0.00116     0.41718
      H   43    0.08745      0.00000     0.41163    0.00092     0.41255
 =======================================================================
   * Total *    0.00000     18.99267    52.77449    0.23285    72.00000

 Normal termination of Gaussian 16 at Sat Dec 12 12:04:11 2020.
