 Gaussian 16, Revision A.03,

 -----------------------------------------------------------
 # opt freq B3LYP/6-31G(d) empiricaldispersion=gd3bj scf=xqc
 -----------------------------------------------------------

 -----------------------------
 CID_91331207_JID_947_neutraal
 -----------------------------
 Symbolic Z-matrix:
 Charge =  0 Multiplicity = 1

 SCF Done:  E(RB3LYP) =  -389.423575953     A.U. after   14 cycles
 SCF Done:  E(RB3LYP) =  -389.436280053     A.U. after   13 cycles
 SCF Done:  E(RB3LYP) =  -389.438754621     A.U. after   12 cycles
 SCF Done:  E(RB3LYP) =  -389.438712155     A.U. after   14 cycles
 SCF Done:  E(RB3LYP) =  -389.439578504     A.U. after   13 cycles
 SCF Done:  E(RB3LYP) =  -389.440845805     A.U. after   12 cycles
 SCF Done:  E(RB3LYP) =  -389.440980000     A.U. after   11 cycles
 SCF Done:  E(RB3LYP) =  -389.441001203     A.U. after   11 cycles
 SCF Done:  E(RB3LYP) =  -389.441059985     A.U. after   10 cycles
 SCF Done:  E(RB3LYP) =  -389.441091590     A.U. after   11 cycles
 SCF Done:  E(RB3LYP) =  -389.441186111     A.U. after   10 cycles
 SCF Done:  E(RB3LYP) =  -389.441187457     A.U. after   11 cycles
 SCF Done:  E(RB3LYP) =  -389.441188731     A.U. after    8 cycles
 SCF Done:  E(RB3LYP) =  -389.441189563     A.U. after    9 cycles
 SCF Done:  E(RB3LYP) =  -389.441189584     A.U. after    7 cycles
 Optimization completed.
    -- Stationary point found.
 Normal termination of Gaussian 16 at Tue Dec  8 13:40:18 2020.

 --------------------------------------------------------------------
 #N Geom=AllCheck Guess=TCheck SCRF=Check GenChk RB3LYP/6-31G(d) Freq
 --------------------------------------------------------------------

 Structure from the checkpoint file:  "JID_947.chk"
 -----------------------------
 CID_91331207_JID_947_neutraal
 -----------------------------
 Charge =  0 Multiplicity = 1

 SCF Done:  E(RB3LYP) =  -389.441189584     A.U. after    1 cycles

  Exact polarizability:  97.673 -10.126 142.190  -1.643  -4.961  80.442
 Approx polarizability: 124.234 -24.520 246.285  -1.349 -13.145 115.486

                      1                      2                      3
                      A                      A                      A
 Frequencies --     19.6608                48.5910                89.9574
 Red. masses --      3.4452                 3.0630                 2.2283
 Frc consts  --      0.0008                 0.0043                 0.0106
 IR Inten    --      0.0706                 0.0242                 0.0113

                      4                      5                      6
                      A                      A                      A
 Frequencies --    139.2756               176.9634               214.4175
 Red. masses --      3.5926                 2.4687                 2.0124
 Frc consts  --      0.0411                 0.0455                 0.0545
 IR Inten    --      0.1604                 0.9924                 0.1911

                      7                      8                      9
                      A                      A                      A
 Frequencies --    225.5736               241.9213               255.8643
 Red. masses --      1.2853                 1.3849                 2.0833
 Frc consts  --      0.0385                 0.0478                 0.0804
 IR Inten    --      1.0443                 0.5325                 0.5677

                     10                     11                     12
                      A                      A                      A
 Frequencies --    326.6351               358.0288               375.2417
 Red. masses --      2.8287                 2.3951                 2.8498
 Frc consts  --      0.1778                 0.1809                 0.2364
 IR Inten    --      0.6002                 0.3122                 0.0840

                     13                     14                     15
                      A                      A                      A
 Frequencies --    449.1058               474.5787               534.7792
 Red. masses --      2.9595                 2.4806                 2.9918
 Frc consts  --      0.3517                 0.3292                 0.5041
 IR Inten    --      0.4977                 1.5250                 1.3946

                     16                     17                     18
                      A                      A                      A
 Frequencies --    579.2762               634.7177               679.0412
 Red. masses --      1.2447                 3.6954                 2.6496
 Frc consts  --      0.2461                 0.8771                 0.7198
 IR Inten    --      1.0201                 5.7920                 1.7789

                     19                     20                     21
                      A                      A                      A
 Frequencies --    706.6999               746.3203               759.3985
 Red. masses --      1.9027                 1.2771                 1.4391
 Frc consts  --      0.5599                 0.4191                 0.4890
 IR Inten    --      1.4299                 0.9963                 2.7241

                     22                     23                     24
                      A                      A                      A
 Frequencies --    812.6733               823.9424               865.3138
 Red. masses --      1.3423                 1.8818                 1.3281
 Frc consts  --      0.5223                 0.7527                 0.5859
 IR Inten    --      2.0715                 1.5069                52.7636

                     25                     26                     27
                      A                      A                      A
 Frequencies --    902.9207               923.4920               930.3175
 Red. masses --      1.4099                 1.6562                 1.4255
 Frc consts  --      0.6772                 0.8322                 0.7269
 IR Inten    --     39.3401                 3.2525                23.1536

                     28                     29                     30
                      A                      A                      A
 Frequencies --    999.7552              1021.4621              1028.5279
 Red. masses --      1.4671                 1.9691                 1.5019
 Frc consts  --      0.8640                 1.2105                 0.9361
 IR Inten    --      2.4355                 0.9047                 0.1255

                     31                     32                     33
                      A                      A                      A
 Frequencies --   1071.4688              1084.8673              1108.7630
 Red. masses --      1.4343                 1.6723                 1.6349
 Frc consts  --      0.9702                 1.1597                 1.1842
 IR Inten    --      0.1484                 8.2533                 0.3116

                     34                     35                     36
                      A                      A                      A
 Frequencies --   1134.2221              1244.7774              1297.7825
 Red. masses --      2.0489                 2.7181                 2.0078
 Frc consts  --      1.5530                 2.4814                 1.9924
 IR Inten    --      9.1953                 0.6262                 6.9607

                     37                     38                     39
                      A                      A                      A
 Frequencies --   1306.2734              1359.2454              1375.2977
 Red. masses --      1.4082                 1.7256                 2.7648
 Frc consts  --      1.4157                 1.8784                 3.0811
 IR Inten    --      1.2454                 4.1461                 0.8773

                     40                     41                     42
                      A                      A                      A
 Frequencies --   1426.8420              1433.9701              1456.3199
 Red. masses --      1.2420                 1.2305                 1.2601
 Frc consts  --      1.4898                 1.4907                 1.5746
 IR Inten    --      2.3166                 2.2719                 1.5096

                     43                     44                     45
                      A                      A                      A
 Frequencies --   1474.7645              1493.3614              1513.8535
 Red. masses --      1.1949                 1.3202                 1.0466
 Frc consts  --      1.5312                 1.7346                 1.4132
 IR Inten    --      0.9223                 0.8606                 6.5890

                     46                     47                     48
                      A                      A                      A
 Frequencies --   1515.0483              1526.5609              1535.2127
 Red. masses --      1.0779                 1.0410                 1.1256
 Frc consts  --      1.4578                 1.4293                 1.5631
 IR Inten    --      5.3764                 7.7720                 6.1482

                     49                     50                     51
                      A                      A                      A
 Frequencies --   1539.0293              1672.3743              1727.3292
 Red. masses --      1.0701                 3.9449                 5.4161
 Frc consts  --      1.4934                 6.5007                 9.5210
 IR Inten    --      3.3273                24.0662                 6.7367

                     52                     53                     54
                      A                      A                      A
 Frequencies --   2055.6622              3037.7645              3045.3116
 Red. masses --     10.3741                 1.0628                 1.0380
 Frc consts  --     25.8287                 5.7783                 5.6716
 IR Inten    --     43.1457                23.5879                25.6314

                     55                     56                     57
                      A                      A                      A
 Frequencies --   3052.8376              3081.0913              3099.8197
 Red. masses --      1.0346                 1.0996                 1.1011
 Frc consts  --      5.6809                 6.1502                 6.2340
 IR Inten    --     27.9197                16.8585                19.3368

                     58                     59                     60
                      A                      A                      A
 Frequencies --   3121.7261              3128.2288              3132.3722
 Red. masses --      1.1029                 1.1028                 1.0579
 Frc consts  --      6.3325                 6.3586                 6.1159
 IR Inten    --     36.9315                30.1925                12.3759

                     61                     62                     63
                      A                      A                      A
 Frequencies --   3150.2324              3163.9834              3183.3758
 Red. masses --      1.1000                 1.0601                 1.0594
 Frc consts  --      6.4316                 6.2530                 6.3252
 IR Inten    --     14.8321                 8.7884                 4.9548

                     64                     65                     66
                      A                      A                      A
 Frequencies --   3197.7373              3244.3995              3261.0757
 Red. masses --      1.1150                 1.1158                 1.1152
 Frc consts  --      6.7173                 6.9198                 6.9875
 IR Inten    --      4.9331                16.6149                12.3328

 - Thermochemistry -
 -------------------
 Temperature   298.150 Kelvin.  Pressure   1.00000 Atm.
 Atom     1 has atomic number  6 and mass  12.00000

 Molecular mass:   134.10955 amu.
 Principal axes and moments of inertia in atomic units:
                           1         2         3
     Eigenvalues --  1143.470551697.881992124.20280
           X            0.99946   0.03082   0.01128
           Y           -0.03067   0.99944  -0.01343
           Z           -0.01169   0.01308   0.99985
 This molecule is an asymmetric top.
 Rotational symmetry number  1.
 Warning -- assumption of classical behavior for rotation
           may cause significant error
 Rotational temperatures (Kelvin)      0.07575     0.05101     0.04077
 Rotational constants (GHZ):           1.57830     1.06294     0.84961
 Zero-point vibrational energy     547874.3 (Joules/Mol)
                                  130.94511 (Kcal/Mol)
 Warning -- explicit consideration of  16 degrees of freedom as
           vibrations may cause significant error
 Vibrational temperatures:     28.29    69.91   129.43   200.39   254.61
          (Kelvin)            308.50   324.55   348.07   368.13   469.96
                              515.12   539.89   646.16   682.81   769.43
                              833.45   913.22   976.99  1016.78  1073.79
                             1092.61  1169.26  1185.47  1244.99  1299.10
                             1328.70  1338.52  1438.42  1469.66  1479.82
                             1541.60  1560.88  1595.26  1631.89  1790.96
                             1867.22  1879.44  1955.65  1978.75  2052.91
                             2063.16  2095.32  2121.86  2148.61  2178.10
                             2179.82  2196.38  2208.83  2214.32  2406.17
                             2485.24  2957.64  4370.67  4381.52  4392.35
                             4433.00  4459.95  4491.47  4500.82  4506.79
                             4532.48  4552.27  4580.17  4600.83  4667.97
                             4691.96

 Zero-point correction=                           0.208674 (Hartree/Particle)
 Thermal correction to Energy=                    0.220481
 Thermal correction to Enthalpy=                  0.221426
 Thermal correction to Gibbs Free Energy=         0.170369
 Sum of electronic and zero-point Energies=           -389.232515
 Sum of electronic and thermal Energies=              -389.220708
 Sum of electronic and thermal Enthalpies=            -389.219764
 Sum of electronic and thermal Free Energies=         -389.270820

                     E (Thermal)             CV                S
                      KCal/Mol        Cal/Mol-Kelvin    Cal/Mol-Kelvin
 Total                  138.354             43.537            107.458
 Electronic               0.000              0.000              0.000
 Translational            0.889              2.981             40.593
 Rotational               0.889              2.981             29.801
 Vibrational            136.577             37.575             37.063
 Vibration     1          0.593              1.986              6.668
 Vibration     2          0.595              1.978              4.874
 Vibration     3          0.602              1.956              3.661
 Vibration     4          0.615              1.914              2.814
 Vibration     5          0.628              1.871              2.360
 Vibration     6          0.644              1.819              2.006
 Vibration     7          0.650              1.802              1.914
 Vibration     8          0.658              1.776              1.789
 Vibration     9          0.666              1.753              1.690
 Vibration    10          0.710              1.622              1.277
 Vibration    11          0.733              1.559              1.131
 Vibration    12          0.746              1.523              1.058
 Vibration    13          0.808              1.363              0.798
 Vibration    14          0.831              1.306              0.725
 Vibration    15          0.890              1.173              0.577
 Vibration    16          0.936              1.076              0.487

 Optimization completed.
    -- Stationary point found.
 Normal termination of Gaussian 16 at Tue Dec  8 13:47:47 2020.

 ----------------------------------------------------------------------
 # B3LYP/6-311++G(d,p) empiricaldispersion=gd3bj scf=xqc pop=npa geom=c
 heck
 ----------------------------------------------------------------------

 -------------------------------------
 CID_91331207_JID_947_Energie_neutraal
 -------------------------------------
 Structure from the checkpoint file:  "JID_947.chk"
 Charge =  0 Multiplicity = 1

 SCF Done:  E(RB3LYP) =  -389.549526797     A.U. after   14 cycles
 Normal termination of Gaussian 16 at Tue Dec  8 13:52:43 2020.

 ----------------------------------------------------------------------
 # B3LYP/6-311++G(d,p) empiricaldispersion=gd3bj scf=xqc pop=npa geom=c
 heck
 ----------------------------------------------------------------------

 -----------------------------------
 CID_91331207_JID_947_Energie_kation
 -----------------------------------
 Structure from the checkpoint file:  "JID_947.chk"
 Charge =  1 Multiplicity = 2

 SCF Done:  E(UB3LYP) =  -389.257298498     A.U. after   21 cycles
 Normal termination of Gaussian 16 at Tue Dec  8 13:59:05 2020.
 Gaussian 16:  ES64L-G16RevA.03 25-Dec-2016

 ----------------------------------------------------------------------
 # B3LYP/6-311++G(d,p) empiricaldispersion=gd3bj scf=xqc pop=npa geom=c
 heck
 ----------------------------------------------------------------------

 ----------------------------------
 CID_91331207_JID_947_Energie_anion
 ----------------------------------
 Structure from the checkpoint file:  "JID_947.chk"
 Charge = -1 Multiplicity = 2

                         Standard orientation:
 ---------------------------------------------------------------------
 Center     Atomic      Atomic             Coordinates (Angstroms)
 Number     Number       Type             X           Y           Z
 ---------------------------------------------------------------------
      1          6           0        2.141173    0.404967    1.557720
      2          6           0        2.359409   -0.036997    0.102618
      3          6           0        1.085243    0.037447   -0.708824
      4          6           0        0.944265    0.894290   -1.725176
      5          6           0       -0.029646   -0.872668   -0.298728
      6          6           0        0.173149   -2.200689   -0.229368
      7          6           0       -1.341753   -0.277876    0.053080
      8          6           0       -1.505474    1.025620    0.169370
      9          6           0       -1.711431    2.306902    0.299600
     10          6           0       -2.515225   -1.197379    0.330933
     11          1           0        1.777323    1.437370    1.595968
     12          1           0        3.073124    0.345350    2.130579
     13          1           0        1.397735   -0.231464    2.048993
     14          1           0        3.124639    0.590835   -0.368482
     15          1           0        2.746276   -1.064999    0.097494
     16          1           0        0.021356    0.964540   -2.292540
     17          1           0        1.754203    1.555813   -2.021562
     18          1           0       -0.603447   -2.895557    0.069289
     19          1           0        1.134594   -2.634371   -0.485439
     20          1           0       -2.025530    2.925471   -0.540145
     21          1           0       -1.560512    2.816902    1.250166
     22          1           0       -2.704714   -1.855079   -0.525608
     23          1           0       -2.314185   -1.836954    1.199178
     24          1           0       -3.419130   -0.619566    0.534769
 ---------------------------------------------------------------------

 SCF Done:  E(UB3LYP) =  -389.532406691     A.U. after   33 cycles
 SCF Done:  E(UB3LYP) =  -389.532409298     a.u. after    3 cycles

 The electronic state is 2-A.
 Alpha  occ. eigenvalues --  -10.05664 -10.05538 -10.05424 -10.04659 -10.04521
 Alpha  occ. eigenvalues --  -10.04494 -10.04307 -10.04277 -10.03325 -10.01975
 Alpha  occ. eigenvalues --   -0.71620  -0.67494  -0.62932  -0.61035  -0.58972
 Alpha  occ. eigenvalues --   -0.53397  -0.50757  -0.45955  -0.41309  -0.36470
 Alpha  occ. eigenvalues --   -0.35218  -0.33359  -0.32176  -0.31596  -0.31087
 Alpha  occ. eigenvalues --   -0.29176  -0.28730  -0.27204  -0.25830  -0.25323
 Alpha  occ. eigenvalues --   -0.24630  -0.22422  -0.20661  -0.17671  -0.14343
 Alpha  occ. eigenvalues --   -0.12811  -0.09561   0.05707
 Alpha virt. eigenvalues --    0.07854   0.08454   0.08675   0.09545   0.10247
 Alpha virt. eigenvalues --    0.10734   0.11248   0.11655   0.12193   0.12898
 Alpha virt. eigenvalues --    0.13069   0.13559   0.14063   0.14640   0.15412

  Beta  occ. eigenvalues --  -10.05676 -10.05528 -10.05409 -10.04542 -10.04484
  Beta  occ. eigenvalues --  -10.04362 -10.04262 -10.04239 -10.03286 -10.01800
  Beta  occ. eigenvalues --   -0.71416  -0.67367  -0.62658  -0.60953  -0.58795
  Beta  occ. eigenvalues --   -0.53264  -0.50688  -0.45646  -0.41083  -0.36369
  Beta  occ. eigenvalues --   -0.35038  -0.33247  -0.32089  -0.31310  -0.31021
  Beta  occ. eigenvalues --   -0.29083  -0.28679  -0.27124  -0.25740  -0.25239
  Beta  occ. eigenvalues --   -0.24556  -0.22394  -0.20552  -0.17049  -0.14146
  Beta  occ. eigenvalues --   -0.12621  -0.08587
  Beta virt. eigenvalues --    0.07896   0.08723   0.09240   0.09478   0.09853
  Beta virt. eigenvalues --    0.10651   0.10921   0.11242   0.11855   0.12699
  Beta virt. eigenvalues --    0.13154   0.13465   0.13833   0.14056   0.14778

 Mulliken charges and spin densities:
               1          2
     1  C    0.352589  -0.987911
     2  C   -0.782638   0.450745
     3  C   -0.573237   1.474379
     4  C   -0.208070  -0.501069
     5  C   -1.194913   1.981555
     6  C    0.256401  -0.844360
     7  C    0.466399  -0.941403
     8  C    1.429141  -1.103893
     9  C   -0.935322   0.416869
    10  C    1.076470  -1.666200
    11  H   -0.010555   0.158298
    12  H   -0.072410   0.178361
    13  H   -0.042955   0.208829
    14  H   -0.044305   0.177285
    15  H    0.009928   0.102881
    16  H    0.175209  -0.027917
    17  H   -0.123172   0.207974
    18  H   -0.260534   0.396802
    19  H    0.167682  -0.056277
    20  H   -0.332011   0.456901
    21  H    0.139948  -0.025271
    22  H    0.041274   0.096126
    23  H   -0.435272   0.603392
    24  H   -0.099647   0.243906
 Sum of Mulliken charges =  -1.00000   1.00000

 Dipole moment (field-independent basis, Debye):
    X=              2.1375    Y=              0.7359    Z=             -1.8077  Tot=              2.8945
 Quadrupole moment (field-independent basis, Debye-Ang):
   XX=            -99.1973   YY=           -101.6664   ZZ=            -89.2204
   XY=             -1.9298   XZ=              0.8342   YZ=             10.1477

 Summary of Natural Population Analysis:

                                       Natural Population
                Natural  -----------------------------------------------
    Atom  No    Charge         Core      Valence    Rydberg      Total
 -----------------------------------------------------------------------
      C    1   -0.28232      0.99966     2.27849    0.00417     3.28232
      C    2   -0.19743      0.99959     2.18860    0.00924     3.19743
      C    3   -0.00143      0.99949     1.99021    0.01173     3.00143
      C    4   -0.18677      0.99950     2.18010    0.00717     3.18677
      C    5   -0.01628      0.99944     2.00422    0.01262     3.01628
      C    6   -0.16343      0.99953     2.15626    0.00764     3.16343
      C    7   -0.07424      0.99940     2.06410    0.01075     3.07424
      C    8    0.09613      0.99947     1.89490    0.00949     2.90387
      C    9   -0.24642      0.99951     2.24063    0.00628     3.24642
      C   10   -0.28478      0.99963     2.27873    0.00642     3.28478
      H   11    0.09713      0.00000     0.40147    0.00140     0.40287
      H   12    0.09201      0.00000     0.40697    0.00102     0.40799
      H   13    0.10477      0.00000     0.39370    0.00153     0.39523
      H   14    0.09253      0.00000     0.40630    0.00117     0.40747
      H   15    0.09833      0.00000     0.40045    0.00123     0.40167
      H   16    0.09525      0.00000     0.40380    0.00095     0.40475
      H   17    0.08769      0.00000     0.41122    0.00109     0.41231
      H   18    0.09283      0.00000     0.40616    0.00101     0.40717
      H   19    0.08758      0.00000     0.41142    0.00100     0.41242
      H   20    0.10296      0.00000     0.39327    0.00377     0.39704
      H   21    0.09912      0.00000     0.39949    0.00139     0.40088
      H   22    0.09796      0.00000     0.40101    0.00104     0.40204
      H   23    0.10563      0.00000     0.39170    0.00267     0.39437
      H   24    0.10318      0.00000     0.39595    0.00086     0.39682
 =======================================================================
   * Total *    0.00000      9.99521    26.89916    0.10563    37.00000

 Normal termination of Gaussian 16 at Tue Dec  8 14:23:49 2020.
