 Gaussian 16, Revision A.03,

 -----------------------------------------------------------
 # opt freq B3LYP/6-31G(d) empiricaldispersion=gd3bj scf=xqc
 -----------------------------------------------------------

 ------------------------------
 CID_88972454_JID_1142_neutraal
 ------------------------------
 Symbolic Z-matrix:
 Charge =  0 Multiplicity = 1

 SCF Done:  E(RB3LYP) =  -551.295097146     A.U. after   17 cycles
 SCF Done:  E(RB3LYP) =  -551.301222850     A.U. after   18 cycles
 SCF Done:  E(RB3LYP) =  -551.303030538     A.U. after   18 cycles
 SCF Done:  E(RB3LYP) =  -551.303226107     A.U. after   16 cycles
 SCF Done:  E(RB3LYP) =  -551.303297553     A.U. after   13 cycles
 SCF Done:  E(RB3LYP) =  -551.303307889     A.U. after   11 cycles
 SCF Done:  E(RB3LYP) =  -551.303309473     A.U. after   11 cycles
 SCF Done:  E(RB3LYP) =  -551.303309794     A.U. after   10 cycles
 Optimization completed.
    -- Stationary point found.
 Normal termination of Gaussian 16 at Tue Dec  8 19:12:18 2020.

 --------------------------------------------------------------------
 #N Geom=AllCheck Guess=TCheck SCRF=Check GenChk RB3LYP/6-31G(d) Freq
 --------------------------------------------------------------------

 Structure from the checkpoint file:  "JID_1142.chk"
 ------------------------------
 CID_88972454_JID_1142_neutraal
 ------------------------------
 Charge =  0 Multiplicity = 1

 SCF Done:  E(RB3LYP) =  -551.303309794     A.U. after    1 cycles

  Exact polarizability: 117.247   0.609 122.666  -0.002  -0.013  38.843
 Approx polarizability: 183.594   0.588 230.950  -0.013  -0.025  58.592

                      1                      2                      3
                      A                      A                      A
 Frequencies --     83.4622               112.4054               150.6057
 Red. masses --      3.3974                 5.4671                 8.0063
 Frc consts  --      0.0139                 0.0407                 0.1070
 IR Inten    --      1.8843                 0.9199                 0.4918

                      4                      5                      6
                      A                      A                      A
 Frequencies --    199.3446               206.4371               240.6933
 Red. masses --      6.4346                 5.6786                 4.7374
 Frc consts  --      0.1507                 0.1426                 0.1617
 IR Inten    --      0.7318                 0.0532                 0.8159

                      7                      8                      9
                      A                      A                      A
 Frequencies --    260.3207               313.4988               383.1212
 Red. masses --      1.1241                 1.1136                 4.8757
 Frc consts  --      0.0449                 0.0645                 0.4217
 IR Inten    --      0.3202               120.7233                11.0495

                     10                     11                     12
                      A                      A                      A
 Frequencies --    387.2698               422.2647               464.8204
 Red. masses --      5.0873                 6.8247                 5.9567
 Frc consts  --      0.4495                 0.7170                 0.7583
 IR Inten    --      0.0356                 1.4760                 9.7558

                     13                     14                     15
                      A                      A                      A
 Frequencies --    468.5874               583.9002               584.3823
 Red. masses --      3.4519                 6.4702                 3.2989
 Frc consts  --      0.4466                 1.2997                 0.6638
 IR Inten    --      0.1270                20.0073                 7.8574

                     16                     17                     18
                      A                      A                      A
 Frequencies --    672.3798               715.5402               740.1122
 Red. masses --      6.0013                 4.3420                 6.4769
 Frc consts  --      1.5985                 1.3098                 2.0903
 IR Inten    --      2.6390                 0.0274                29.0409

                     19                     20                     21
                      A                      A                      A
 Frequencies --    816.1590               816.6297               907.9300
 Red. masses --      1.6165                 5.8171                 1.3473
 Frc consts  --      0.6344                 2.2856                 0.6544
 IR Inten    --     36.7606                14.9021                 3.0841

                     22                     23                     24
                      A                      A                      A
 Frequencies --    933.7346               980.8417              1071.0566
 Red. masses --      1.3345                 4.0625                 6.9555
 Frc consts  --      0.6855                 2.3027                 4.7011
 IR Inten    --     11.1063                55.5311                89.2851

                     25                     26                     27
                      A                      A                      A
 Frequencies --   1094.6067              1185.1996              1186.5307
 Red. masses --      2.5941                 1.2685                 1.3702
 Frc consts  --      1.8313                 1.0499                 1.1366
 IR Inten    --     69.0386                 0.8572                88.8761

                     28                     29                     30
                      A                      A                      A
 Frequencies --   1214.4703              1222.9813              1259.3139
 Red. masses --      1.3991                 1.3432                 2.1185
 Frc consts  --      1.2158                 1.1836                 1.9795
 IR Inten    --     93.9344                58.5324                11.4665

                     31                     32                     33
                      A                      A                      A
 Frequencies --   1318.7956              1327.6740              1387.6084
 Red. masses --      4.2012                 2.6712                 4.8276
 Frc consts  --      4.3051                 2.7742                 5.4767
 IR Inten    --    139.2240               346.5298                55.6348

                     34                     35                     36
                      A                      A                      A
 Frequencies --   1468.9445              1498.4387              1523.2188
 Red. masses --      2.9904                 1.2387                 1.0476
 Frc consts  --      3.8017                 1.6387                 1.4322
 IR Inten    --     90.5221                46.5231                 6.6015

                     37                     38                     39
                      A                      A                      A
 Frequencies --   1532.8800              1557.7643              1596.5836
 Red. masses --      1.0856                 2.5821                10.0587
 Frc consts  --      1.5029                 3.6918                15.1068
 IR Inten    --     56.9820               242.8114               149.1536

                     40                     41                     42
                      A                      A                      A
 Frequencies --   1642.0519              1685.1461              3030.0013
 Red. masses --      7.4952                 6.5582                 1.0349
 Frc consts  --     11.9072                10.9726                 5.5980
 IR Inten    --      6.7140                 3.4427                56.6101

                     43                     44                     45
                      A                      A                      A
 Frequencies --   3091.3965              3169.8569              3173.5443
 Red. masses --      1.1070                 1.0996                 1.0900
 Frc consts  --      6.2330                 6.5099                 6.4678
 IR Inten    --     40.4391                21.5027                14.7613

                     46                     47                     48
                      A                      A                      A
 Frequencies --   3236.7855              3238.4608              3755.4084
 Red. masses --      1.0899                 1.0909                 1.0661
 Frc consts  --      6.7276                 6.7411                 8.8584
 IR Inten    --      3.0890                 9.3776                46.3457

 - Thermochemistry -
 -------------------
 Temperature   298.150 Kelvin.  Pressure   1.00000 Atm.
 Atom     1 has atomic number  6 and mass  12.00000

 Molecular mass:   153.04259 amu.
 Principal axes and moments of inertia in atomic units:
                           1         2         3
     Eigenvalues --  1242.101831858.073633088.62589
           X            0.99839   0.05671   0.00002
           Y           -0.05671   0.99839  -0.00001
           Z           -0.00002   0.00001   1.00000
 This molecule is an asymmetric top.
 Rotational symmetry number  1.
 Warning -- assumption of classical behavior for rotation
           may cause significant error
 Rotational temperatures (Kelvin)      0.06973     0.04661     0.02804
 Rotational constants (GHZ):           1.45297     0.97130     0.58432
 Zero-point vibrational energy     352378.9 (Joules/Mol)
                                   84.22059 (Kcal/Mol)
 Warning -- explicit consideration of  15 degrees of freedom as
           vibrations may cause significant error
 Vibrational temperatures:    120.08   161.73   216.69   286.81   297.02
          (Kelvin)            346.30   374.54   451.05   551.23   557.19
                              607.54   668.77   674.19   840.10   840.80
                              967.40  1029.50  1064.86  1174.27  1174.95
                             1306.31  1343.44  1411.21  1541.01  1574.89
                             1705.24  1707.15  1747.35  1759.60  1811.87
                             1897.45  1910.23  1996.46  2113.48  2155.92
                             2191.57  2205.47  2241.28  2297.13  2362.55
                             2424.55  4359.50  4447.83  4560.72  4566.02
                             4657.01  4659.42  5403.20

 Zero-point correction=                           0.134214 (Hartree/Particle)
 Thermal correction to Energy=                    0.144237
 Thermal correction to Enthalpy=                  0.145181
 Thermal correction to Gibbs Free Energy=         0.098842
 Sum of electronic and zero-point Energies=           -551.169096
 Sum of electronic and thermal Energies=              -551.159073
 Sum of electronic and thermal Enthalpies=            -551.158129
 Sum of electronic and thermal Free Energies=         -551.204468

                     E (Thermal)             CV                S
                      KCal/Mol        Cal/Mol-Kelvin    Cal/Mol-Kelvin
 Total                   90.510             37.292             97.529
 Electronic               0.000              0.000              0.000
 Translational            0.889              2.981             40.986
 Rotational               0.889              2.981             30.345
 Vibrational             88.733             31.330             26.197
 Vibration     1          0.600              1.961              3.808
 Vibration     2          0.607              1.939              3.227
 Vibration     3          0.618              1.902              2.665
 Vibration     4          0.637              1.841              2.139
 Vibration     5          0.641              1.831              2.075
 Vibration     6          0.658              1.778              1.798
 Vibration     7          0.668              1.745              1.660
 Vibration     8          0.701              1.648              1.344
 Vibration     9          0.752              1.506              1.027
 Vibration    10          0.756              1.497              1.011
 Vibration    11          0.785              1.422              0.884
 Vibration    12          0.822              1.328              0.752
 Vibration    13          0.826              1.320              0.742
 Vibration    14          0.941              1.066              0.478
 Vibration    15          0.941              1.065              0.477

                           ! Non-Optimized Parameters !
 Normal termination of Gaussian 16 at Tue Dec  8 19:15:31 2020.

 ----------------------------------------------------------------------
 # B3LYP/6-311++G(d,p) empiricaldispersion=gd3bj scf=xqc pop=npa geom=c
 heck
 ----------------------------------------------------------------------

 --------------------------------------
 CID_88972454_JID_1142_Energie_neutraal
 --------------------------------------
 Structure from the checkpoint file:  "JID_1142.chk"
 Charge =  0 Multiplicity = 1

 SCF Done:  E(RB3LYP) =  -551.466744436     A.U. after   15 cycles
 Normal termination of Gaussian 16 at Tue Dec  8 19:16:36 2020.

 ----------------------------------------------------------------------
 # B3LYP/6-311++G(d,p) empiricaldispersion=gd3bj scf=xqc pop=npa geom=c
 heck
 ----------------------------------------------------------------------

 ------------------------------------
 CID_88972454_JID_1142_Energie_kation
 ------------------------------------
 Structure from the checkpoint file:  "JID_1142.chk"
 Charge =  1 Multiplicity = 2

 SCF Done:  E(UB3LYP) =  -551.172300324     A.U. after   26 cycles
 Normal termination of Gaussian 16 at Tue Dec  8 19:19:51 2020.
 Gaussian 16:  ES64L-G16RevA.03 25-Dec-2016

 ----------------------------------------------------------------------
 # B3LYP/6-311++G(d,p) empiricaldispersion=gd3bj scf=xqc pop=npa geom=c
 heck
 ----------------------------------------------------------------------

 -----------------------------------
 CID_88972454_JID_1142_Energie_anion
 -----------------------------------
 Structure from the checkpoint file:  "JID_1142.chk"
 Charge = -1 Multiplicity = 2

                         Standard orientation:
 ---------------------------------------------------------------------
 Center     Atomic      Atomic             Coordinates (Angstroms)
 Number     Number       Type             X           Y           Z
 ---------------------------------------------------------------------
      1          6           0       -3.108837   -1.200562   -0.000743
      2          8           0       -2.237630   -0.079864    0.000381
      3          6           0       -0.903764   -0.306822    0.000193
      4          6           0       -0.049758    0.821831   -0.000113
      5          6           0        1.340026    0.672341   -0.000314
      6          6           0        1.907597   -0.594039   -0.000132
      7          6           0        1.067809   -1.716824    0.000408
      8          6           0       -0.318642   -1.580272    0.000653
      9          8           0        3.272307   -0.690078   -0.000614
     10          7           0       -0.676713    2.114918    0.000048
     11          8           0        0.106982    3.056924    0.000290
     12          1           0       -2.965723   -1.818661   -0.896346
     13          1           0       -4.118411   -0.788239   -0.001811
     14          1           0       -2.967759   -1.818906    0.895032
     15          1           0        1.955442    1.564651   -0.000519
     16          1           0        1.500638   -2.715387    0.000772
     17          1           0       -0.932812   -2.471922    0.001206
     18          1           0        3.525763   -1.625739    0.001170
 ---------------------------------------------------------------------

 SCF Done:  E(UB3LYP) =  -551.505771342     A.U. after   23 cycles

 The electronic state is 2-A.
 Alpha  occ. eigenvalues --  -19.02316 -19.01575 -18.91754 -14.16223 -10.11006
 Alpha  occ. eigenvalues --  -10.08304 -10.07907 -10.02982 -10.02417 -10.02045
 Alpha  occ. eigenvalues --  -10.00240  -0.93525  -0.93121  -0.90889  -0.70291
 Alpha  occ. eigenvalues --   -0.62577  -0.60599  -0.56901  -0.51723  -0.46262
 Alpha  occ. eigenvalues --   -0.44877  -0.39781  -0.37745  -0.35138  -0.34968
 Alpha  occ. eigenvalues --   -0.31170  -0.29946  -0.28202  -0.27657  -0.26925
 Alpha  occ. eigenvalues --   -0.25362  -0.24885  -0.21992  -0.21828  -0.19099
 Alpha  occ. eigenvalues --   -0.18118  -0.16678  -0.10654  -0.06877  -0.00403
 Alpha  occ. eigenvalues --    0.03132
 Alpha virt. eigenvalues --    0.07754   0.08394   0.10534   0.11814   0.12300
 Alpha virt. eigenvalues --    0.13854   0.14480   0.15127   0.15467   0.16391
 Alpha virt. eigenvalues --    0.18052   0.18453   0.18679   0.19696   0.19710

  Beta  occ. eigenvalues --  -19.02336 -19.01573 -18.90787 -14.15580 -10.11004
  Beta  occ. eigenvalues --  -10.08402 -10.07827 -10.02985 -10.02161 -10.02034
  Beta  occ. eigenvalues --  -10.00006  -0.93480  -0.93165  -0.89230  -0.70026
  Beta  occ. eigenvalues --   -0.62269  -0.60203  -0.56649  -0.50698  -0.46031
  Beta  occ. eigenvalues --   -0.44454  -0.39681  -0.37355  -0.34907  -0.34904
  Beta  occ. eigenvalues --   -0.31125  -0.29717  -0.27833  -0.27400  -0.26410
  Beta  occ. eigenvalues --   -0.25201  -0.23593  -0.21732  -0.18982  -0.18944
  Beta  occ. eigenvalues --   -0.17310  -0.15987  -0.08880  -0.05975   0.00571
  Beta virt. eigenvalues --    0.07741   0.08376   0.10511   0.11092   0.11851
  Beta virt. eigenvalues --    0.12296   0.13851   0.14485   0.15451   0.15755
  Beta virt. eigenvalues --    0.17949   0.18049   0.18439   0.18931   0.19726

 Mulliken charges and spin densities:
               1          2
     1  C   -0.279338  -0.002351
     2  O   -0.117185   0.005470
     3  C   -0.428481   0.081300
     4  C    0.180064  -0.034120
     5  C   -0.125659   0.180038
     6  C   -0.534954  -0.073939
     7  C   -0.208465   0.226086
     8  C    0.369852   0.014291
     9  O   -0.268981  -0.000862
    10  N   -0.386178   0.302097
    11  O   -0.201090   0.337368
    12  H    0.122076   0.002158
    13  H    0.154703  -0.001483
    14  H    0.122047   0.002134
    15  H    0.184166  -0.019509
    16  H    0.064303  -0.017589
    17  H    0.119192  -0.000390
    18  H    0.233926  -0.000699
 Sum of Mulliken charges =  -1.00000   1.00000

 Dipole moment (field-independent basis, Debye):
    X=             -0.7518    Y=             -9.2557    Z=              0.0011  Tot=              9.2862
 Quadrupole moment (field-independent basis, Debye-Ang):
   XX=            -74.5128   YY=            -92.4519   ZZ=            -70.6743
   XY=              1.8918   XZ=              0.0149   YZ=             -0.0071

 Summary of Natural Population Analysis:

                                       Natural Population
                Natural  -----------------------------------------------
    Atom  No    Charge         Core      Valence    Rydberg      Total
 -----------------------------------------------------------------------
      C    1   -0.09946      0.99961     2.09166    0.00819     3.09946
      O    2   -0.26455      0.99985     3.25275    0.01196     4.26455
      C    3    0.16558      0.99935     1.82239    0.01268     2.83442
      C    4    0.02785      0.99945     1.95729    0.01542     2.97215
      C    5   -0.07357      0.99948     2.06355    0.01055     3.07357
      C    6    0.11873      0.99938     1.86987    0.01202     2.88127
      C    7   -0.09388      0.99955     2.08458    0.00976     3.09388
      C    8   -0.15596      0.99955     2.14823    0.00818     3.15596
      O    9   -0.35153      0.99988     3.34510    0.00656     4.35153
      N   10    0.07213      0.99975     2.39841    0.02970     3.42787
      O   11   -0.09280      0.99990     3.08097    0.01193     4.09280
      H   12    0.07738      0.00000     0.42080    0.00183     0.42262
      H   13    0.08678      0.00000     0.41228    0.00094     0.41322
      H   14    0.07735      0.00000     0.42082    0.00183     0.42265
      H   15    0.10855      0.00000     0.38775    0.00370     0.39145
      H   16    0.08125      0.00000     0.41669    0.00205     0.41875
      H   17    0.09191      0.00000     0.40639    0.00169     0.40809
      H   18    0.22426      0.00000     0.27317    0.00258     0.27574
 =======================================================================
   * Total *   -0.00000     10.99575    28.85270    0.15155    40.00000

 Normal termination of Gaussian 16 at Tue Dec  8 19:22:48 2020.
