 Gaussian 16, Revision A.03,

 -----------------------------------------------------------
 # opt freq B3LYP/6-31G(d) empiricaldispersion=gd3bj scf=xqc
 -----------------------------------------------------------

 ------------------------------
 CID_65179009_JID_4855_neutraal
 ------------------------------
 Symbolic Z-matrix:
 Charge =  0 Multiplicity = 1

 SCF Done:  E(RB3LYP) =  -648.246252793     A.U. after   14 cycles
 SCF Done:  E(RB3LYP) =  -648.250695247     A.U. after   12 cycles
 SCF Done:  E(RB3LYP) =  -648.251328343     A.U. after   11 cycles
 SCF Done:  E(RB3LYP) =  -648.251442260     A.U. after   12 cycles
 SCF Done:  E(RB3LYP) =  -648.251533442     A.U. after   10 cycles
 SCF Done:  E(RB3LYP) =  -648.251577853     A.U. after   11 cycles
 SCF Done:  E(RB3LYP) =  -648.251605238     A.U. after   11 cycles
 SCF Done:  E(RB3LYP) =  -648.251620918     A.U. after   10 cycles
 SCF Done:  E(RB3LYP) =  -648.251637690     A.U. after   10 cycles
 SCF Done:  E(RB3LYP) =  -648.251641061     A.U. after    9 cycles
 SCF Done:  E(RB3LYP) =  -648.251642594     A.U. after    7 cycles
 SCF Done:  E(RB3LYP) =  -648.251642615     A.U. after    7 cycles
 SCF Done:  E(RB3LYP) =  -648.251642641     A.U. after    8 cycles
 SCF Done:  E(RB3LYP) =  -648.251642665     A.U. after    7 cycles
 SCF Done:  E(RB3LYP) =  -648.251642678     A.U. after    7 cycles
 Optimization completed.
    -- Stationary point found.
 Normal termination of Gaussian 16 at Thu Dec 10 10:43:40 2020.

 --------------------------------------------------------------------
 #N Geom=AllCheck Guess=TCheck SCRF=Check GenChk RB3LYP/6-31G(d) Freq
 --------------------------------------------------------------------

 Structure from the checkpoint file:  "JID_4855.chk"
 ------------------------------
 CID_65179009_JID_4855_neutraal
 ------------------------------
 Charge =  0 Multiplicity = 1

 SCF Done:  E(RB3LYP) =  -648.251642678     A.U. after    1 cycles

  Exact polarizability: 191.910   6.742 128.601   0.614   1.294  68.024
 Approx polarizability: 268.209  15.779 208.549  -0.954   2.975  99.437

                      1                      2                      3
                      A                      A                      A
 Frequencies --     17.2555                41.6911                72.5901
 Red. masses --      3.7552                 3.3718                 4.0630
 Frc consts  --      0.0007                 0.0035                 0.0126
 IR Inten    --      0.7114                 0.5259                 0.4293

                      4                      5                      6
                      A                      A                      A
 Frequencies --     85.5547               125.4009               137.3597
 Red. masses --      4.8743                 1.2754                 2.8125
 Frc consts  --      0.0210                 0.0118                 0.0313
 IR Inten    --      0.9772                 0.2766                 0.2979

                      7                      8                      9
                      A                      A                      A
 Frequencies --    179.5007               228.1324               257.8236
 Red. masses --      2.8353                 3.7145                 1.0196
 Frc consts  --      0.0538                 0.1139                 0.0399
 IR Inten    --      6.1558                 3.4292                29.4274

                     10                     11                     12
                      A                      A                      A
 Frequencies --    269.5950               304.5817               320.2662
 Red. masses --      1.2624                 3.5206                 4.7717
 Frc consts  --      0.0541                 0.1924                 0.2884
 IR Inten    --     36.1523                 4.0825                 5.8528

                     13                     14                     15
                      A                      A                      A
 Frequencies --    346.9991               389.7727               427.1082
 Red. masses --      3.2879                 4.9518                 5.3161
 Frc consts  --      0.2333                 0.4432                 0.5714
 IR Inten    --      2.6054                 5.2736                 3.9932

                     16                     17                     18
                      A                      A                      A
 Frequencies --    475.8165               526.7123               626.5824
 Red. masses --      3.8323                 3.4291                 3.6987
 Frc consts  --      0.5112                 0.5605                 0.8556
 IR Inten    --      1.6479                 5.3282                 0.0674

                     19                     20                     21
                      A                      A                      A
 Frequencies --    644.3022               673.7201               685.0231
 Red. masses --      5.8165                 4.2853                 4.2391
 Frc consts  --      1.4226                 1.1460                 1.1720
 IR Inten    --      0.1035                 1.0978                 0.4738

                     22                     23                     24
                      A                      A                      A
 Frequencies --    691.6832               754.4379               791.4041
 Red. masses --      2.9840                 8.6556                 1.2528
 Frc consts  --      0.8411                 2.9026                 0.4623
 IR Inten    --      4.4044                11.8516                35.2417

                     25                     26                     27
                      A                      A                      A
 Frequencies --    821.2800               845.3525               878.4463
 Red. masses --      1.3933                 1.3318                 2.3610
 Frc consts  --      0.5537                 0.5608                 1.0734
 IR Inten    --     19.0062                 0.2319                88.5723

                     28                     29                     30
                      A                      A                      A
 Frequencies --    920.7519               933.7586               977.2803
 Red. masses --      7.5023                 1.2980                 3.1397
 Frc consts  --      3.7474                 0.6668                 1.7667
 IR Inten    --      9.3087                76.6540                17.4239

                     31                     32                     33
                      A                      A                      A
 Frequencies --    979.9180               999.6323              1018.6528
 Red. masses --      6.8205                 3.7797                 1.7193
 Frc consts  --      3.8587                 2.2253                 1.0511
 IR Inten    --      2.9400                 3.9967                14.8315

                     34                     35                     36
                      A                      A                      A
 Frequencies --   1029.3832              1053.8835              1080.3325
 Red. masses --      2.1697                 1.3293                 1.4569
 Frc consts  --      1.3546                 0.8698                 1.0018
 IR Inten    --     14.5095                31.2002                 2.7494

                     37                     38                     39
                      A                      A                      A
 Frequencies --   1090.3174              1119.9861              1127.2527
 Red. masses --      2.8685                 1.4816                 4.2004
 Frc consts  --      2.0091                 1.0950                 3.1447
 IR Inten    --     26.3567                17.9734                14.9342

                     40                     41                     42
                      A                      A                      A
 Frequencies --   1154.4564              1236.9574              1242.1988
 Red. masses --      2.3008                 2.1832                 1.8647
 Frc consts  --      1.8067                 1.9681                 1.6953
 IR Inten    --     19.0904                11.6983                 8.5436

                     43                     44                     45
                      A                      A                      A
 Frequencies --   1261.0562              1272.4523              1332.1512
 Red. masses --      3.1803                 3.3156                 3.7464
 Frc consts  --      2.9798                 3.1630                 3.9172
 IR Inten    --      0.3801                 2.3455                16.5464

                     46                     47                     48
                      A                      A                      A
 Frequencies --   1353.4901              1360.9210              1409.1799
 Red. masses --      3.1267                 1.3297                 2.8957
 Frc consts  --      3.3748                 1.4510                 3.3879
 IR Inten    --      5.1808                12.3192                 3.4791

                     49                     50                     51
                      A                      A                      A
 Frequencies --   1420.8137              1429.1226              1444.7949
 Red. masses --      1.5448                 1.2455                 1.2722
 Frc consts  --      1.8374                 1.4988                 1.5646
 IR Inten    --     22.4718                 3.6574                 4.1653

                     52                     53                     54
                      A                      A                      A
 Frequencies --   1501.8539              1519.1388              1519.3511
 Red. masses --      1.0427                 1.0739                 1.1146
 Frc consts  --      1.3857                 1.4601                 1.5159
 IR Inten    --      6.8127                 1.8797                11.1092

                     55                     56                     57
                      A                      A                      A
 Frequencies --   1527.5819              1559.7178              1628.8979
 Red. masses --      1.0753                 5.7607                 7.7032
 Frc consts  --      1.4784                 8.2569                12.0423
 IR Inten    --      2.7294                 5.0782                35.9811

                     58                     59                     60
                      A                      A                      A
 Frequencies --   1642.1121              1678.7868              1693.4654
 Red. masses --      6.4336                 7.2485                 1.1023
 Frc consts  --     10.2214                12.0361                 1.8625
 IR Inten    --     31.1964                 4.8704                31.1220

                     61                     62                     63
                      A                      A                      A
 Frequencies --   3045.1590              3045.6577              3091.8565
 Red. masses --      1.0345                 1.0379                 1.0870
 Frc consts  --      5.6518                 5.6726                 6.1224
 IR Inten    --     21.2073                38.2649                 5.1775

                     64                     65                     66
                      A                      A                      A
 Frequencies --   3095.5649              3116.9835              3125.8720
 Red. masses --      1.1015                 1.1028                 1.1020
 Frc consts  --      6.2192                 6.3126                 6.3443
 IR Inten    --     15.6302                36.7892                29.1119

                     67                     68                     69
                      A                      A                      A
 Frequencies --   3143.9596              3265.0650              3278.0436
 Red. masses --      1.0994                 1.0930                 1.1008
 Frc consts  --      6.4027                 6.8653                 6.9692
 IR Inten    --     10.2821                 9.5797                 0.1196

                     70                     71                     72
                      A                      A                      A
 Frequencies --   3280.6374              3459.8478              3547.5869
 Red. masses --      1.0975                 1.0492                 1.0925
 Frc consts  --      6.9595                 7.3997                 8.1011
 IR Inten    --      7.6887                 2.0853                 0.6394

 - Thermochemistry -
 -------------------
 Temperature   298.150 Kelvin.  Pressure   1.00000 Atm.
 Atom     1 has atomic number  6 and mass  12.00000

 Molecular mass:   192.08988 amu.
 Principal axes and moments of inertia in atomic units:
                           1         2         3
     Eigenvalues --  1265.572384863.057335742.76612
           X            0.99996  -0.00664   0.00576
           Y            0.00668   0.99995  -0.00697
           Z           -0.00571   0.00701   0.99996
 This molecule is an asymmetric top.
 Rotational symmetry number  1.
 Warning -- assumption of classical behavior for rotation
           may cause significant error
 Rotational temperatures (Kelvin)      0.06844     0.01781     0.01508
 Rotational constants (GHZ):           1.42603     0.37111     0.31426
 Zero-point vibrational energy     554076.0 (Joules/Mol)
                                  132.42735 (Kcal/Mol)
 Warning -- explicit consideration of  17 degrees of freedom as
           vibrations may cause significant error
 Vibrational temperatures:     24.83    59.98   104.44   123.09   180.42
          (Kelvin)            197.63   258.26   328.23   370.95   387.89
                              438.23   460.79   499.25   560.80   614.51
                              684.59   757.82   901.51   927.01   969.33
                              985.60   995.18  1085.47  1138.65  1181.64
                             1216.27  1263.89  1324.76  1343.47  1406.09
                             1409.88  1438.25  1465.61  1481.05  1516.30
                             1554.36  1568.72  1611.41  1621.87  1661.01
                             1779.71  1787.25  1814.38  1830.78  1916.67
                             1947.37  1958.06  2027.50  2044.23  2056.19
                             2078.74  2160.83  2185.70  2186.01  2197.85
                             2244.09  2343.62  2362.63  2415.40  2436.52
                             4381.30  4382.02  4448.49  4453.83  4484.64
                             4497.43  4523.46  4697.70  4716.37  4720.11
                             4977.95  5104.19

 Zero-point correction=                           0.211036 (Hartree/Particle)
 Thermal correction to Energy=                    0.224386
 Thermal correction to Enthalpy=                  0.225330
 Thermal correction to Gibbs Free Energy=         0.169197
 Sum of electronic and zero-point Energies=           -648.040606
 Sum of electronic and thermal Energies=              -648.027257
 Sum of electronic and thermal Enthalpies=            -648.026313
 Sum of electronic and thermal Free Energies=         -648.082446

                     E (Thermal)             CV                S
                      KCal/Mol        Cal/Mol-Kelvin    Cal/Mol-Kelvin
 Total                  140.804             49.186            118.142
 Electronic               0.000              0.000              0.000
 Translational            0.889              2.981             41.664
 Rotational               0.889              2.981             31.936
 Vibrational            139.027             43.225             44.542
 Vibration     1          0.593              1.986              6.927
 Vibration     2          0.594              1.981              5.177
 Vibration     3          0.599              1.967              4.082
 Vibration     4          0.601              1.959              3.759
 Vibration     5          0.610              1.928              3.015
 Vibration     6          0.614              1.916              2.840
 Vibration     7          0.629              1.867              2.334
 Vibration     8          0.651              1.798              1.894
 Vibration     9          0.667              1.750              1.676
 Vibration    10          0.674              1.729              1.599
 Vibration    11          0.695              1.665              1.392
 Vibration    12          0.706              1.635              1.309
 Vibration    13          0.725              1.581              1.180
 Vibration    14          0.758              1.492              1.001
 Vibration    15          0.789              1.411              0.868
 Vibration    16          0.832              1.304              0.721
 Vibration    17          0.882              1.191              0.595

 Optimization completed.
    -- Stationary point found.
 Normal termination of Gaussian 16 at Thu Dec 10 10:49:18 2020.

 ----------------------------------------------------------------------
 # B3LYP/6-311++G(d,p) empiricaldispersion=gd3bj scf=xqc pop=npa geom=c
 heck
 ----------------------------------------------------------------------

 --------------------------------------
 CID_65179009_JID_4855_Energie_neutraal
 --------------------------------------
 Structure from the checkpoint file:  "JID_4855.chk"
 Charge =  0 Multiplicity = 1

 SCF Done:  E(RB3LYP) =  -648.434799704     A.U. after   14 cycles
 Normal termination of Gaussian 16 at Thu Dec 10 10:51:24 2020.

 ----------------------------------------------------------------------
 # B3LYP/6-311++G(d,p) empiricaldispersion=gd3bj scf=xqc pop=npa geom=c
 heck
 ----------------------------------------------------------------------

 ------------------------------------
 CID_65179009_JID_4855_Energie_kation
 ------------------------------------
 Structure from the checkpoint file:  "JID_4855.chk"
 Charge =  1 Multiplicity = 2

 SCF Done:  E(UB3LYP) =  -648.163455321     A.U. after   21 cycles
 Normal termination of Gaussian 16 at Thu Dec 10 10:55:37 2020.
 Gaussian 16:  ES64L-G16RevA.03 25-Dec-2016

 ----------------------------------------------------------------------
 # B3LYP/6-311++G(d,p) empiricaldispersion=gd3bj scf=xqc pop=npa geom=c
 heck
 ----------------------------------------------------------------------

 -----------------------------------
 CID_65179009_JID_4855_Energie_anion
 -----------------------------------
 Structure from the checkpoint file:  "JID_4855.chk"
 Charge = -1 Multiplicity = 2

                         Standard orientation:
 ---------------------------------------------------------------------
 Center     Atomic      Atomic             Coordinates (Angstroms)
 Number     Number       Type             X           Y           Z
 ---------------------------------------------------------------------
      1          6           0       -3.810698   -2.041610    0.059976
      2          6           0       -3.181681   -0.695736    0.029498
      3          6           0       -3.673021    0.578470    0.001874
      4          6           0       -2.547087    1.458283   -0.024358
      5          6           0       -1.434045    0.658448   -0.008975
      6          8           0       -1.812030   -0.659033    0.024350
      7          6           0       -0.028102    0.948754   -0.014166
      8          6           0        0.712564    2.097474    0.014802
      9          7           0        2.062458    1.779070   -0.025904
     10          6           0        2.098314    0.482585   -0.075399
     11          8           0        0.860959   -0.101133   -0.065774
     12          6           0        3.277693   -0.437527   -0.092859
     13          6           0        3.425313   -1.156551    1.263077
     14          7           0        3.164048   -1.336315   -1.252388
     15          1           0       -3.521761   -2.639210   -0.813307
     16          1           0       -3.515029   -2.602884    0.954861
     17          1           0       -4.899221   -1.941034    0.062027
     18          1           0       -4.717514    0.856835   -0.002413
     19          1           0       -2.557869    2.538488   -0.054680
     20          1           0        0.369426    3.120716    0.059772
     21          1           0        4.148575    0.205472   -0.254176
     22          1           0        2.543827   -1.775215    1.465679
     23          1           0        4.308325   -1.806047    1.249828
     24          1           0        3.539062   -0.440336    2.084653
     25          1           0        3.958069   -1.975377   -1.252355
     26          1           0        2.331645   -1.914902   -1.141281
 ---------------------------------------------------------------------

 SCF Done:  E(UB3LYP) =  -648.425170352     A.U. after   33 cycles
 SCF Done:  E(UB3LYP) =  -648.425170554     a.u. after    2 cycles

 The electronic state is 2-A.
 Alpha  occ. eigenvalues --  -19.07602 -19.06849 -14.19731 -14.19709 -10.13748
 Alpha  occ. eigenvalues --  -10.11781 -10.11496 -10.11337 -10.11273 -10.07686
 Alpha  occ. eigenvalues --  -10.07364 -10.06333 -10.06022 -10.05695  -1.01611
 Alpha  occ. eigenvalues --   -0.99524  -0.80735  -0.79420  -0.69692  -0.69130
 Alpha  occ. eigenvalues --   -0.66045  -0.62988  -0.58269  -0.53474  -0.52183
 Alpha  occ. eigenvalues --   -0.48186  -0.46667  -0.44043  -0.43110  -0.39378
 Alpha  occ. eigenvalues --   -0.37805  -0.36707  -0.35278  -0.34499  -0.33033
 Alpha  occ. eigenvalues --   -0.31699  -0.31385  -0.30504  -0.30009  -0.29871
 Alpha  occ. eigenvalues --   -0.28763  -0.27910  -0.27000  -0.26063  -0.25542
 Alpha  occ. eigenvalues --   -0.21020  -0.18167  -0.18047  -0.16338  -0.15074
 Alpha  occ. eigenvalues --   -0.09012   0.04488
 Alpha virt. eigenvalues --    0.06043   0.06365   0.08014   0.08896   0.09036
 Alpha virt. eigenvalues --    0.09650   0.10660   0.10698   0.11116   0.12368
 Alpha virt. eigenvalues --    0.13159   0.13276   0.13647   0.14222   0.14736

  Beta  occ. eigenvalues --  -19.07480 -19.06732 -14.19764 -14.19704 -10.13618
  Beta  occ. eigenvalues --  -10.11703 -10.11431 -10.11279 -10.11217 -10.07586
  Beta  occ. eigenvalues --  -10.07345 -10.06290 -10.06057 -10.05601  -1.01417
  Beta  occ. eigenvalues --   -0.99330  -0.80663  -0.79371  -0.69456  -0.68984
  Beta  occ. eigenvalues --   -0.65903  -0.62874  -0.58123  -0.53375  -0.52056
  Beta  occ. eigenvalues --   -0.48076  -0.46473  -0.43917  -0.43017  -0.39313
  Beta  occ. eigenvalues --   -0.37545  -0.36395  -0.34935  -0.34351  -0.32946
  Beta  occ. eigenvalues --   -0.31559  -0.31322  -0.30424  -0.29925  -0.29642
  Beta  occ. eigenvalues --   -0.28658  -0.27818  -0.26915  -0.25979  -0.25475
  Beta  occ. eigenvalues --   -0.20679  -0.18189  -0.17436  -0.15801  -0.15022
  Beta  occ. eigenvalues --   -0.08317
  Beta virt. eigenvalues --    0.06718   0.07122   0.07945   0.08161   0.09181
  Beta virt. eigenvalues --    0.09270   0.09809   0.10932   0.11158   0.11293
  Beta virt. eigenvalues --    0.12535   0.13351   0.13609   0.13815   0.14230

 Mulliken charges and spin densities:
               1          2
     1  C    1.764147  -2.290251
     2  C   -0.717908   1.110460
     3  C   -0.519624   0.161406
     4  C   -0.346872   0.064209
     5  C   -0.009903   0.008009
     6  O   -0.055015   0.046078
     7  C    0.365369  -0.286339
     8  C   -0.006420  -0.112876
     9  N   -0.050974  -0.017244
    10  C    1.072081  -1.256043
    11  O   -0.036340   0.037925
    12  C   -1.924510   1.846143
    13  C    0.698903  -1.155310
    14  N   -0.260774  -0.099945
    15  H   -0.191885   0.350139
    16  H    0.067632   0.078127
    17  H   -0.400367   0.561520
    18  H   -0.361924   0.507754
    19  H    0.054758   0.056684
    20  H    0.135940   0.001409
    21  H    0.091112   0.099376
    22  H    0.092539   0.051109
    23  H   -0.760790   0.930520
    24  H    0.084939   0.055595
    25  H    0.025331   0.211132
    26  H    0.190558   0.040414
 Sum of Mulliken charges =  -1.00000   1.00000

 Dipole moment (field-independent basis, Debye):
    X=             -0.7308    Y=              2.6927    Z=              0.6911  Tot=              2.8744
 Quadrupole moment (field-independent basis, Debye-Ang):
   XX=           -170.3045   YY=           -113.8830   ZZ=           -106.0257
   XY=             -1.5730   XZ=             -4.4553   YZ=              1.8241

 Summary of Natural Population Analysis:

                                       Natural Population
                Natural  -----------------------------------------------
    Atom  No    Charge         Core      Valence    Rydberg      Total
 -----------------------------------------------------------------------
      C    1   -0.30693      0.99963     2.30194    0.00537     3.30693
      C    2    0.17212      0.99949     1.81454    0.01385     2.82788
      C    3   -0.16616      0.99950     2.15769    0.00897     3.16616
      C    4   -0.12371      0.99953     2.11612    0.00806     3.12371
      C    5    0.13105      0.99943     1.85679    0.01272     2.86895
      O    6   -0.22469      0.99985     3.21724    0.00760     4.22469
      C    7    0.12239      0.99943     1.86599    0.01220     2.87761
      C    8   -0.02699      0.99954     2.01462    0.01283     3.02699
      N    9   -0.26496      0.99968     2.75616    0.00912     3.76496
      C   10    0.28971      0.99957     1.68966    0.02106     2.71029
      O   11   -0.22847      0.99985     3.22205    0.00657     4.22847
      C   12   -0.04341      0.99957     2.03139    0.01245     3.04341
      C   13   -0.28911      0.99965     2.28388    0.00558     3.28911
      N   14   -0.41462      0.99977     2.90513    0.00972     3.91462
      H   15    0.10840      0.00000     0.38967    0.00193     0.39160
      H   16    0.10431      0.00000     0.39447    0.00121     0.39569
      H   17    0.10712      0.00000     0.39165    0.00123     0.39288
      H   18    0.10532      0.00000     0.39381    0.00086     0.39468
      H   19    0.10319      0.00000     0.39613    0.00068     0.39681
      H   20    0.09522      0.00000     0.40380    0.00097     0.40478
      H   21    0.10105      0.00000     0.39670    0.00225     0.39895
      H   22    0.10045      0.00000     0.39818    0.00137     0.39955
      H   23    0.09914      0.00000     0.39763    0.00323     0.40086
      H   24    0.10122      0.00000     0.39793    0.00085     0.39878
      H   25    0.17234      0.00000     0.32620    0.00146     0.32766
      H   26    0.17602      0.00000     0.32200    0.00198     0.32398
 =======================================================================
   * Total *   -0.00000     13.99450    36.84137    0.16413    51.00000

 Normal termination of Gaussian 16 at Thu Dec 10 11:07:25 2020.
