 Gaussian 16, Revision A.03,

 -----------------------------------------------------------
 # opt freq B3LYP/6-31G(d) empiricaldispersion=gd3bj scf=xqc
 -----------------------------------------------------------

 -------------------------------
 CID_140082177_JID_2462_neutraal
 -------------------------------
 Symbolic Z-matrix:
 Charge =  0 Multiplicity = 1

 SCF Done:  E(RB3LYP) =  -554.747871883     A.U. after   16 cycles
 SCF Done:  E(RB3LYP) =  -554.751864504     A.U. after   12 cycles
 SCF Done:  E(RB3LYP) =  -554.752659229     A.U. after   12 cycles
 SCF Done:  E(RB3LYP) =  -554.753893817     A.U. after   13 cycles
 SCF Done:  E(RB3LYP) =  -554.755448103     A.U. after   13 cycles
 SCF Done:  E(RB3LYP) =  -554.758059574     A.U. after   13 cycles
 SCF Done:  E(RB3LYP) =  -554.759057329     A.U. after   12 cycles
 SCF Done:  E(RB3LYP) =  -554.760051497     A.U. after   13 cycles
 SCF Done:  E(RB3LYP) =  -554.760303383     A.U. after   12 cycles
 SCF Done:  E(RB3LYP) =  -554.760531418     A.U. after   12 cycles
 SCF Done:  E(RB3LYP) =  -554.761419633     A.U. after   10 cycles
 SCF Done:  E(RB3LYP) =  -554.761431904     A.U. after   10 cycles
 SCF Done:  E(RB3LYP) =  -554.761437145     A.U. after   10 cycles
 SCF Done:  E(RB3LYP) =  -554.761440697     A.U. after   10 cycles
 SCF Done:  E(RB3LYP) =  -554.761440709     A.U. after    7 cycles
 Optimization completed.
    -- Stationary point found.
 Normal termination of Gaussian 16 at Wed Dec  9 17:38:43 2020.

 --------------------------------------------------------------------
 #N Geom=AllCheck Guess=TCheck SCRF=Check GenChk RB3LYP/6-31G(d) Freq
 --------------------------------------------------------------------

 Structure from the checkpoint file:  "JID_2462.chk"
 -------------------------------
 CID_140082177_JID_2462_neutraal
 -------------------------------
 Charge =  0 Multiplicity = 1

 SCF Done:  E(RB3LYP) =  -554.761440709     A.U. after    1 cycles

  Exact polarizability: 114.920 -14.217  95.188   9.057  12.308  92.691
 Approx polarizability: 161.558 -34.024 155.729   9.298  33.387 163.346

                      1                      2                      3
                      A                      A                      A
 Frequencies --     31.5030                49.6215                99.9472
 Red. masses --      3.1024                 3.7653                 3.1986
 Frc consts  --      0.0018                 0.0055                 0.0188
 IR Inten    --      0.1534                 0.8472                 0.8251

                      4                      5                      6
                      A                      A                      A
 Frequencies --    103.8790               174.6289               199.9488
 Red. masses --      4.9423                 4.8357                 3.3803
 Frc consts  --      0.0314                 0.0869                 0.0796
 IR Inten    --      2.8924                 2.1080                 1.8242

                      7                      8                      9
                      A                      A                      A
 Frequencies --    239.9780               275.9683               306.7654
 Red. masses --      1.3868                 3.0083                 5.5427
 Frc consts  --      0.0471                 0.1350                 0.3073
 IR Inten    --      0.8472                 3.9932                 6.0671

                     10                     11                     12
                      A                      A                      A
 Frequencies --    313.4712               396.0875               423.8937
 Red. masses --      2.4580                 2.5315                 2.9402
 Frc consts  --      0.1423                 0.2340                 0.3113
 IR Inten    --      1.5749                 5.8752                 6.0567

                     13                     14                     15
                      A                      A                      A
 Frequencies --    446.4660               512.5903               544.4162
 Red. masses --      4.5768                 3.9275                 4.4703
 Frc consts  --      0.5375                 0.6080                 0.7806
 IR Inten    --      1.8319                12.8949                 8.2882

                     16                     17                     18
                      A                      A                      A
 Frequencies --    620.2944               643.9575               717.7979
 Red. masses --      2.8471                 4.2580                 1.9902
 Frc consts  --      0.6454                 1.0403                 0.6042
 IR Inten    --     62.8819                 7.7478                22.0719

                     19                     20                     21
                      A                      A                      A
 Frequencies --    765.4615               786.6934               797.6977
 Red. masses --      1.5010                 2.3956                 1.5002
 Frc consts  --      0.5182                 0.8735                 0.5624
 IR Inten    --     66.7672                55.4020                16.2071

                     22                     23                     24
                      A                      A                      A
 Frequencies --    808.3138               841.8083               897.5881
 Red. masses --      1.7721                 2.6327                 1.6175
 Frc consts  --      0.6822                 1.0992                 0.7678
 IR Inten    --      6.4669                 4.9030                17.8413

                     25                     26                     27
                      A                      A                      A
 Frequencies --    918.5212               926.6380               932.9995
 Red. masses --      2.5441                 2.1116                 1.8834
 Frc consts  --      1.2646                 1.0683                 0.9660
 IR Inten    --      9.3679                 6.2574                 0.7580

                     28                     29                     30
                      A                      A                      A
 Frequencies --    986.6141               999.8973              1027.8021
 Red. masses --      3.8369                 1.2582                 2.5545
 Frc consts  --      2.2005                 0.7411                 1.5899
 IR Inten    --      4.4764                 0.5401                13.5112

                     31                     32                     33
                      A                      A                      A
 Frequencies --   1034.3327              1102.6985              1128.8805
 Red. masses --      2.7437                 2.6382                 2.1465
 Frc consts  --      1.7294                 1.8900                 1.6117
 IR Inten    --     38.6439                15.3438                29.3479

                     34                     35                     36
                      A                      A                      A
 Frequencies --   1168.6735              1190.2774              1236.8550
 Red. masses --      2.5965                 2.4022                 1.1065
 Frc consts  --      2.0894                 2.0052                 0.9973
 IR Inten    --     76.0513                21.5518                11.7234

                     37                     38                     39
                      A                      A                      A
 Frequencies --   1259.3110              1321.9782              1365.0935
 Red. masses --      1.3212                 1.4345                 1.1643
 Frc consts  --      1.2344                 1.4771                 1.2783
 IR Inten    --     35.2481                69.8224                 0.7731

                     40                     41                     42
                      A                      A                      A
 Frequencies --   1373.6493              1416.9294              1430.5360
 Red. masses --      1.7225                 1.4219                 1.6695
 Frc consts  --      1.9150                 1.6820                 2.0130
 IR Inten    --    106.3358                18.5761                44.0907

                     43                     44                     45
                      A                      A                      A
 Frequencies --   1441.4201              1474.6347              1483.2875
 Red. masses --      1.2819                 1.7948                 1.3713
 Frc consts  --      1.5693                 2.2995                 1.7775
 IR Inten    --     10.1236                18.3692                17.8444

                     46                     47                     48
                      A                      A                      A
 Frequencies --   1520.7385              1523.7344              1535.3709
 Red. masses --      1.0856                 1.0519                 1.0896
 Frc consts  --      1.4792                 1.4390                 1.5134
 IR Inten    --     16.0969                 2.6538                 9.2249

                     49                     50                     51
                      A                      A                      A
 Frequencies --   1646.8584              1667.5965              1714.8775
 Red. masses --      8.5274                 7.2770                 5.3702
 Frc consts  --     13.6264                11.9230                 9.3049
 IR Inten    --     14.6354                25.6614                14.6443

                     52                     53                     54
                      A                      A                      A
 Frequencies --   1775.0799              3050.5642              3083.0105
 Red. masses --      8.4994                 1.0350                 1.0694
 Frc consts  --     15.7788                 5.6749                 5.9888
 IR Inten    --    317.1390                16.7238                29.0490

                     55                     56                     57
                      A                      A                      A
 Frequencies --   3117.9259              3125.9130              3150.4793
 Red. masses --      1.1022                 1.1000                 1.0999
 Frc consts  --      6.3129                 6.3330                 6.4320
 IR Inten    --     10.7034                32.6427                32.3393

                     58                     59                     60
                      A                      A                      A
 Frequencies --   3171.5284              3181.5805              3190.8557
 Red. masses --      1.0842                 1.0868                 1.0921
 Frc consts  --      6.4253                 6.4818                 6.5516
 IR Inten    --      2.7493                11.0771                18.9661

                     61                     62                     63
                      A                      A                      A
 Frequencies --   3201.4995              3209.7686              3556.8296
 Red. masses --      1.0983                 1.0926                 1.0749
 Frc consts  --      6.6328                 6.6323                 8.0120
 IR Inten    --     26.6390                 7.5840                14.7805

 - Thermochemistry -
 -------------------
 Temperature   298.150 Kelvin.  Pressure   1.00000 Atm.
 Atom     1 has atomic number  6 and mass  12.00000

 Molecular mass:   165.07898 amu.
 Principal axes and moments of inertia in atomic units:
                           1         2         3
     Eigenvalues --  1286.937982631.461102871.21556
           X            0.99951   0.03085   0.00596
           Y           -0.03083   0.99952  -0.00392
           Z           -0.00608   0.00373   0.99997
 This molecule is an asymmetric top.
 Rotational symmetry number  1.
 Warning -- assumption of classical behavior for rotation
           may cause significant error
 Rotational temperatures (Kelvin)      0.06730     0.03291     0.03017
 Rotational constants (GHZ):           1.40235     0.68583     0.62856
 Zero-point vibrational energy     494321.0 (Joules/Mol)
                                  118.14556 (Kcal/Mol)
 Warning -- explicit consideration of  16 degrees of freedom as
           vibrations may cause significant error
 Vibrational temperatures:     45.33    71.39   143.80   149.46   251.25
          (Kelvin)            287.68   345.27   397.06   441.37   451.02
                              569.88   609.89   642.36   737.50   783.29
                              892.47   926.51  1032.75  1101.33  1131.88
                             1147.71  1162.98  1211.17  1291.43  1321.55
                             1333.23  1342.38  1419.52  1438.63  1478.78
                             1488.17  1586.54  1624.21  1681.46  1712.54
                             1779.56  1811.87  1902.03  1964.07  1976.37
                             2038.65  2058.22  2073.88  2121.67  2134.12
                             2188.00  2192.31  2209.06  2369.46  2399.30
                             2467.33  2553.94  4389.08  4435.76  4486.00
                             4497.49  4532.84  4563.12  4577.58  4590.93
                             4606.24  4618.14  5117.48

 Zero-point correction=                           0.188277 (Hartree/Particle)
 Thermal correction to Energy=                    0.199804
 Thermal correction to Enthalpy=                  0.200748
 Thermal correction to Gibbs Free Energy=         0.149823
 Sum of electronic and zero-point Energies=           -554.573164
 Sum of electronic and thermal Energies=              -554.561636
 Sum of electronic and thermal Enthalpies=            -554.560692
 Sum of electronic and thermal Free Energies=         -554.611617

                     E (Thermal)             CV                S
                      KCal/Mol        Cal/Mol-Kelvin    Cal/Mol-Kelvin
 Total                  125.379             42.815            107.181
 Electronic               0.000              0.000              0.000
 Translational            0.889              2.981             41.212
 Rotational               0.889              2.981             30.654
 Vibrational            123.602             36.854             35.315
 Vibration     1          0.594              1.983              5.732
 Vibration     2          0.595              1.978              4.832
 Vibration     3          0.604              1.949              3.455
 Vibration     4          0.605              1.946              3.380
 Vibration     5          0.627              1.874              2.385
 Vibration     6          0.638              1.840              2.134
 Vibration     7          0.657              1.779              1.803
 Vibration     8          0.678              1.718              1.559
 Vibration     9          0.697              1.661              1.380
 Vibration    10          0.701              1.648              1.344
 Vibration    11          0.763              1.479              0.977
 Vibration    12          0.786              1.418              0.879
 Vibration    13          0.806              1.369              0.807
 Vibration    14          0.868              1.222              0.627
 Vibration    15          0.900              1.152              0.556
 Vibration    16          0.980              0.989              0.416

 Optimization completed.
    -- Stationary point found.
 Normal termination of Gaussian 16 at Wed Dec  9 17:44:21 2020.

 ----------------------------------------------------------------------
 # B3LYP/6-311++G(d,p) empiricaldispersion=gd3bj scf=xqc pop=npa geom=c
 heck
 ----------------------------------------------------------------------

 ---------------------------------------
 CID_140082177_JID_2462_Energie_neutraal
 ---------------------------------------
 Structure from the checkpoint file:  "JID_2462.chk"
 Charge =  0 Multiplicity = 1

 SCF Done:  E(RB3LYP) =  -554.922530963     A.U. after   16 cycles
 Normal termination of Gaussian 16 at Wed Dec  9 17:47:22 2020.

 ----------------------------------------------------------------------
 # B3LYP/6-311++G(d,p) empiricaldispersion=gd3bj scf=xqc pop=npa geom=c
 heck
 ----------------------------------------------------------------------

 -------------------------------------
 CID_140082177_JID_2462_Energie_kation
 -------------------------------------
 Structure from the checkpoint file:  "JID_2462.chk"
 Charge =  1 Multiplicity = 2

 SCF Done:  E(UB3LYP) =  -554.620573496     A.U. after   25 cycles
 Normal termination of Gaussian 16 at Wed Dec  9 17:53:26 2020.
 Gaussian 16:  ES64L-G16RevA.03 25-Dec-2016

 ----------------------------------------------------------------------
 # B3LYP/6-311++G(d,p) empiricaldispersion=gd3bj scf=xqc pop=npa geom=c
 heck
 ----------------------------------------------------------------------

 ------------------------------------
 CID_140082177_JID_2462_Energie_anion
 ------------------------------------
 Structure from the checkpoint file:  "JID_2462.chk"
 Charge = -1 Multiplicity = 2

                         Standard orientation:
 ---------------------------------------------------------------------
 Center     Atomic      Atomic             Coordinates (Angstroms)
 Number     Number       Type             X           Y           Z
 ---------------------------------------------------------------------
      1          6           0       -2.088614   -1.721446    1.210255
      2          6           0       -2.084207   -1.413215   -0.288357
      3          7           0       -2.265713    0.011841   -0.588928
      4          6           0       -1.382857    1.008120   -0.234147
      5          8           0       -1.761183    2.142119    0.034130
      6          6           0        0.082959    0.675824   -0.230956
      7          6           0        0.624183    0.049187   -1.292424
      8          8           0        1.987994   -0.108590   -1.464773
      9          6           0        2.536506   -0.938812   -0.487577
     10          6           0        2.596298   -0.598233    0.806806
     11          6           0        1.974041    0.583851    1.382307
     12          6           0        0.848189    1.165135    0.908885
     13          1           0       -1.252640   -1.216126    1.705956
     14          1           0       -1.989056   -2.799108    1.383431
     15          1           0       -3.018700   -1.382845    1.680285
     16          1           0       -1.148106   -1.751897   -0.734567
     17          1           0       -2.892139   -1.948806   -0.797246
     18          1           0       -3.220983    0.347163   -0.509445
     19          1           0        0.034116   -0.300874   -2.135959
     20          1           0        2.952308   -1.859516   -0.889248
     21          1           0        3.129460   -1.273395    1.472616
     22          1           0        2.408649    0.971520    2.300925
     23          1           0        0.403616    2.000292    1.442153
 ---------------------------------------------------------------------

 SCF Done:  E(UB3LYP) =  -554.924982442     A.U. after   33 cycles
 SCF Done:  E(UB3LYP) =  -554.924982442     a.u. after    1 cycles

 The electronic state is 2-A.
 Alpha  occ. eigenvalues --  -19.00098 -18.95121 -14.20489 -10.13304 -10.09105
 Alpha  occ. eigenvalues --  -10.06667 -10.05752 -10.05276 -10.02468 -10.02216
 Alpha  occ. eigenvalues --  -10.01402 -10.01256  -0.91710  -0.90266  -0.79360
 Alpha  occ. eigenvalues --   -0.66582  -0.64332  -0.63512  -0.55860  -0.52614
 Alpha  occ. eigenvalues --   -0.51455  -0.46005  -0.40781  -0.39732  -0.38025
 Alpha  occ. eigenvalues --   -0.37040  -0.33126  -0.32100  -0.31461  -0.30178
 Alpha  occ. eigenvalues --   -0.30129  -0.28950  -0.27930  -0.26388  -0.25497
 Alpha  occ. eigenvalues --   -0.24651  -0.23743  -0.20511  -0.17630  -0.15390
 Alpha  occ. eigenvalues --   -0.13699  -0.12926  -0.11786  -0.06740   0.05172
 Alpha virt. eigenvalues --    0.06973   0.09091   0.09755   0.10111   0.11023
 Alpha virt. eigenvalues --    0.11795   0.12321   0.12698   0.13099   0.14198
 Alpha virt. eigenvalues --    0.14758   0.15347   0.17012   0.17245   0.17943

  Beta  occ. eigenvalues --  -19.00115 -18.95050 -14.20485 -10.13242 -10.09089
  Beta  occ. eigenvalues --  -10.06316 -10.05264 -10.05184 -10.02516 -10.02270
  Beta  occ. eigenvalues --  -10.01236 -10.01053  -0.91458  -0.90145  -0.79313
  Beta  occ. eigenvalues --   -0.66229  -0.64006  -0.63283  -0.55532  -0.52440
  Beta  occ. eigenvalues --   -0.50828  -0.45757  -0.40346  -0.39432  -0.37859
  Beta  occ. eigenvalues --   -0.36980  -0.33025  -0.31938  -0.31244  -0.29889
  Beta  occ. eigenvalues --   -0.29822  -0.28498  -0.27792  -0.26298  -0.25188
  Beta  occ. eigenvalues --   -0.24475  -0.23588  -0.20283  -0.17195  -0.14830
  Beta  occ. eigenvalues --   -0.13583  -0.12169  -0.10980  -0.05465
  Beta virt. eigenvalues --    0.07471   0.09146   0.09745   0.10139   0.10894
  Beta virt. eigenvalues --    0.11215   0.11805   0.12644   0.13098   0.13225
  Beta virt. eigenvalues --    0.14169   0.14915   0.15293   0.17029   0.17403

 Mulliken charges and spin densities:
               1          2
     1  C   -0.232839  -0.312180
     2  C    0.131507  -0.249730
     3  N   -0.223959   0.050465
     4  C   -0.373799   0.013031
     5  O   -0.357646   0.028344
     6  C    1.416538  -0.147802
     7  C   -1.055476   0.442155
     8  O   -0.102099  -0.019001
     9  C   -0.466426   0.219151
    10  C    0.109471  -0.012711
    11  C   -0.445859   0.098841
    12  C   -0.142150   0.095865
    13  H    0.152866   0.046741
    14  H   -0.019587   0.132143
    15  H    0.062064   0.055556
    16  H    0.200836  -0.074882
    17  H   -0.395470   0.541665
    18  H    0.190677   0.070341
    19  H    0.077910   0.033488
    20  H    0.083709  -0.017233
    21  H    0.112358   0.012866
    22  H    0.084191   0.001016
    23  H    0.193184  -0.008130
 Sum of Mulliken charges =  -1.00000   1.00000

 Dipole moment (field-independent basis, Debye):
    X=             -0.6279    Y=             -3.1058    Z=              1.1052  Tot=              3.3559
 Quadrupole moment (field-independent basis, Debye-Ang):
   XX=           -105.7879   YY=            -96.4267   ZZ=            -86.8716
   XY=             -1.6744   XZ=              0.9487   YZ=              0.7698

 Summary of Natural Population Analysis:

                                       Natural Population
                Natural  -----------------------------------------------
    Atom  No    Charge         Core      Valence    Rydberg      Total
 -----------------------------------------------------------------------
      C    1   -0.29497      0.99966     2.28990    0.00541     3.29497
      C    2   -0.09144      0.99963     2.08053    0.01128     3.09144
      N    3   -0.32831      0.99968     2.81754    0.01110     3.82831
      C    4    0.35326      0.99962     1.62194    0.02518     2.64674
      O    5   -0.32314      0.99988     3.31765    0.00561     4.32314
      C    6   -0.13631      0.99942     2.12427    0.01262     3.13631
      C    7    0.20474      0.99937     1.78083    0.01507     2.79526
      O    8   -0.29961      0.99987     3.28853    0.01121     4.29961
      C    9    0.13975      0.99942     1.84771    0.01312     2.86025
      C   10   -0.16232      0.99954     2.15365    0.00913     3.16232
      C   11   -0.08668      0.99954     2.07682    0.01031     3.08668
      C   12   -0.06853      0.99952     2.05860    0.01041     3.06853
      H   13    0.10966      0.00000     0.38942    0.00092     0.39034
      H   14    0.09506      0.00000     0.40395    0.00098     0.40494
      H   15    0.09274      0.00000     0.40618    0.00108     0.40726
      H   16    0.10328      0.00000     0.39483    0.00189     0.39672
      H   17    0.08919      0.00000     0.40924    0.00157     0.41081
      H   18    0.18323      0.00000     0.31398    0.00279     0.31677
      H   19    0.07213      0.00000     0.42638    0.00149     0.42787
      H   20    0.07010      0.00000     0.42853    0.00137     0.42990
      H   21    0.09380      0.00000     0.40453    0.00167     0.40620
      H   22    0.08539      0.00000     0.41288    0.00173     0.41461
      H   23    0.09896      0.00000     0.39999    0.00104     0.40104
 =======================================================================
   * Total *    0.00000     11.99514    31.84787    0.15699    44.00000

 Normal termination of Gaussian 16 at Wed Dec  9 18:00:38 2020.
