 Gaussian 16, Revision A.03,

 -----------------------------------------------------------
 # opt freq B3LYP/6-31G(d) empiricaldispersion=gd3bj scf=xqc
 -----------------------------------------------------------

 ------------------------------
 CID_81815617_JID_6880_neutraal
 ------------------------------
 Symbolic Z-matrix:
 Charge =  0 Multiplicity = 1

 SCF Done:  E(RB3LYP) =  -761.615390427     A.U. after   15 cycles
 SCF Done:  E(RB3LYP) =  -761.618975748     A.U. after   13 cycles
 SCF Done:  E(RB3LYP) =  -761.617973313     A.U. after   12 cycles
 SCF Done:  E(RB3LYP) =  -761.620045668     A.U. after   12 cycles
 SCF Done:  E(RB3LYP) =  -761.620154110     A.U. after   12 cycles
 SCF Done:  E(RB3LYP) =  -761.620255656     A.U. after   11 cycles
 SCF Done:  E(RB3LYP) =  -761.620289990     A.U. after   11 cycles
 SCF Done:  E(RB3LYP) =  -761.620281120     A.U. after   12 cycles
 SCF Done:  E(RB3LYP) =  -761.620296253     A.U. after   10 cycles
 SCF Done:  E(RB3LYP) =  -761.620307077     A.U. after   11 cycles
 SCF Done:  E(RB3LYP) =  -761.620310502     A.U. after    9 cycles
 SCF Done:  E(RB3LYP) =  -761.620311558     A.U. after    9 cycles
 SCF Done:  E(RB3LYP) =  -761.620312024     A.U. after    8 cycles
 SCF Done:  E(RB3LYP) =  -761.620312060     A.U. after    7 cycles
 SCF Done:  E(RB3LYP) =  -761.620312078     A.U. after    7 cycles
 Optimization completed.
    -- Stationary point found.
 Normal termination of Gaussian 16 at Fri Dec 11 00:58:38 2020.

 --------------------------------------------------------------------
 #N Geom=AllCheck Guess=TCheck SCRF=Check GenChk RB3LYP/6-31G(d) Freq
 --------------------------------------------------------------------

 Structure from the checkpoint file:  "JID_6880.chk"
 ------------------------------
 CID_81815617_JID_6880_neutraal
 ------------------------------
 Charge =  0 Multiplicity = 1

 SCF Done:  E(RB3LYP) =  -761.620312078     A.U. after    1 cycles

  Exact polarizability: 191.438  14.235 108.953   7.485 -16.565  99.562
 Approx polarizability: 267.293  31.921 184.238  12.637 -48.649 171.265

                      1                      2                      3
                      A                      A                      A
 Frequencies --     29.9553                37.9721                64.6926
 Red. masses --      5.3939                 4.7409                 6.1004
 Frc consts  --      0.0029                 0.0040                 0.0150
 IR Inten    --      2.5544                 0.6991                 1.6394

                      4                      5                      6
                      A                      A                      A
 Frequencies --     69.4411                79.5672                96.8912
 Red. masses --      3.5520                 3.9537                 1.9092
 Frc consts  --      0.0101                 0.0147                 0.0106
 IR Inten    --      1.1544                 2.7663                 0.9384

                      7                      8                      9
                      A                      A                      A
 Frequencies --    103.3619               140.8612               161.1175
 Red. masses --      1.9831                 2.7621                 3.4910
 Frc consts  --      0.0125                 0.0323                 0.0534
 IR Inten    --      0.4043                 1.5243                 2.3511

                     10                     11                     12
                      A                      A                      A
 Frequencies --    209.6267               260.9889               269.7694
 Red. masses --      4.7618                 6.2524                 6.0776
 Frc consts  --      0.1233                 0.2509                 0.2606
 IR Inten    --      1.5072                 0.4860                 0.1002

                     13                     14                     15
                      A                      A                      A
 Frequencies --    321.1334               359.4398               374.7725
 Red. masses --      3.7330                 2.5519                 3.1981
 Frc consts  --      0.2268                 0.1942                 0.2646
 IR Inten    --      7.8080                 2.2463                 5.6214

                     16                     17                     18
                      A                      A                      A
 Frequencies --    417.4282               436.3309               449.8831
 Red. masses --      3.4255                 4.0887                 2.3724
 Frc consts  --      0.3517                 0.4586                 0.2829
 IR Inten    --      1.1649                 9.8291                15.2737

                     19                     20                     21
                      A                      A                      A
 Frequencies --    468.1203               506.8467               547.4698
 Red. masses --      5.6140                 6.6359                 3.1913
 Frc consts  --      0.7248                 1.0044                 0.5636
 IR Inten    --     12.8960                 9.7880                 7.7018

                     22                     23                     24
                      A                      A                      A
 Frequencies --    610.7311               622.3020               650.6058
 Red. masses --      1.8216                 1.4670                 6.8835
 Frc consts  --      0.4003                 0.3347                 1.7167
 IR Inten    --     33.1495                65.5813                 3.5146

                     25                     26                     27
                      A                      A                      A
 Frequencies --    672.9610               721.8624               746.1579
 Red. masses --      3.8990                 5.5796                 3.5344
 Frc consts  --      1.0404                 1.7130                 1.1594
 IR Inten    --     26.8939                 6.2260                61.8456

                     28                     29                     30
                      A                      A                      A
 Frequencies --    755.1533               814.6125               822.8350
 Red. masses --      3.5356                 6.3827                 5.2527
 Frc consts  --      1.1879                 2.4955                 2.0953
 IR Inten    --     48.8043                12.6859                 5.7478

                     31                     32                     33
                      A                      A                      A
 Frequencies --    888.5219               918.9829               953.3133
 Red. masses --      1.6608                 1.8205                 1.3751
 Frc consts  --      0.7725                 0.9059                 0.7363
 IR Inten    --     10.8655                 1.9458                35.8566

                     34                     35                     36
                      A                      A                      A
 Frequencies --    958.4650               977.3026               980.2681
 Red. masses --      2.6513                 1.9035                 1.5264
 Frc consts  --      1.4350                 1.0712                 0.8642
 IR Inten    --      5.8564                10.9760                 4.5907

                     37                     38                     39
                      A                      A                      A
 Frequencies --   1007.0696              1032.2495              1047.5453
 Red. masses --      1.3516                 1.1147                 3.5067
 Frc consts  --      0.8076                 0.6998                 2.2672
 IR Inten    --      0.8668                20.8650                45.5969

                     40                     41                     42
                      A                      A                      A
 Frequencies --   1099.4820              1130.9654              1145.7425
 Red. masses --      1.9956                 4.0096                 1.9384
 Frc consts  --      1.4213                 3.0217                 1.4992
 IR Inten    --     57.4968               132.4110               104.7043

                     43                     44                     45
                      A                      A                      A
 Frequencies --   1161.1683              1166.7151              1221.1566
 Red. masses --      1.3265                 1.3074                 2.0777
 Frc consts  --      1.0538                 1.0485                 1.8255
 IR Inten    --     13.5496                 9.4496               218.9448

                     46                     47                     48
                      A                      A                      A
 Frequencies --   1224.2703              1281.3024              1302.2352
 Red. masses --      2.2711                 3.3510                 1.9523
 Frc consts  --      2.0056                 3.2414                 1.9506
 IR Inten    --     21.4796                38.7819                36.6920

                     49                     50                     51
                      A                      A                      A
 Frequencies --   1321.3901              1333.1671              1334.2163
 Red. masses --      1.4774                 1.9372                 2.1309
 Frc consts  --      1.5199                 2.0286                 2.2349
 IR Inten    --     10.8302                 4.1896                 3.0405

                     52                     53                     54
                      A                      A                      A
 Frequencies --   1383.2729              1393.9737              1429.6367
 Red. masses --      1.2967                 2.3138                 3.4631
 Frc consts  --      1.4618                 2.6491                 4.1703
 IR Inten    --     22.8740               114.7539                31.2263

                     55                     56                     57
                      A                      A                      A
 Frequencies --   1446.6004              1469.8189              1480.0625
 Red. masses --      1.6421                 1.3024                 1.3458
 Frc consts  --      2.0246                 1.6578                 1.7369
 IR Inten    --     86.0220                22.9009                53.7127

                     58                     59                     60
                      A                      A                      A
 Frequencies --   1520.0481              1525.8368              1531.3126
 Red. masses --      1.0686                 1.3356                 1.7597
 Frc consts  --      1.4547                 1.8321                 2.4312
 IR Inten    --     26.1520                 9.5081                12.7128

                     61                     62                     63
                      A                      A                      A
 Frequencies --   1546.7098              1613.9445              1656.8872
 Red. masses --      1.2906                 6.9092                 5.8253
 Frc consts  --      1.8192                10.6037                 9.4223
 IR Inten    --     50.7457                14.5756                73.0489

                     64                     65                     66
                      A                      A                      A
 Frequencies --   1732.1240              1734.3533              1826.7444
 Red. masses --      5.5586                 7.1721                 9.9664
 Frc consts  --      9.8260                12.7108                19.5949
 IR Inten    --     84.2425               190.6342               305.3897

                     67                     68                     69
                      A                      A                      A
 Frequencies --   3034.2930              3069.2117              3100.4301
 Red. masses --      1.0466                 1.0706                 1.0952
 Frc consts  --      5.6776                 5.9419                 6.2027
 IR Inten    --     50.3932                37.4956                33.5852

                     70                     71                     72
                      A                      A                      A
 Frequencies --   3148.1831              3164.4956              3169.8501
 Red. masses --      1.0823                 1.0690                 1.0923
 Frc consts  --      6.3200                 6.3072                 6.4662
 IR Inten    --     13.1949                 7.0418                 4.1903

                     73                     74                     75
                      A                      A                      A
 Frequencies --   3196.0067              3207.7898              3231.5514
 Red. masses --      1.0972                 1.0913                 1.0898
 Frc consts  --      6.6033                 6.6164                 6.7052
 IR Inten    --      1.7855                 3.3762                 0.9354

                     76                     77                     78
                      A                      A                      A
 Frequencies --   3243.9361              3249.0928              3698.2920
 Red. masses --      1.1165                 1.0946                 1.0642
 Frc consts  --      6.9221                 6.8084                 8.5758
 IR Inten    --     15.0246                 0.4640                85.3341

 - Thermochemistry -
 -------------------
 Temperature   298.150 Kelvin.  Pressure   1.00000 Atm.
 Atom     1 has atomic number  6 and mass  12.00000

 Molecular mass:   220.08479 amu.
 Principal axes and moments of inertia in atomic units:
                           1         2         3
     Eigenvalues --  1634.299486214.103816919.96553
           X            0.99994  -0.00948   0.00461
           Y            0.00947   0.99995   0.00345
           Z           -0.00465  -0.00340   0.99998
 This molecule is an asymmetric top.
 Rotational symmetry number  1.
 Warning -- assumption of classical behavior for rotation
           may cause significant error
 Rotational temperatures (Kelvin)      0.05300     0.01394     0.01252
 Rotational constants (GHZ):           1.10429     0.29043     0.26080
 Zero-point vibrational energy     580864.0 (Joules/Mol)
                                  138.82983 (Kcal/Mol)
 Warning -- explicit consideration of  22 degrees of freedom as
           vibrations may cause significant error
 Vibrational temperatures:     43.10    54.63    93.08    99.91   114.48
          (Kelvin)            139.40   148.71   202.67   231.81   301.61
                              375.50   388.14   462.04   517.15   539.21
                              600.59   627.78   647.28   673.52   729.24
                              787.69   878.71   895.35   936.08   968.24
                             1038.60  1073.55  1086.50  1172.05  1183.88
                             1278.38  1322.21  1371.61  1379.02  1406.12
                             1410.39  1448.95  1485.18  1507.18  1581.91
                             1627.21  1648.47  1670.66  1678.64  1756.97
                             1761.45  1843.51  1873.63  1901.19  1918.13
                             1919.64  1990.22  2005.62  2056.93  2081.34
                             2114.74  2129.48  2187.01  2195.34  2203.22
                             2225.37  2322.11  2383.89  2492.14  2495.35
                             2628.28  4365.67  4415.91  4460.83  4529.53
                             4553.00  4560.71  4598.34  4615.29  4649.48
                             4667.30  4674.72  5321.02

 Zero-point correction=                           0.221239 (Hartree/Particle)
 Thermal correction to Energy=                    0.236613
 Thermal correction to Enthalpy=                  0.237557
 Thermal correction to Gibbs Free Energy=         0.176711
 Sum of electronic and zero-point Energies=           -761.399073
 Sum of electronic and thermal Energies=              -761.383699
 Sum of electronic and thermal Enthalpies=            -761.382755
 Sum of electronic and thermal Free Energies=         -761.443601

                     E (Thermal)             CV                S
                      KCal/Mol        Cal/Mol-Kelvin    Cal/Mol-Kelvin
 Total                  148.477             55.765            128.061
 Electronic               0.000              0.000              0.000
 Translational            0.889              2.981             42.069
 Rotational               0.889              2.981             32.619
 Vibrational            146.699             49.803             53.373
 Vibration     1          0.594              1.984              5.832
 Vibration     2          0.594              1.982              5.362
 Vibration     3          0.597              1.971              4.309
 Vibration     4          0.598              1.969              4.169
 Vibration     5          0.600              1.963              3.902
 Vibration     6          0.603              1.951              3.516
 Vibration     7          0.605              1.947              3.390
 Vibration     8          0.615              1.912              2.792
 Vibration     9          0.622              1.890              2.537
 Vibration    10          0.642              1.826              2.047
 Vibration    11          0.669              1.744              1.655
 Vibration    12          0.674              1.729              1.598
 Vibration    13          0.707              1.633              1.304
 Vibration    14          0.734              1.556              1.125
 Vibration    15          0.746              1.524              1.060
 Vibration    16          0.780              1.432              0.901
 Vibration    17          0.797              1.391              0.838
 Vibration    18          0.809              1.361              0.796
 Vibration    19          0.825              1.321              0.743
 Vibration    20          0.862              1.235              0.641
 Vibration    21          0.903              1.145              0.549
 Vibration    22          0.970              1.009              0.432

 Optimization completed.
    -- Stationary point found.
 Normal termination of Gaussian 16 at Fri Dec 11 01:06:48 2020.

 ----------------------------------------------------------------------
 # B3LYP/6-311++G(d,p) empiricaldispersion=gd3bj scf=xqc pop=npa geom=c
 heck
 ----------------------------------------------------------------------

 --------------------------------------
 CID_81815617_JID_6880_Energie_neutraal
 --------------------------------------
 Structure from the checkpoint file:  "JID_6880.chk"
 Charge =  0 Multiplicity = 1

 SCF Done:  E(RB3LYP) =  -761.841453080     A.U. after   17 cycles
 Normal termination of Gaussian 16 at Fri Dec 11 01:10:13 2020.

 ----------------------------------------------------------------------
 # B3LYP/6-311++G(d,p) empiricaldispersion=gd3bj scf=xqc pop=npa geom=c
 heck
 ----------------------------------------------------------------------

 ------------------------------------
 CID_81815617_JID_6880_Energie_kation
 ------------------------------------
 Structure from the checkpoint file:  "JID_6880.chk"
 Charge =  1 Multiplicity = 2

 SCF Done:  E(UB3LYP) =  -761.521717669     A.U. after   33 cycles
 SCF Done:  E(UB3LYP) =  -761.521717974     a.u. after    3 cycles
 Normal termination of Gaussian 16 at Fri Dec 11 01:36:30 2020.
 Gaussian 16:  ES64L-G16RevA.03 25-Dec-2016

 ----------------------------------------------------------------------
 # B3LYP/6-311++G(d,p) empiricaldispersion=gd3bj scf=xqc pop=npa geom=c
 heck
 ----------------------------------------------------------------------

 -----------------------------------
 CID_81815617_JID_6880_Energie_anion
 -----------------------------------
 Structure from the checkpoint file:  "JID_6880.chk"
 Charge = -1 Multiplicity = 2

                         Standard orientation:
 ---------------------------------------------------------------------
 Center     Atomic      Atomic             Coordinates (Angstroms)
 Number     Number       Type             X           Y           Z
 ---------------------------------------------------------------------
      1          6           0       -4.223511   -0.525870   -0.436083
      2          7           0       -2.821167   -0.127495   -0.460024
      3          6           0       -2.546307    1.320613   -0.465488
      4          6           0       -2.271656    1.851103    0.916912
      5          6           0       -1.151064    2.485751    1.258950
      6          6           0       -1.892425   -1.070477   -0.117495
      7          8           0       -2.191145   -2.228109    0.177877
      8          6           0       -0.423784   -0.702035   -0.111978
      9          7           0        0.062240    0.133359   -1.043321
     10          6           0        1.374100    0.371976   -1.042406
     11          6           0        2.260103   -0.188409   -0.114487
     12          6           0        1.745984   -1.066167    0.846524
     13          6           0        0.384992   -1.338428    0.837062
     14          6           0        3.695595    0.173850   -0.200608
     15          8           0        4.170431    0.938162   -1.015484
     16          8           0        4.448284   -0.444872    0.743235
     17          1           0       -4.717635   -0.201765    0.490209
     18          1           0       -4.279749   -1.611120   -0.498421
     19          1           0       -4.743794   -0.074098   -1.286959
     20          1           0       -1.710438    1.527954   -1.132171
     21          1           0       -3.439222    1.796925   -0.885642
     22          1           0       -3.046178    1.671047    1.662865
     23          1           0       -0.985048    2.852360    2.268095
     24          1           0       -0.357008    2.661154    0.537156
     25          1           0        1.757171    1.040560   -1.808436
     26          1           0        2.405381   -1.523642    1.575432
     27          1           0       -0.066634   -2.032806    1.534703
     28          1           0        5.362913   -0.140508    0.596146
 ---------------------------------------------------------------------

 SCF Done:  E(UB3LYP) =  -761.870609948     A.U. after   24 cycles

 The electronic state is 2-A.
 Alpha  occ. eigenvalues --  -19.02942 -18.95322 -18.94413 -14.21515 -14.15708
 Alpha  occ. eigenvalues --  -10.13946 -10.12384 -10.09385 -10.09025 -10.07391
 Alpha  occ. eigenvalues --  -10.06329 -10.05566 -10.04419 -10.02980 -10.02731
 Alpha  occ. eigenvalues --  -10.02277  -0.96470  -0.90056  -0.87007  -0.81152
 Alpha  occ. eigenvalues --   -0.79246  -0.68144  -0.65967  -0.62805  -0.59999
 Alpha  occ. eigenvalues --   -0.57764  -0.52706  -0.48888  -0.46746  -0.45869
 Alpha  occ. eigenvalues --   -0.42714  -0.39541  -0.37160  -0.36164  -0.35378
 Alpha  occ. eigenvalues --   -0.35118  -0.34057  -0.32505  -0.31246  -0.31148
 Alpha  occ. eigenvalues --   -0.30632  -0.29341  -0.28138  -0.27283  -0.27112
 Alpha  occ. eigenvalues --   -0.26076  -0.25607  -0.24834  -0.23186  -0.22494
 Alpha  occ. eigenvalues --   -0.18931  -0.17011  -0.14694  -0.14089  -0.13229
 Alpha  occ. eigenvalues --   -0.12270  -0.11704  -0.10422   0.03205
 Alpha virt. eigenvalues --    0.07370   0.08870   0.09156   0.09416   0.10228
 Alpha virt. eigenvalues --    0.10827   0.11497   0.11555   0.12086   0.13001
 Alpha virt. eigenvalues --    0.13456   0.14025   0.14632   0.14764   0.15150

  Beta  occ. eigenvalues --  -19.02886 -18.95024 -18.94223 -14.21470 -14.15654
  Beta  occ. eigenvalues --  -10.13729 -10.12317 -10.09385 -10.09028 -10.07391
  Beta  occ. eigenvalues --  -10.06325 -10.05530 -10.03993 -10.02809 -10.02744
  Beta  occ. eigenvalues --  -10.02040  -0.96204  -0.89750  -0.86568  -0.80986
  Beta  occ. eigenvalues --   -0.78907  -0.68129  -0.65434  -0.62308  -0.59909
  Beta  occ. eigenvalues --   -0.57629  -0.52092  -0.48562  -0.46699  -0.45664
  Beta  occ. eigenvalues --   -0.42557  -0.39351  -0.36907  -0.36027  -0.35231
  Beta  occ. eigenvalues --   -0.35026  -0.33810  -0.32270  -0.31200  -0.30497
  Beta  occ. eigenvalues --   -0.29966  -0.29205  -0.27966  -0.27070  -0.26517
  Beta  occ. eigenvalues --   -0.25902  -0.25328  -0.24552  -0.22610  -0.22139
  Beta  occ. eigenvalues --   -0.17761  -0.16923  -0.13832  -0.13412  -0.12836
  Beta  occ. eigenvalues --   -0.11627  -0.10800  -0.09659
  Beta virt. eigenvalues --    0.07357   0.08856   0.09085   0.09253   0.09430
  Beta virt. eigenvalues --    0.10227   0.10876   0.11482   0.11802   0.12199
  Beta virt. eigenvalues --    0.12996   0.13446   0.14594   0.14684   0.15154

 Mulliken charges and spin densities:
               1          2
     1  C   -0.256212  -0.004144
     2  N    0.072438   0.004901
     3  C   -0.481560   0.003099
     4  C    0.332994   0.008825
     5  C   -0.673669  -0.001382
     6  C   -0.436087  -0.009201
     7  O   -0.373230   0.063543
     8  C    0.154644   0.291254
     9  N   -0.100820   0.024059
    10  C   -0.680700   0.062771
    11  C    0.358590   0.080788
    12  C   -0.382400   0.212351
    13  C   -0.034891  -0.019352
    14  C    0.198589   0.159308
    15  O   -0.418410   0.104293
    16  O   -0.226695   0.013672
    17  H    0.120595   0.003469
    18  H    0.179418  -0.000593
    19  H    0.123359   0.002813
    20  H    0.235477   0.004017
    21  H    0.105219   0.003107
    22  H    0.135561   0.003576
    23  H    0.105004  -0.000523
    24  H    0.149901   0.000464
    25  H    0.186248  -0.002081
    26  H    0.165174  -0.011362
    27  H    0.178141   0.003378
    28  H    0.263320  -0.001050
 Sum of Mulliken charges =  -1.00000   1.00000

 Dipole moment (field-independent basis, Debye):
    X=             -4.1903    Y=              2.7450    Z=              1.9922  Tot=              5.3910
 Quadrupole moment (field-independent basis, Debye-Ang):
   XX=           -128.3616   YY=           -115.7634   ZZ=           -104.1167
   XY=            -12.5777   XZ=              8.2685   YZ=              2.9875

 Summary of Natural Population Analysis:

                                       Natural Population
                Natural  -----------------------------------------------
    Atom  No    Charge         Core      Valence    Rydberg      Total
 -----------------------------------------------------------------------
      C    1   -0.17893      0.99965     2.17228    0.00699     3.17893
      N    2   -0.24994      0.99964     2.73987    0.01042     3.74994
      C    3   -0.10571      0.99959     2.09615    0.00997     3.10571
      C    4   -0.09231      0.99957     2.08453    0.00821     3.09231
      C    5   -0.18309      0.99957     2.17590    0.00762     3.18309
      C    6    0.34722      0.99960     1.63155    0.02163     2.65278
      O    7   -0.31734      0.99988     3.31191    0.00554     4.31734
      C    8    0.13510      0.99949     1.84814    0.01727     2.86490
      N    9   -0.25188      0.99968     2.73913    0.01307     3.75188
      C   10    0.05251      0.99956     1.93495    0.01298     2.94749
      C   11   -0.06389      0.99945     2.05525    0.00920     3.06389
      C   12   -0.03263      0.99955     2.02464    0.00844     3.03263
      C   13   -0.12017      0.99953     2.11282    0.00782     3.12017
      C   14    0.42106      0.99967     1.55452    0.02475     2.57894
      O   15   -0.30384      0.99987     3.29612    0.00785     4.30384
      O   16   -0.35323      0.99988     3.34724    0.00611     4.35323
      H   17    0.08316      0.00000     0.41548    0.00135     0.41684
      H   18    0.11424      0.00000     0.38452    0.00124     0.38576
      H   19    0.08581      0.00000     0.41312    0.00107     0.41419
      H   20    0.12325      0.00000     0.37548    0.00126     0.37675
      H   21    0.09172      0.00000     0.40713    0.00115     0.40828
      H   22    0.08692      0.00000     0.41189    0.00120     0.41308
      H   23    0.08849      0.00000     0.41040    0.00111     0.41151
      H   24    0.09849      0.00000     0.40026    0.00125     0.40151
      H   25    0.09137      0.00000     0.40741    0.00122     0.40863
      H   26    0.09832      0.00000     0.40063    0.00104     0.40168
      H   27    0.10495      0.00000     0.39400    0.00105     0.39505
      H   28    0.23035      0.00000     0.26633    0.00331     0.26965
 =======================================================================
   * Total *    0.00000     15.99420    41.81165    0.19415    58.00000

 Normal termination of Gaussian 16 at Fri Dec 11 01:43:11 2020.
