 Gaussian 16, Revision A.03,

 -----------------------------------------------------------
 # opt freq B3LYP/6-31G(d) empiricaldispersion=gd3bj scf=xqc
 -----------------------------------------------------------

 ------------------------------
 CID_80463766_JID_4405_neutraal
 ------------------------------
 Symbolic Z-matrix:
 Charge =  0 Multiplicity = 1

 SCF Done:  E(RB3LYP) =  -612.346590260     A.U. after   15 cycles
 SCF Done:  E(RB3LYP) =  -612.351254227     A.U. after   13 cycles
 SCF Done:  E(RB3LYP) =  -612.353833529     A.U. after   13 cycles
 SCF Done:  E(RB3LYP) =  -612.354106066     A.U. after   14 cycles
 SCF Done:  E(RB3LYP) =  -612.356777593     A.U. after   13 cycles
 SCF Done:  E(RB3LYP) =  -612.357311629     A.U. after   12 cycles
 SCF Done:  E(RB3LYP) =  -612.357790585     A.U. after   12 cycles
 SCF Done:  E(RB3LYP) =  -612.358031983     A.U. after   12 cycles
 SCF Done:  E(RB3LYP) =  -612.357666059     A.U. after   14 cycles
 SCF Done:  E(RB3LYP) =  -612.358649941     A.U. after   12 cycles
 SCF Done:  E(RB3LYP) =  -612.359130953     A.U. after    9 cycles
 SCF Done:  E(RB3LYP) =  -612.359133431     A.U. after    9 cycles
 SCF Done:  E(RB3LYP) =  -612.359133994     A.U. after    8 cycles
 SCF Done:  E(RB3LYP) =  -612.359134203     A.U. after    8 cycles
 SCF Done:  E(RB3LYP) =  -612.359134246     A.U. after    7 cycles
 Optimization completed.
    -- Stationary point found.
 Normal termination of Gaussian 16 at Thu Dec 10 09:41:52 2020.

 --------------------------------------------------------------------
 #N Geom=AllCheck Guess=TCheck SCRF=Check GenChk RB3LYP/6-31G(d) Freq
 --------------------------------------------------------------------

 Structure from the checkpoint file:  "JID_4405.chk"
 ------------------------------
 CID_80463766_JID_4405_neutraal
 ------------------------------
 Charge =  0 Multiplicity = 1

 SCF Done:  E(RB3LYP) =  -612.359134246     A.U. after    1 cycles

  Exact polarizability: 149.385 -10.920 132.230  11.954  10.010  90.324
 Approx polarizability: 203.223 -27.122 229.818  29.604  20.421 141.654

                      1                      2                      3
                      A                      A                      A
 Frequencies --     28.3985                49.0190                52.4427
 Red. masses --      4.5614                 4.2210                 3.4618
 Frc consts  --      0.0022                 0.0060                 0.0056
 IR Inten    --      1.4148                 1.5255                 0.1944

                      4                      5                      6
                      A                      A                      A
 Frequencies --    118.0077               198.1558               205.5620
 Red. masses --      7.4247                 4.6243                 1.0709
 Frc consts  --      0.0609                 0.1070                 0.0267
 IR Inten    --      2.2712                 1.0149                 0.1260

                      7                      8                      9
                      A                      A                      A
 Frequencies --    213.3453               234.7161               274.7426
 Red. masses --      3.9805                 4.0330                 2.7484
 Frc consts  --      0.1067                 0.1309                 0.1222
 IR Inten    --      6.5033                 1.0479                 0.7061

                     10                     11                     12
                      A                      A                      A
 Frequencies --    283.6445               344.8702               363.2726
 Red. masses --      2.9704                 2.7056                 2.1099
 Frc consts  --      0.1408                 0.1896                 0.1641
 IR Inten    --      6.1188                 0.6050                 1.0190

                     13                     14                     15
                      A                      A                      A
 Frequencies --    375.6806               432.1060               439.1324
 Red. masses --      1.1435                 2.9040                 3.0924
 Frc consts  --      0.0951                 0.3195                 0.3513
 IR Inten    --     41.0560                 5.6283                 5.3785

                     16                     17                     18
                      A                      A                      A
 Frequencies --    459.2747               518.9588               531.7574
 Red. masses --      2.4625                 3.6046                 5.3645
 Frc consts  --      0.3060                 0.5720                 0.8937
 IR Inten    --     21.5416                39.9074                10.1573

                     19                     20                     21
                      A                      A                      A
 Frequencies --    555.0807               591.9596               630.1712
 Red. masses --      2.4221                 2.8097                 3.0159
 Frc consts  --      0.4397                 0.5801                 0.7056
 IR Inten    --    134.0060                55.1733                93.5070

                     22                     23                     24
                      A                      A                      A
 Frequencies --    671.5023               760.3776               765.5797
 Red. masses --      3.6722                 4.6603                 3.6808
 Frc consts  --      0.9756                 1.5875                 1.2711
 IR Inten    --     14.4999                19.5291                 2.2214

                     25                     26                     27
                      A                      A                      A
 Frequencies --    795.0060               803.6094               838.5333
 Red. masses --      1.0524                 3.3575                 2.0108
 Frc consts  --      0.3919                 1.2775                 0.8330
 IR Inten    --      2.6738                10.7403                25.4058

                     28                     29                     30
                      A                      A                      A
 Frequencies --    855.7484               863.5569               882.9713
 Red. masses --      2.0309                 1.5139                 2.3025
 Frc consts  --      0.8763                 0.6652                 1.0576
 IR Inten    --     14.6729                 8.9119                 6.2636

                     31                     32                     33
                      A                      A                      A
 Frequencies --    934.3599               967.2034               974.5216
 Red. masses --      2.2736                 1.4052                 1.4955
 Frc consts  --      1.1695                 0.7745                 0.8368
 IR Inten    --      8.3686                 1.2605                 8.7723

                     34                     35                     36
                      A                      A                      A
 Frequencies --    982.5671               986.3066              1013.6158
 Red. masses --      1.3498                 3.2525                 5.6481
 Frc consts  --      0.7678                 1.8642                 3.4190
 IR Inten    --      0.5939                22.2174                 9.7143

                     37                     38                     39
                      A                      A                      A
 Frequencies --   1055.0115              1069.0521              1085.4845
 Red. masses --      1.2188                 2.5076                 1.3359
 Frc consts  --      0.7993                 1.6885                 0.9274
 IR Inten    --      4.9596                38.8668                 1.9623

                     40                     41                     42
                      A                      A                      A
 Frequencies --   1088.9005              1121.3655              1130.1573
 Red. masses --      1.5357                 1.8936                 1.5493
 Frc consts  --      1.0729                 1.4029                 1.1659
 IR Inten    --      4.8194                35.2704                 3.8938

                     43                     44                     45
                      A                      A                      A
 Frequencies --   1168.7087              1200.4635              1204.6716
 Red. masses --      1.3139                 1.8623                 1.3273
 Frc consts  --      1.0574                 1.5812                 1.1349
 IR Inten    --      1.6757                17.5850                 0.5975

                     46                     47                     48
                      A                      A                      A
 Frequencies --   1225.4762              1304.7895              1331.8344
 Red. masses --      1.3362                 1.8824                 3.2421
 Frc consts  --      1.1823                 1.8882                 3.3883
 IR Inten    --     22.7468                16.9724                 0.8904

                     49                     50                     51
                      A                      A                      A
 Frequencies --   1339.1692              1346.7342              1369.0549
 Red. masses --      2.9619                 1.7814                 2.2254
 Frc consts  --      3.1297                 1.9036                 2.4576
 IR Inten    --      9.9368                24.3300                 7.5883

                     52                     53                     54
                      A                      A                      A
 Frequencies --   1386.2107              1447.7841              1486.5036
 Red. masses --      2.8999                 1.2963                 3.1166
 Frc consts  --      3.2832                 1.6009                 4.0576
 IR Inten    --     60.9275                 1.3251                89.0704

                     55                     56                     57
                      A                      A                      A
 Frequencies --   1501.3835              1504.3820              1516.2918
 Red. masses --      1.1155                 1.1222                 1.0488
 Frc consts  --      1.4815                 1.4963                 1.4208
 IR Inten    --      9.0968                 9.7444                 1.8646

                     58                     59                     60
                      A                      A                      A
 Frequencies --   1528.1592              1537.4832              1541.0680
 Red. masses --      1.0558                 1.3166                 2.1905
 Frc consts  --      1.4527                 1.8337                 3.0650
 IR Inten    --     11.1002                 4.3056                22.8260

                     61                     62                     63
                      A                      A                      A
 Frequencies --   1622.2433              1657.0119              1676.8017
 Red. masses --      6.0063                 2.3030                 1.8386
 Frc consts  --      9.3130                 3.7256                 3.0458
 IR Inten    --     54.1642                52.6641               350.7600

                     64                     65                     66
                      A                      A                      A
 Frequencies --   1773.9794              3060.4835              3076.3244
 Red. masses --     11.4047                 1.0353                 1.0596
 Frc consts  --     21.1461                 5.7137                 5.9082
 IR Inten    --    160.4626                24.6470                 8.7203

                     67                     68                     69
                      A                      A                      A
 Frequencies --   3125.8745              3130.1149              3134.6426
 Red. masses --      1.1034                 1.1026                 1.1026
 Frc consts  --      6.3522                 6.3646                 6.3830
 IR Inten    --      6.9631                20.6962                16.6375

                     70                     71                     72
                      A                      A                      A
 Frequencies --   3156.9553              3164.1110              3171.2568
 Red. masses --      1.0539                 1.0573                 1.0899
 Frc consts  --      6.1887                 6.2369                 6.4579
 IR Inten    --     15.1177                 9.3375                40.2941

                     73                     74                     75
                      A                      A                      A
 Frequencies --   3177.6014              3231.7342              3233.3248
 Red. masses --      1.0906                 1.0932                 1.1181
 Frc consts  --      6.4878                 6.7267                 6.8868
 IR Inten    --      7.1322                 1.8267                 5.7728

                     76                     77                     78
                      A                      A                      A
 Frequencies --   3250.7033              3564.1711              3675.1525
 Red. masses --      1.1154                 1.0469                 1.0999
 Frc consts  --      6.9445                 7.8358                 8.7526
 IR Inten    --      6.1583                31.7972                18.9363

 - Thermochemistry -
 -------------------
 Temperature   298.150 Kelvin.  Pressure   1.00000 Atm.
 Atom     1 has atomic number  6 and mass  12.00000

 Molecular mass:   190.11061 amu.
 Principal axes and moments of inertia in atomic units:
                           1         2         3
     Eigenvalues --  1369.732024400.795345020.06443
           X            0.99993   0.00552  -0.01087
           Y           -0.00522   0.99961   0.02752
           Z            0.01102  -0.02746   0.99956
 This molecule is an asymmetric top.
 Rotational symmetry number  1.
 Warning -- assumption of classical behavior for rotation
           may cause significant error
 Rotational temperatures (Kelvin)      0.06323     0.01968     0.01725
 Rotational constants (GHZ):           1.31759     0.41009     0.35951
 Zero-point vibrational energy     618280.2 (Joules/Mol)
                                  147.77252 (Kcal/Mol)
 Warning -- explicit consideration of  20 degrees of freedom as
           vibrations may cause significant error
 Vibrational temperatures:     40.86    70.53    75.45   169.79   285.10
          (Kelvin)            295.76   306.96   337.70   395.29   408.10
                              496.19   522.67   540.52   621.70   631.81
                              660.79   746.67   765.08   798.64   851.70
                              906.68   966.14  1094.01  1101.50  1143.84
                             1156.21  1206.46  1231.23  1242.47  1270.40
                             1344.34  1391.59  1402.12  1413.69  1419.08
                             1458.37  1517.93  1538.13  1561.77  1566.69
                             1613.39  1626.04  1681.51  1727.20  1733.25
                             1763.19  1877.30  1916.21  1926.77  1937.65
                             1969.76  1994.45  2083.04  2138.75  2160.16
                             2164.47  2181.61  2198.68  2212.10  2217.25
                             2334.05  2384.07  2412.54  2552.36  4403.35
                             4426.14  4497.44  4503.54  4510.05  4542.15
                             4552.45  4562.73  4571.86  4649.74  4652.03
                             4677.04  5128.05  5287.72

 Zero-point correction=                           0.235491 (Hartree/Particle)
 Thermal correction to Energy=                    0.248675
 Thermal correction to Enthalpy=                  0.249619
 Thermal correction to Gibbs Free Energy=         0.195003
 Sum of electronic and zero-point Energies=           -612.123644
 Sum of electronic and thermal Energies=              -612.110460
 Sum of electronic and thermal Enthalpies=            -612.109515
 Sum of electronic and thermal Free Energies=         -612.164131

                     E (Thermal)             CV                S
                      KCal/Mol        Cal/Mol-Kelvin    Cal/Mol-Kelvin
 Total                  156.046             51.187            114.948
 Electronic               0.000              0.000              0.000
 Translational            0.889              2.981             41.633
 Rotational               0.889              2.981             31.782
 Vibrational            154.268             45.225             41.533
 Vibration     1          0.593              1.984              5.938
 Vibration     2          0.595              1.978              4.857
 Vibration     3          0.596              1.977              4.723
 Vibration     4          0.608              1.934              3.133
 Vibration     5          0.637              1.842              2.150
 Vibration     6          0.640              1.832              2.083
 Vibration     7          0.644              1.821              2.015
 Vibration     8          0.655              1.788              1.843
 Vibration     9          0.677              1.720              1.566
 Vibration    10          0.682              1.704              1.512
 Vibration    11          0.723              1.586              1.190
 Vibration    12          0.737              1.548              1.108
 Vibration    13          0.747              1.522              1.057
 Vibration    14          0.793              1.400              0.852
 Vibration    15          0.799              1.385              0.829
 Vibration    16          0.817              1.340              0.768
 Vibration    17          0.874              1.208              0.612
 Vibration    18          0.887              1.180              0.583
 Vibration    19          0.911              1.129              0.534
 Vibration    20          0.949              1.049              0.464

 Optimization completed.
    -- Stationary point found.
 Normal termination of Gaussian 16 at Thu Dec 10 09:49:13 2020.

 ----------------------------------------------------------------------
 # B3LYP/6-311++G(d,p) empiricaldispersion=gd3bj scf=xqc pop=npa geom=c
 heck
 ----------------------------------------------------------------------

 --------------------------------------
 CID_80463766_JID_4405_Energie_neutraal
 --------------------------------------
 Structure from the checkpoint file:  "JID_4405.chk"
 Charge =  0 Multiplicity = 1

 SCF Done:  E(RB3LYP) =  -612.532401866     A.U. after   16 cycles
 Normal termination of Gaussian 16 at Thu Dec 10 09:52:23 2020.

 ----------------------------------------------------------------------
 # B3LYP/6-311++G(d,p) empiricaldispersion=gd3bj scf=xqc pop=npa geom=c
 heck
 ----------------------------------------------------------------------

 ------------------------------------
 CID_80463766_JID_4405_Energie_kation
 ------------------------------------
 Structure from the checkpoint file:  "JID_4405.chk"
 Charge =  1 Multiplicity = 2

 SCF Done:  E(UB3LYP) =  -612.234600851     A.U. after   25 cycles
 Normal termination of Gaussian 16 at Thu Dec 10 09:58:58 2020.
 Gaussian 16:  ES64L-G16RevA.03 25-Dec-2016

 ----------------------------------------------------------------------
 # B3LYP/6-311++G(d,p) empiricaldispersion=gd3bj scf=xqc pop=npa geom=c
 heck
 ----------------------------------------------------------------------

 -----------------------------------
 CID_80463766_JID_4405_Energie_anion
 -----------------------------------
 Structure from the checkpoint file:  "JID_4405.chk"
 Charge = -1 Multiplicity = 2

                         Standard orientation:
 ---------------------------------------------------------------------
 Center     Atomic      Atomic             Coordinates (Angstroms)
 Number     Number       Type             X           Y           Z
 ---------------------------------------------------------------------
      1          6           0       -3.522260    0.233827    1.186331
      2          6           0       -2.465194   -0.347762    0.269404
      3          6           0       -1.712522   -1.593776    0.725291
      4          6           0       -2.734268   -1.717330   -0.355629
      5          6           0       -1.732894    0.670816   -0.542043
      6          8           0       -2.045674    1.849954   -0.486184
      7          6           0       -0.543915    0.255718   -1.418329
      8          6           0        0.763394    0.373437   -0.657439
      9          6           0        1.663298   -0.685416   -0.624085
     10          6           0        2.870705   -0.536944    0.087287
     11          7           0        3.192502    0.587410    0.742273
     12          6           0        2.308520    1.592860    0.705086
     13          6           0        1.094341    1.550439    0.030577
     14          7           0        3.774269   -1.581898    0.186034
     15          1           0       -4.274561    0.784659    0.613956
     16          1           0       -3.074312    0.932912    1.899307
     17          1           0       -4.023157   -0.561787    1.747508
     18          1           0       -0.661882   -1.683233    0.472009
     19          1           0       -1.961999   -1.956836    1.718062
     20          1           0       -3.696141   -2.161211   -0.115983
     21          1           0       -2.404879   -1.901404   -1.373367
     22          1           0       -0.648619   -0.758812   -1.811816
     23          1           0       -0.537376    0.948620   -2.266073
     24          1           0        1.443076   -1.618087   -1.137791
     25          1           0        2.598353    2.490341    1.249028
     26          1           0        0.417735    2.397135    0.036042
     27          1           0        4.689125   -1.289018    0.505608
     28          1           0        3.797406   -2.236706   -0.583876
 ---------------------------------------------------------------------

 SCF Done:  E(UB3LYP) =  -612.524944015     A.U. after   33 cycles
 SCF Done:  E(UB3LYP) =  -612.524944015     a.u. after    1 cycles

 The electronic state is 2-A.
 Alpha  occ. eigenvalues --  -18.97843 -14.20316 -14.17668 -10.12576 -10.12323
 Alpha  occ. eigenvalues --  -10.08916 -10.08126 -10.08099 -10.07642 -10.07178
 Alpha  occ. eigenvalues --  -10.06559 -10.06239 -10.04731 -10.04487  -0.91627
 Alpha  occ. eigenvalues --   -0.84356  -0.77253  -0.77079  -0.70111  -0.62114
 Alpha  occ. eigenvalues --   -0.61907  -0.61287  -0.52276  -0.51175  -0.51097
 Alpha  occ. eigenvalues --   -0.48228  -0.41925  -0.41458  -0.39479  -0.38223
 Alpha  occ. eigenvalues --   -0.36885  -0.36218  -0.33592  -0.32481  -0.31980
 Alpha  occ. eigenvalues --   -0.31475  -0.29964  -0.29261  -0.28807  -0.28557
 Alpha  occ. eigenvalues --   -0.26900  -0.26364  -0.25016  -0.23924  -0.21097
 Alpha  occ. eigenvalues --   -0.20146  -0.18231  -0.16187  -0.14579  -0.12582
 Alpha  occ. eigenvalues --   -0.10331   0.04768
 Alpha virt. eigenvalues --    0.06977   0.07106   0.08582   0.09084   0.09386
 Alpha virt. eigenvalues --    0.09698   0.10140   0.10731   0.11216   0.11415
 Alpha virt. eigenvalues --    0.11955   0.12792   0.13336   0.13977   0.14512

  Beta  occ. eigenvalues --  -18.97654 -14.20277 -14.17572 -10.12358 -10.12342
  Beta  occ. eigenvalues --  -10.08940 -10.08093 -10.08030 -10.07605 -10.07058
  Beta  occ. eigenvalues --  -10.06553 -10.06258 -10.04647 -10.04516  -0.91253
  Beta  occ. eigenvalues --   -0.84246  -0.77175  -0.76975  -0.69899  -0.61992
  Beta  occ. eigenvalues --   -0.61884  -0.61085  -0.52013  -0.51066  -0.51011
  Beta  occ. eigenvalues --   -0.48106  -0.41807  -0.41360  -0.39340  -0.38089
  Beta  occ. eigenvalues --   -0.36772  -0.36104  -0.33478  -0.32283  -0.31844
  Beta  occ. eigenvalues --   -0.31344  -0.29915  -0.29027  -0.28648  -0.28346
  Beta  occ. eigenvalues --   -0.26826  -0.26233  -0.24826  -0.23378  -0.21001
  Beta  occ. eigenvalues --   -0.19974  -0.17927  -0.15641  -0.14461  -0.12387
  Beta  occ. eigenvalues --   -0.10105
  Beta virt. eigenvalues --    0.06906   0.08097   0.08622   0.08792   0.09218
  Beta virt. eigenvalues --    0.09548   0.09994   0.10934   0.11213   0.11623
  Beta virt. eigenvalues --    0.11683   0.12074   0.12853   0.13614   0.13932

 Mulliken charges and spin densities:
               1          2
     1  C   -0.228366  -0.191449
     2  C   -0.042904   0.608905
     3  C   -0.138060  -0.289880
     4  C   -0.293277  -0.205544
     5  C   -0.262072   0.086394
     6  O   -0.297826   0.075830
     7  C    1.595838  -2.077526
     8  C    1.145410  -0.782485
     9  C   -1.774106   2.075666
    10  C    1.095978  -1.735964
    11  N   -0.122869  -0.003219
    12  C   -0.298897  -0.187135
    13  C   -0.737900   0.825726
    14  N   -0.340692   0.071057
    15  H    0.115893   0.048033
    16  H    0.165226  -0.001461
    17  H    0.043879   0.063797
    18  H    0.318368  -0.180677
    19  H   -0.046067   0.207678
    20  H    0.155355  -0.014118
    21  H   -0.031431   0.181636
    22  H    0.161296  -0.021046
    23  H   -0.078234   0.294761
    24  H   -1.200827   1.393548
    25  H    0.105452   0.034353
    26  H    0.178022   0.031060
    27  H    0.147598   0.103636
    28  H   -0.334787   0.588423
 Sum of Mulliken charges =  -1.00000   1.00000

 Dipole moment (field-independent basis, Debye):
    X=             -4.9070    Y=              1.4396    Z=              2.9760  Tot=              5.9168
 Quadrupole moment (field-independent basis, Debye-Ang):
   XX=           -134.5025   YY=           -121.9417   ZZ=           -110.7252
   XY=             16.4135   XZ=              2.8707   YZ=             -3.8247

 Summary of Natural Population Analysis:

                                       Natural Population
                Natural  -----------------------------------------------
    Atom  No    Charge         Core      Valence    Rydberg      Total
 -----------------------------------------------------------------------
      C    1   -0.27744      0.99963     2.27204    0.00577     3.27744
      C    2   -0.08445      0.99952     2.07405    0.01089     3.08445
      C    3   -0.18607      0.99960     2.17758    0.00890     3.18607
      C    4   -0.18465      0.99960     2.17673    0.00833     3.18465
      C    5    0.32206      0.99958     1.65592    0.02243     2.67794
      O    6   -0.28507      0.99988     3.27944    0.00575     4.28507
      C    7   -0.24432      0.99956     2.23423    0.01053     3.24432
      C    8    0.03028      0.99950     1.96023    0.00999     2.96972
      C    9   -0.13658      0.99945     2.12664    0.01049     3.13658
      C   10    0.19635      0.99955     1.78803    0.01608     2.80365
      N   11   -0.26009      0.99967     2.74992    0.01049     3.76009
      C   12    0.04422      0.99959     1.94189    0.01430     2.95578
      C   13   -0.15428      0.99949     2.14553    0.00926     3.15428
      N   14   -0.39805      0.99971     2.88797    0.01037     3.89805
      H   15    0.10369      0.00000     0.39532    0.00099     0.39631
      H   16    0.10464      0.00000     0.39444    0.00092     0.39536
      H   17    0.09225      0.00000     0.40688    0.00086     0.40775
      H   18    0.11383      0.00000     0.38490    0.00127     0.38617
      H   19    0.10108      0.00000     0.39811    0.00082     0.39892
      H   20    0.09886      0.00000     0.40035    0.00079     0.40114
      H   21    0.10450      0.00000     0.39455    0.00095     0.39550
      H   22    0.10403      0.00000     0.39410    0.00187     0.39597
      H   23    0.11923      0.00000     0.37926    0.00151     0.38077
      H   24    0.10411      0.00000     0.39300    0.00289     0.39589
      H   25    0.08308      0.00000     0.41594    0.00098     0.41692
      H   26    0.11100      0.00000     0.38796    0.00105     0.38900
      H   27    0.18692      0.00000     0.31068    0.00240     0.31308
      H   28    0.19085      0.00000     0.30329    0.00585     0.30915
 =======================================================================
   * Total *   -0.00000     13.99434    36.82895    0.17671    51.00000

 Normal termination of Gaussian 16 at Thu Dec 10 10:08:05 2020.
