 Gaussian 16, Revision A.03,

 -----------------------------------------------------------
 # opt freq B3LYP/6-31G(d) empiricaldispersion=gd3bj scf=xqc
 -----------------------------------------------------------

 -------------------------------
 CID_114799136_JID_7677_neutraal
 -------------------------------
 Symbolic Z-matrix:
 Charge =  0 Multiplicity = 1

 SCF Done:  E(RB3LYP) =  -841.679418028     A.U. after   14 cycles
 SCF Done:  E(RB3LYP) =  -841.684927210     A.U. after   13 cycles
 SCF Done:  E(RB3LYP) =  -841.684243400     A.U. after   12 cycles
 SCF Done:  E(RB3LYP) =  -841.686176189     A.U. after   12 cycles
 SCF Done:  E(RB3LYP) =  -841.686469934     A.U. after   12 cycles
 SCF Done:  E(RB3LYP) =  -841.687097479     A.U. after   12 cycles
 SCF Done:  E(RB3LYP) =  -841.687328395     A.U. after   12 cycles
 SCF Done:  E(RB3LYP) =  -841.687534485     A.U. after   12 cycles
 SCF Done:  E(RB3LYP) =  -841.688040954     A.U. after   12 cycles
 SCF Done:  E(RB3LYP) =  -841.689051149     A.U. after   12 cycles
 SCF Done:  E(RB3LYP) =  -841.690922380     A.U. after    9 cycles
 SCF Done:  E(RB3LYP) =  -841.690924187     A.U. after    9 cycles
 SCF Done:  E(RB3LYP) =  -841.690924738     A.U. after    8 cycles
 SCF Done:  E(RB3LYP) =  -841.690924833     A.U. after    7 cycles
 SCF Done:  E(RB3LYP) =  -841.690924868     A.U. after    7 cycles
 Optimization completed.
    -- Stationary point found.
 Normal termination of Gaussian 16 at Sun Dec 13 12:42:20 2020.

 --------------------------------------------------------------------
 #N Geom=AllCheck Guess=TCheck SCRF=Check GenChk RB3LYP/6-31G(d) Freq
 --------------------------------------------------------------------

 Structure from the checkpoint file:  "JID_7677.chk"
 -------------------------------
 CID_114799136_JID_7677_neutraal
 -------------------------------
 Charge =  0 Multiplicity = 1

 SCF Done:  E(RB3LYP) =  -841.690924868     A.U. after    1 cycles

  Exact polarizability: 166.715   3.324 128.538   0.629   6.461 116.204
 Approx polarizability: 204.233   9.235 189.980   2.475  15.090 182.920

                      1                      2                      3
                      A                      A                      A
 Frequencies --     17.4982                34.7208                48.6192
 Red. masses --      5.5892                 4.8390                 7.6393
 Frc consts  --      0.0010                 0.0034                 0.0106
 IR Inten    --      0.3109                 0.8401                 5.4920

                      4                      5                      6
                      A                      A                      A
 Frequencies --     61.6330                65.6963                95.1127
 Red. masses --      3.5820                 6.3302                 2.6048
 Frc consts  --      0.0080                 0.0161                 0.0139
 IR Inten    --      0.5648                 1.1539                 3.2570

                      7                      8                      9
                      A                      A                      A
 Frequencies --    114.9495               129.0182               145.1199
 Red. masses --      3.4364                 2.7431                 6.2777
 Frc consts  --      0.0268                 0.0269                 0.0779
 IR Inten    --      2.3229                 0.1820                 1.4617

                     10                     11                     12
                      A                      A                      A
 Frequencies --    176.9129               187.2581               205.9582
 Red. masses --      2.4723                 2.5481                 1.5937
 Frc consts  --      0.0456                 0.0526                 0.0398
 IR Inten    --     11.7350                 2.9651                 0.2495

                     13                     14                     15
                      A                      A                      A
 Frequencies --    233.1856               243.6219               272.0329
 Red. masses --      1.2300                 2.2050                 2.7321
 Frc consts  --      0.0394                 0.0771                 0.1191
 IR Inten    --      0.0305                 1.2831                 2.8097

                     16                     17                     18
                      A                      A                      A
 Frequencies --    277.0829               300.1595               325.3904
 Red. masses --      2.2984                 2.5972                 1.2767
 Frc consts  --      0.1040                 0.1379                 0.0796
 IR Inten    --      2.5080                 7.9920               111.8204

                     19                     20                     21
                      A                      A                      A
 Frequencies --    357.7038               385.5128               405.3284
 Red. masses --      3.2180                 5.0491                 2.8019
 Frc consts  --      0.2426                 0.4421                 0.2712
 IR Inten    --     11.0603                15.6950                 5.3360

                     22                     23                     24
                      A                      A                      A
 Frequencies --    438.4012               446.1228               496.7147
 Red. masses --      1.9720                 3.3378                 3.3578
 Frc consts  --      0.2233                 0.3914                 0.4881
 IR Inten    --      7.6823                 2.7537                 6.6231

                     25                     26                     27
                      A                      A                      A
 Frequencies --    532.7203               551.4283               573.6532
 Red. masses --      4.3992                 4.0100                 2.6377
 Frc consts  --      0.7356                 0.7184                 0.5114
 IR Inten    --     15.8288                18.7865                14.4205

                     28                     29                     30
                      A                      A                      A
 Frequencies --    612.3999               645.5420               681.6000
 Red. masses --      3.1016                 1.9096                 4.1068
 Frc consts  --      0.6853                 0.4689                 1.1241
 IR Inten    --     23.9985                67.5551                 3.1974

                     31                     32                     33
                      A                      A                      A
 Frequencies --    731.9705               778.3686               782.1213
 Red. masses --      3.0057                 3.7952                 5.2421
 Frc consts  --      0.9488                 1.3547                 1.8893
 IR Inten    --     61.5318                17.0740                13.0231

                     34                     35                     36
                      A                      A                      A
 Frequencies --    813.0779               832.3533               859.4289
 Red. masses --      1.7309                 2.4215                 1.5584
 Frc consts  --      0.6742                 0.9884                 0.6782
 IR Inten    --      3.6097                 8.6396                 3.7629

                     37                     38                     39
                      A                      A                      A
 Frequencies --    897.6135               913.2373               932.9861
 Red. masses --      2.7569                 2.5697                 1.9134
 Frc consts  --      1.3087                 1.2627                 0.9813
 IR Inten    --     12.8093                 8.8953                 5.5277

                     40                     41                     42
                      A                      A                      A
 Frequencies --    965.3377               992.4286              1025.8283
 Red. masses --      1.4887                 2.3402                 1.8002
 Frc consts  --      0.8174                 1.3580                 1.1161
 IR Inten    --     13.3717                 1.0002                 4.2807

                     43                     44                     45
                      A                      A                      A
 Frequencies --   1048.5402              1069.0285              1078.7249
 Red. masses --      2.0265                 2.0277                 2.4739
 Frc consts  --      1.3127                 1.3653                 1.6961
 IR Inten    --     16.6161                10.4439                53.1581

                     46                     47                     48
                      A                      A                      A
 Frequencies --   1101.7447              1115.2979              1119.1189
 Red. masses --      2.3090                 2.2326                 2.6129
 Frc consts  --      1.6514                 1.6362                 1.9281
 IR Inten    --     24.8660               106.1319                 8.4521

                     49                     50                     51
                      A                      A                      A
 Frequencies --   1134.6914              1139.8207              1162.5058
 Red. masses --      2.0788                 2.1916                 1.3625
 Frc consts  --      1.5769                 1.6776                 1.0849
 IR Inten    --     64.3282                17.3380                13.9398

                     52                     53                     54
                      A                      A                      A
 Frequencies --   1172.5457              1198.7883              1211.7753
 Red. masses --      2.5852                 2.0268                 1.5937
 Frc consts  --      2.0941                 1.7161                 1.3788
 IR Inten    --     13.6259                95.4936               100.3906

                     55                     56                     57
                      A                      A                      A
 Frequencies --   1216.2690              1235.6662              1257.1082
 Red. masses --      1.3630                 1.3584                 2.6651
 Frc consts  --      1.1880                 1.2220                 2.4815
 IR Inten    --     82.5378                 9.1470                56.2624

                     58                     59                     60
                      A                      A                      A
 Frequencies --   1272.0616              1300.7453              1316.9235
 Red. masses --      1.3189                 1.4647                 1.5394
 Frc consts  --      1.2575                 1.4601                 1.5730
 IR Inten    --     27.5553                21.9166                 2.9339

                     61                     62                     63
                      A                      A                      A
 Frequencies --   1327.3755              1337.4467              1343.6303
 Red. masses --      1.4130                 1.3265                 1.4197
 Frc consts  --      1.4668                 1.3980                 1.5101
 IR Inten    --      6.3166                18.7001                 4.2847

                     64                     65                     66
                      A                      A                      A
 Frequencies --   1371.2049              1381.1839              1384.1239
 Red. masses --      1.7766                 1.3106                 1.4636
 Frc consts  --      1.9681                 1.4730                 1.6520
 IR Inten    --    152.8248                 8.6108                17.2438

                     67                     68                     69
                      A                      A                      A
 Frequencies --   1399.1120              1403.8084              1411.6934
 Red. masses --      2.2969                 1.2767                 1.3432
 Frc consts  --      2.6491                 1.4823                 1.5771
 IR Inten    --     63.4147                 8.1253                13.5287

                     70                     71                     72
                      A                      A                      A
 Frequencies --   1426.3960              1432.3188              1439.2987
 Red. masses --      1.6147                 1.3574                 1.2876
 Frc consts  --      1.9356                 1.6408                 1.5716
 IR Inten    --     23.4580                36.6574                44.6311

                     73                     74                     75
                      A                      A                      A
 Frequencies --   1448.2477              1499.3527              1504.6755
 Red. masses --      1.6427                 1.3914                 1.0972
 Frc consts  --      2.0300                 1.8429                 1.4636
 IR Inten    --    114.3658               100.6739                 6.1523

                     76                     77                     78
                      A                      A                      A
 Frequencies --   1515.6791              1517.0962              1527.3486
 Red. masses --      1.0914                 1.0744                 1.0611
 Frc consts  --      1.4772                 1.4569                 1.4584
 IR Inten    --     22.0271                11.9025                 6.3328

                     79                     80                     81
                      A                      A                      A
 Frequencies --   1528.3981              1537.9174              1539.8157
 Red. masses --      1.0800                 1.0882                 1.0718
 Frc consts  --      1.4865                 1.5165                 1.4973
 IR Inten    --      7.3191                 1.4758                20.8526

                     82                     83                     84
                      A                      A                      A
 Frequencies --   1545.2607              1561.7558              1738.3758
 Red. masses --      1.0981                 1.1434                10.1253
 Frc consts  --      1.5449                 1.6431                18.0279
 IR Inten    --     31.3202                46.5344               272.8084

                     85                     86                     87
                      A                      A                      A
 Frequencies --   1839.1112              2994.4034              3023.1540
 Red. masses --     10.2164                 1.0721                 1.0752
 Frc consts  --     20.3593                 5.6637                 5.7896
 IR Inten    --    259.6899                49.7482                19.3048

                     88                     89                     90
                      A                      A                      A
 Frequencies --   3024.4325              3024.9613              3032.5833
 Red. masses --      1.0480                 1.0670                 1.0757
 Frc consts  --      5.6480                 5.7526                 5.8286
 IR Inten    --     32.5548                 0.4357                36.0417

                     91                     92                     93
                      A                      A                      A
 Frequencies --   3038.1183              3050.7482              3063.6500
 Red. masses --      1.0756                 1.0670                 1.0640
 Frc consts  --      5.8494                 5.8512                 5.8840
 IR Inten    --     46.5325                44.7409                68.1047

                     94                     95                     96
                      A                      A                      A
 Frequencies --   3069.6464              3076.9422              3079.2433
 Red. masses --      1.0411                 1.1004                 1.0982
 Frc consts  --      5.7798                 6.1383                 6.1350
 IR Inten    --     19.8125                42.9797                45.8947

                     97                     98                     99
                      A                      A                      A
 Frequencies --   3101.7258              3103.1831              3123.2730
 Red. masses --      1.0975                 1.0957                 1.1035
 Frc consts  --      6.2207                 6.2165                 6.3420
 IR Inten    --     26.1388                41.7483                21.0498

                    100                    101                    102
                      A                      A                      A
 Frequencies --   3138.7401              3169.3135              3176.6095
 Red. masses --      1.0991                 1.0964                 1.0923
 Frc consts  --      6.3795                 6.4883                 6.4938
 IR Inten    --     23.3848                 8.8355                 2.4883

                    103                    104                    105
                      A                      A                      A
 Frequencies --   3185.0321              3687.0275              3750.1925
 Red. masses --      1.1018                 1.0639                 1.0660
 Frc consts  --      6.5852                 8.5216                 8.8328
 IR Inten    --      4.7635                52.0390                 7.8864

 - Thermochemistry -
 -------------------
 Temperature   298.150 Kelvin.  Pressure   1.00000 Atm.
 Atom     1 has atomic number  6 and mass  12.00000

 Molecular mass:   244.14231 amu.
 Principal axes and moments of inertia in atomic units:
                           1         2         3
     Eigenvalues --  2211.032197069.092978005.02601
           X            0.99999  -0.00487   0.00160
           Y            0.00482   0.99951   0.03108
           Z           -0.00176  -0.03108   0.99952
 This molecule is an asymmetric top.
 Rotational symmetry number  1.
 Warning -- assumption of classical behavior for rotation
           may cause significant error
 Rotational temperatures (Kelvin)      0.03917     0.01225     0.01082
 Rotational constants (GHZ):           0.81624     0.25530     0.22545
 Zero-point vibrational energy     841039.4 (Joules/Mol)
                                  201.01325 (Kcal/Mol)
 Warning -- explicit consideration of  28 degrees of freedom as
           vibrations may cause significant error
 Vibrational temperatures:     25.18    49.96    69.95    88.68    94.52
          (Kelvin)            136.85   165.39   185.63   208.80   254.54
                              269.42   296.33   335.50   350.52   391.39
                              398.66   431.86   468.16   514.66   554.67
                              583.18   630.76   641.87   714.66   766.47
                              793.38   825.36   881.11   928.79   980.67
                             1053.14  1119.90  1125.30  1169.84  1197.57
                             1236.53  1291.47  1313.94  1342.36  1388.91
                             1427.88  1475.94  1508.62  1538.09  1552.04
                             1585.16  1604.66  1610.16  1632.57  1639.95
                             1672.59  1687.03  1724.79  1743.47  1749.94
                             1777.85  1808.70  1830.21  1871.48  1894.76
                             1909.80  1924.29  1933.18  1972.86  1987.22
                             1991.45  2013.01  2019.77  2031.11  2052.27
                             2060.79  2070.83  2083.71  2157.23  2164.89
                             2180.72  2182.76  2197.51  2199.02  2212.72
                             2215.45  2223.29  2247.02  2501.14  2646.07
                             4308.28  4349.64  4351.48  4352.24  4363.21
                             4371.17  4389.35  4407.91  4416.54  4427.03
                             4430.34  4462.69  4464.79  4493.69  4515.95
                             4559.94  4570.43  4582.55  5304.81  5395.69

 Zero-point correction=                           0.320335 (Hartree/Particle)
 Thermal correction to Energy=                    0.338588
 Thermal correction to Enthalpy=                  0.339532
 Thermal correction to Gibbs Free Energy=         0.272312
 Sum of electronic and zero-point Energies=           -841.370590
 Sum of electronic and thermal Energies=              -841.352337
 Sum of electronic and thermal Enthalpies=            -841.351393
 Sum of electronic and thermal Free Energies=         -841.418613

                     E (Thermal)             CV                S
                      KCal/Mol        Cal/Mol-Kelvin    Cal/Mol-Kelvin
 Total                  212.467             66.950            141.477
 Electronic               0.000              0.000              0.000
 Translational            0.889              2.981             42.379
 Rotational               0.889              2.981             33.192
 Vibrational            210.690             60.988             65.907
 Vibration     1          0.593              1.986              6.900
 Vibration     2          0.594              1.983              5.540
 Vibration     3          0.595              1.978              4.873
 Vibration     4          0.597              1.973              4.404
 Vibration     5          0.597              1.971              4.278
 Vibration     6          0.603              1.953              3.552
 Vibration     7          0.608              1.937              3.184
 Vibration     8          0.612              1.924              2.961
 Vibration     9          0.617              1.908              2.735
 Vibration    10          0.628              1.871              2.361
 Vibration    11          0.632              1.857              2.255
 Vibration    12          0.640              1.831              2.079
 Vibration    13          0.654              1.790              1.854
 Vibration    14          0.659              1.773              1.776
 Vibration    15          0.675              1.725              1.583
 Vibration    16          0.678              1.716              1.552
 Vibration    17          0.693              1.673              1.416
 Vibration    18          0.709              1.625              1.283
 Vibration    19          0.733              1.559              1.132
 Vibration    20          0.754              1.501              1.017
 Vibration    21          0.770              1.459              0.943
 Vibration    22          0.799              1.386              0.832
 Vibration    23          0.805              1.369              0.808
 Vibration    24          0.852              1.257              0.666
 Vibration    25          0.888              1.178              0.581
 Vibration    26          0.907              1.137              0.541
 Vibration    27          0.930              1.088              0.497
 Vibration    28          0.972              1.006              0.429

 Optimization completed.
    -- Stationary point found.
 Normal termination of Gaussian 16 at Sun Dec 13 12:56:16 2020.

 ----------------------------------------------------------------------
 # B3LYP/6-311++G(d,p) empiricaldispersion=gd3bj scf=xqc pop=npa geom=c
 heck
 ----------------------------------------------------------------------

 ---------------------------------------
 CID_114799136_JID_7677_Energie_neutraal
 ---------------------------------------
 Structure from the checkpoint file:  "JID_7677.chk"
 Charge =  0 Multiplicity = 1

 SCF Done:  E(RB3LYP) =  -841.951640562     A.U. after   15 cycles
 Normal termination of Gaussian 16 at Sun Dec 13 13:03:30 2020.

 ----------------------------------------------------------------------
 # B3LYP/6-311++G(d,p) empiricaldispersion=gd3bj scf=xqc pop=npa geom=c
 heck
 ----------------------------------------------------------------------

 -------------------------------------
 CID_114799136_JID_7677_Energie_kation
 -------------------------------------
 Structure from the checkpoint file:  "JID_7677.chk"
 Charge =  1 Multiplicity = 2

 SCF Done:  E(UB3LYP) =  -841.643826211     A.U. after   29 cycles
 Normal termination of Gaussian 16 at Sun Dec 13 13:23:51 2020.
 Gaussian 16:  ES64L-G16RevA.03 25-Dec-2016

 ----------------------------------------------------------------------
 # B3LYP/6-311++G(d,p) empiricaldispersion=gd3bj scf=xqc pop=npa geom=c
 heck
 ----------------------------------------------------------------------

 ------------------------------------
 CID_114799136_JID_7677_Energie_anion
 ------------------------------------
 Structure from the checkpoint file:  "JID_7677.chk"
 Charge = -1 Multiplicity = 2

                         Standard orientation:
 ---------------------------------------------------------------------
 Center     Atomic      Atomic             Coordinates (Angstroms)
 Number     Number       Type             X           Y           Z
 ---------------------------------------------------------------------
      1          6           0       -3.964189   -0.022513   -1.017219
      2          6           0       -3.047365   -0.072874    0.209578
      3          6           0       -2.439478   -1.449102    0.504527
      4          8           0       -1.443030   -1.638823    1.166182
      5          8           0       -3.195471   -2.455718    0.017938
      6          7           0       -1.977164    0.912440    0.185941
      7          6           0       -2.191982    2.172952    0.873283
      8          6           0       -0.891196    0.636778   -0.621559
      9          8           0       -0.957934   -0.206668   -1.516305
     10          7           0        0.261165    1.361248   -0.325386
     11          6           0        0.704380    1.391239    1.096226
     12          6           0        2.180131    0.936595    1.073259
     13          6           0        2.347286    0.235882   -0.287260
     14          6           0        1.427351    1.081381   -1.174302
     15          6           0        3.785291    0.121024   -0.790280
     16          6           0        4.690301   -0.716106    0.117256
     17          8           0        4.268129   -2.069797    0.233130
     18          1           0       -3.396624   -0.282017   -1.911219
     19          1           0       -4.359945    0.992645   -1.129538
     20          1           0       -4.804160   -0.712820   -0.905651
     21          1           0       -3.646135    0.150270    1.104293
     22          1           0       -2.745090   -3.279445    0.283620
     23          1           0       -2.069821    2.083942    1.961527
     24          1           0       -1.484141    2.912214    0.497759
     25          1           0       -3.205930    2.538175    0.668358
     26          1           0        0.082349    0.702941    1.674464
     27          1           0        0.599959    2.393338    1.525868
     28          1           0        2.850832    1.804016    1.120243
     29          1           0        2.414437    0.295958    1.929118
     30          1           0        1.894260   -0.764222   -0.232803
     31          1           0        1.918237    2.027153   -1.443498
     32          1           0        1.103179    0.572927   -2.080895
     33          1           0        3.786134   -0.326722   -1.792060
     34          1           0        4.217975    1.128136   -0.884396
     35          1           0        5.699251   -0.761251   -0.304459
     36          1           0        4.773526   -0.241682    1.108818
     37          1           0        3.406962   -2.072867    0.677954
 ---------------------------------------------------------------------

 SCF Done:  E(UB3LYP) =  -841.941864568     A.U. after   33 cycles
 SCF Done:  E(UB3LYP) =  -841.941864568     a.u. after    1 cycles

 The electronic state is 2-A.
 Alpha  occ. eigenvalues --  -19.08113 -19.04270 -19.02015 -18.98592 -14.24055
 Alpha  occ. eigenvalues --  -14.23325 -10.21303 -10.19337 -10.13461 -10.13258
 Alpha  occ. eigenvalues --  -10.10652 -10.10351 -10.10262 -10.08870 -10.08556
 Alpha  occ. eigenvalues --  -10.08171 -10.06609  -1.02094  -0.95400  -0.94316
 Alpha  occ. eigenvalues --   -0.92824  -0.84963  -0.83674  -0.72259  -0.68611
 Alpha  occ. eigenvalues --   -0.65845  -0.63485  -0.60906  -0.57657  -0.55813
 Alpha  occ. eigenvalues --   -0.53659  -0.51592  -0.48261  -0.45234  -0.43701
 Alpha  occ. eigenvalues --   -0.42719  -0.40751  -0.39883  -0.39075  -0.38560
 Alpha  occ. eigenvalues --   -0.38192  -0.36209  -0.35562  -0.34474  -0.34020
 Alpha  occ. eigenvalues --   -0.33020  -0.32774  -0.32337  -0.31195  -0.30454
 Alpha  occ. eigenvalues --   -0.30393  -0.29912  -0.28544  -0.28109  -0.27090
 Alpha  occ. eigenvalues --   -0.26752  -0.26414  -0.24868  -0.24022  -0.23838
 Alpha  occ. eigenvalues --   -0.23237  -0.19681  -0.19012  -0.17946  -0.14681
 Alpha  occ. eigenvalues --   -0.14501   0.03956
 Alpha virt. eigenvalues --    0.05619   0.06327   0.07226   0.07360   0.08189
 Alpha virt. eigenvalues --    0.08547   0.08636   0.09484   0.09770   0.10491
 Alpha virt. eigenvalues --    0.10669   0.11211   0.11720   0.11822   0.12862

  Beta  occ. eigenvalues --  -19.08086 -19.04265 -19.01999 -18.98589 -14.24052
  Beta  occ. eigenvalues --  -14.23326 -10.21271 -10.19336 -10.13450 -10.13240
  Beta  occ. eigenvalues --  -10.10632 -10.10303 -10.10253 -10.08868 -10.08547
  Beta  occ. eigenvalues --  -10.08149 -10.06591  -1.02041  -0.95395  -0.94303
  Beta  occ. eigenvalues --   -0.92788  -0.84954  -0.83662  -0.72243  -0.68568
  Beta  occ. eigenvalues --   -0.65814  -0.63456  -0.60848  -0.57600  -0.55769
  Beta  occ. eigenvalues --   -0.53614  -0.51544  -0.48224  -0.45195  -0.43657
  Beta  occ. eigenvalues --   -0.42696  -0.40703  -0.39851  -0.39030  -0.38527
  Beta  occ. eigenvalues --   -0.38152  -0.36169  -0.35531  -0.34439  -0.33971
  Beta  occ. eigenvalues --   -0.32996  -0.32744  -0.32310  -0.31175  -0.30417
  Beta  occ. eigenvalues --   -0.30361  -0.29876  -0.28517  -0.28085  -0.27064
  Beta  occ. eigenvalues --   -0.26719  -0.26389  -0.24851  -0.24005  -0.23809
  Beta  occ. eigenvalues --   -0.23180  -0.19665  -0.18980  -0.17941  -0.14666
  Beta  occ. eigenvalues --   -0.14486
  Beta virt. eigenvalues --    0.06013   0.06491   0.07151   0.07557   0.07949
  Beta virt. eigenvalues --    0.08386   0.08902   0.09017   0.09843   0.10299
  Beta virt. eigenvalues --    0.10802   0.10847   0.11459   0.11882   0.12110

 Mulliken charges and spin densities:
               1          2
     1  C    0.843998  -1.230537
     2  C   -0.701836   0.371110
     3  C    0.323074  -0.209404
     4  O   -0.257499   0.001051
     5  O   -0.159752   0.028821
     6  N    0.133106   0.081581
     7  C    0.997995  -1.316198
     8  C   -0.904758   0.195149
     9  O   -0.250617  -0.011143
    10  N    0.237766   0.050978
    11  C   -0.387566   0.299655
    12  C    1.283384  -2.070226
    13  C   -0.439796   0.949538
    14  C   -0.277770  -0.314789
    15  C    0.160052  -0.302052
    16  C    0.006128  -0.561637
    17  O   -0.244260   0.001548
    18  H    0.162745   0.042683
    19  H   -0.007082   0.131941
    20  H   -0.027834   0.190447
    21  H   -0.664159   0.888656
    22  H   -0.048545   0.336913
    23  H   -0.190174   0.391409
    24  H   -0.217495   0.412972
    25  H   -0.637594   0.799076
    26  H    0.323236  -0.137295
    27  H   -0.289995   0.462316
    28  H   -0.205765   0.396993
    29  H   -0.069984   0.242733
    30  H    0.080190   0.047115
    31  H   -0.103415   0.277429
    32  H    0.215195  -0.006983
    33  H    0.166502  -0.000964
    34  H   -0.071771   0.183605
    35  H    0.013279   0.168522
    36  H    0.002057   0.156046
    37  H    0.208957   0.052944
 Sum of Mulliken charges =  -1.00000   1.00000

 Dipole moment (field-independent basis, Debye):
    X=              3.1086    Y=             -2.0193    Z=             -2.7553  Tot=              4.6188
 Quadrupole moment (field-independent basis, Debye-Ang):
   XX=           -186.1092   YY=           -155.5797   ZZ=           -138.7519
   XY=              7.2889   XZ=              3.5421   YZ=             -7.2014

 Summary of Natural Population Analysis:

                                       Natural Population
                Natural  -----------------------------------------------
    Atom  No    Charge         Core      Valence    Rydberg      Total
 -----------------------------------------------------------------------
      C    1   -0.29180      0.99964     2.28524    0.00692     3.29180
      C    2   -0.04517      0.99954     2.03085    0.01477     3.04517
      C    3    0.41706      0.99969     1.55745    0.02579     2.58294
      O    4   -0.30915      0.99986     3.30329    0.00600     4.30915
      O    5   -0.34277      0.99987     3.33655    0.00634     4.34277
      N    6   -0.26818      0.99963     2.75530    0.01324     3.76818
      C    7   -0.17544      0.99963     2.16742    0.00839     3.17544
      C    8    0.42545      0.99962     1.55074    0.02419     2.57455
      O    9   -0.34172      0.99988     3.33753    0.00431     4.34172
      N   10   -0.27601      0.99966     2.76577    0.01059     3.77601
      C   11   -0.08576      0.99961     2.07594    0.01021     3.08576
      C   12   -0.19717      0.99962     2.18823    0.00933     3.19717
      C   13   -0.12288      0.99958     2.11329    0.01000     3.12288
      C   14   -0.08097      0.99960     2.07005    0.01131     3.08097
      C   15   -0.20188      0.99961     2.19259    0.00968     3.20188
      C   16   -0.00731      0.99960     1.99621    0.01150     3.00731
      O   17   -0.36959      0.99990     3.36297    0.00672     4.36959
      H   18    0.11397      0.00000     0.38498    0.00105     0.38603
      H   19    0.10000      0.00000     0.39906    0.00094     0.40000
      H   20    0.10418      0.00000     0.39476    0.00106     0.39582
      H   21    0.11514      0.00000     0.38195    0.00291     0.38486
      H   22    0.24129      0.00000     0.25431    0.00440     0.25871
      H   23    0.09472      0.00000     0.40360    0.00167     0.40528
      H   24    0.10790      0.00000     0.39040    0.00170     0.39210
      H   25    0.09806      0.00000     0.40019    0.00175     0.40194
      H   26    0.10656      0.00000     0.39157    0.00187     0.39344
      H   27    0.09629      0.00000     0.40227    0.00144     0.40371
      H   28    0.09828      0.00000     0.40001    0.00171     0.40172
      H   29    0.10280      0.00000     0.39614    0.00106     0.39720
      H   30    0.09907      0.00000     0.39861    0.00231     0.40093
      H   31    0.09016      0.00000     0.40873    0.00111     0.40984
      H   32    0.11558      0.00000     0.38341    0.00100     0.38442
      H   33    0.09985      0.00000     0.39911    0.00104     0.40015
      H   34    0.09958      0.00000     0.39922    0.00120     0.40042
      H   35    0.08461      0.00000     0.41427    0.00111     0.41539
      H   36    0.07688      0.00000     0.42172    0.00141     0.42312
      H   37    0.22838      0.00000     0.26885    0.00277     0.27162
 =======================================================================
   * Total *    0.00000     16.99455    48.78260    0.22285    66.00000

 Normal termination of Gaussian 16 at Sun Dec 13 13:46:00 2020.
