 Gaussian 16, Revision A.03,

 -----------------------------------------------------------
 # opt freq B3LYP/6-31G(d) empiricaldispersion=gd3bj scf=xqc
 -----------------------------------------------------------

 -------------------------------
 CID_149868213_JID_3963_neutraal
 -------------------------------
 Symbolic Z-matrix:
 Charge =  0 Multiplicity = 1

 SCF Done:  E(RB3LYP) =  -647.298304193     A.U. after   14 cycles
 SCF Done:  E(RB3LYP) =  -647.304999149     A.U. after   12 cycles
 SCF Done:  E(RB3LYP) =  -647.305782799     A.U. after   12 cycles
 SCF Done:  E(RB3LYP) =  -647.306097355     A.U. after   12 cycles
 SCF Done:  E(RB3LYP) =  -647.306106327     A.U. after   12 cycles
 SCF Done:  E(RB3LYP) =  -647.306334408     A.U. after   11 cycles
 SCF Done:  E(RB3LYP) =  -647.306489993     A.U. after   11 cycles
 SCF Done:  E(RB3LYP) =  -647.306632841     A.U. after   11 cycles
 SCF Done:  E(RB3LYP) =  -647.306647494     A.U. after   11 cycles
 SCF Done:  E(RB3LYP) =  -647.306686511     A.U. after   11 cycles
 SCF Done:  E(RB3LYP) =  -647.307074486     A.U. after    7 cycles
 SCF Done:  E(RB3LYP) =  -647.307094058     A.U. after   10 cycles
 SCF Done:  E(RB3LYP) =  -647.307101368     A.U. after   10 cycles
 SCF Done:  E(RB3LYP) =  -647.307104576     A.U. after    9 cycles
 SCF Done:  E(RB3LYP) =  -647.307105068     A.U. after    8 cycles
 SCF Done:  E(RB3LYP) =  -647.307105167     A.U. after    7 cycles
 Optimization completed.
    -- Stationary point found.
 Normal termination of Gaussian 16 at Sun Dec 13 20:08:49 2020.

 --------------------------------------------------------------------
 #N Geom=AllCheck Guess=TCheck SCRF=Check GenChk RB3LYP/6-31G(d) Freq
 --------------------------------------------------------------------

 Structure from the checkpoint file:  "JID_3963.chk"
 -------------------------------
 CID_149868213_JID_3963_neutraal
 -------------------------------
 Charge =  0 Multiplicity = 1

 SCF Done:  E(RB3LYP) =  -647.307105168     A.U. after    1 cycles

  Exact polarizability: 132.904   2.271 118.630   5.363  -2.977  67.845
 Approx polarizability: 192.077  10.307 183.756  12.056  -7.003 101.749

                      1                      2                      3
                      A                      A                      A
 Frequencies --     53.9537                70.1992                75.6140
 Red. masses --      5.0964                 2.9406                 4.7072
 Frc consts  --      0.0087                 0.0085                 0.0159
 IR Inten    --      1.0183                 0.5084                 0.7298

                      4                      5                      6
                      A                      A                      A
 Frequencies --     88.8842               119.1904               144.4384
 Red. masses --      4.0310                 2.4712                 1.3362
 Frc consts  --      0.0188                 0.0207                 0.0164
 IR Inten    --      1.8679                 2.5444                 1.9732

                      7                      8                      9
                      A                      A                      A
 Frequencies --    185.6787               196.4792               223.9281
 Red. masses --      4.3622                 2.3743                 1.5262
 Frc consts  --      0.0886                 0.0540                 0.0451
 IR Inten    --      1.3887                 1.0674                 0.9822

                     10                     11                     12
                      A                      A                      A
 Frequencies --    236.8729               287.1867               324.9799
 Red. masses --      4.1849                 1.8639                 2.4773
 Frc consts  --      0.1383                 0.0906                 0.1541
 IR Inten    --      0.9614                 3.6119                 3.5809

                     13                     14                     15
                      A                      A                      A
 Frequencies --    354.1485               368.3703               400.4564
 Red. masses --      4.1662                 2.0325                 1.9893
 Frc consts  --      0.3079                 0.1625                 0.1880
 IR Inten    --     10.3063                79.1946                71.0745

                     16                     17                     18
                      A                      A                      A
 Frequencies --    412.2203               461.2763               579.0789
 Red. masses --      4.7423                 5.7471                 2.2502
 Frc consts  --      0.4748                 0.7205                 0.4446
 IR Inten    --      2.0845                26.1096                25.1348

                     19                     20                     21
                      A                      A                      A
 Frequencies --    583.8063               610.5864               650.7095
 Red. masses --      2.3811                 2.3091                 3.6208
 Frc consts  --      0.4782                 0.5072                 0.9033
 IR Inten    --     19.3709                35.3585                24.8089

                     22                     23                     24
                      A                      A                      A
 Frequencies --    715.5658               732.3355               767.9531
 Red. masses --      3.8634                 5.6941                 6.9228
 Frc consts  --      1.1655                 1.7993                 2.4055
 IR Inten    --     36.2308                22.0672                12.5276

                     25                     26                     27
                      A                      A                      A
 Frequencies --    781.1208               809.1344               858.8547
 Red. masses --      7.5141                 1.2815                 3.5595
 Frc consts  --      2.7012                 0.4943                 1.5470
 IR Inten    --     21.0242                 1.3142                15.4993

                     28                     29                     30
                      A                      A                      A
 Frequencies --    976.9494               981.7539              1053.2117
 Red. masses --      1.6685                 2.4088                 3.6851
 Frc consts  --      0.9382                 1.3679                 2.4084
 IR Inten    --     29.6082                10.7224                82.4810

                     31                     32                     33
                      A                      A                      A
 Frequencies --   1062.0084              1098.8946              1112.7840
 Red. masses --      4.5064                 1.7155                 2.2008
 Frc consts  --      2.9946                 1.2205                 1.6057
 IR Inten    --     49.3497                19.7448                68.6714

                     34                     35                     36
                      A                      A                      A
 Frequencies --   1141.2816              1164.8247              1186.1354
 Red. masses --      2.9496                 1.3048                 1.8407
 Frc consts  --      2.2636                 1.0431                 1.5258
 IR Inten    --    169.0106                 1.6507                52.7971

                     37                     38                     39
                      A                      A                      A
 Frequencies --   1216.2865              1252.8467              1295.6414
 Red. masses --      1.3022                 2.0744                 1.4799
 Frc consts  --      1.1350                 1.9184                 1.4637
 IR Inten    --     92.0555                29.6670                12.2590

                     40                     41                     42
                      A                      A                      A
 Frequencies --   1340.3879              1367.7785              1374.0164
 Red. masses --      2.7574                 1.4873                 1.6086
 Frc consts  --      2.9189                 1.6394                 1.7893
 IR Inten    --      9.6415                13.4238                 2.7250

                     43                     44                     45
                      A                      A                      A
 Frequencies --   1395.8519              1426.2965              1428.8414
 Red. masses --      2.4237                 1.3301                 1.2415
 Frc consts  --      2.7823                 1.5942                 1.4933
 IR Inten    --     28.0070                81.5927                40.7387

                     46                     47                     48
                      A                      A                      A
 Frequencies --   1451.8236              1468.7326              1502.0209
 Red. masses --      3.0915                 2.1322                 1.1270
 Frc consts  --      3.8393                 2.7100                 1.4980
 IR Inten    --     44.4737                58.0628                 9.5964

                     49                     50                     51
                      A                      A                      A
 Frequencies --   1509.1193              1518.4131              1526.5681
 Red. masses --      1.3060                 1.3312                 1.2529
 Frc consts  --      1.7524                 1.8083                 1.7203
 IR Inten    --     10.6779                18.3496                 5.5837

                     52                     53                     54
                      A                      A                      A
 Frequencies --   1531.7627              1534.2772              1538.8342
 Red. masses --      1.4711                 1.1804                 1.1458
 Frc consts  --      2.0336                 1.6372                 1.5986
 IR Inten    --      6.0734                16.1789                18.1994

                     55                     56                     57
                      A                      A                      A
 Frequencies --   1551.2079              1589.7664              1799.2448
 Red. masses --      1.6271                 7.4893                 8.9166
 Frc consts  --      2.3068                11.1522                17.0072
 IR Inten    --      3.5007               158.9882               338.9314

                     58                     59                     60
                      A                      A                      A
 Frequencies --   3055.8122              3061.5364              3073.6029
 Red. masses --      1.0349                 1.0587                 1.0602
 Frc consts  --      5.6940                 5.8468                 5.9011
 IR Inten    --     34.8446                34.0550                16.9203

                     61                     62                     63
                      A                      A                      A
 Frequencies --   3091.2396              3108.2721              3115.9009
 Red. masses --      1.0375                 1.1070                 1.1035
 Frc consts  --      5.8411                 6.3012                 6.3124
 IR Inten    --     26.5741                18.1854                10.9755

                     64                     65                     66
                      A                      A                      A
 Frequencies --   3126.5589              3144.0953              3168.0533
 Red. masses --      1.1020                 1.1038                 1.1002
 Frc consts  --      6.3467                 6.4286                 6.5062
 IR Inten    --     29.0930                26.9577                 7.9411

                     67                     68                     69
                      A                      A                      A
 Frequencies --   3204.8700              3691.2895              3734.4270
 Red. masses --      1.1055                 1.0640                 1.0663
 Frc consts  --      6.6898                 8.5420                 8.7615
 IR Inten    --      0.7766                79.8651                18.9574

 - Thermochemistry -
 -------------------
 Temperature   298.150 Kelvin.  Pressure   1.00000 Atm.
 Atom     1 has atomic number  6 and mass  12.00000

 Molecular mass:   184.08479 amu.
 Principal axes and moments of inertia in atomic units:
                           1         2         3
     Eigenvalues --  1584.483482924.793134255.04935
           X            0.99857  -0.05349  -0.00117
           Y            0.05349   0.99857   0.00007
           Z            0.00116  -0.00013   1.00000
 This molecule is an asymmetric top.
 Rotational symmetry number  1.
 Warning -- assumption of classical behavior for rotation
           may cause significant error
 Rotational temperatures (Kelvin)      0.05466     0.02961     0.02036
 Rotational constants (GHZ):           1.13901     0.61705     0.42414
 Zero-point vibrational energy     538715.8 (Joules/Mol)
                                  128.75616 (Kcal/Mol)
 Warning -- explicit consideration of  20 degrees of freedom as
           vibrations may cause significant error
 Vibrational temperatures:     77.63   101.00   108.79   127.88   171.49
          (Kelvin)            207.81   267.15   282.69   322.18   340.81
                              413.20   467.57   509.54   530.00   576.17
                              593.09   663.67   833.17   839.97   878.50
                              936.23  1029.54  1053.67  1104.91  1123.86
                             1164.16  1235.70  1405.61  1412.52  1515.34
                             1527.99  1581.06  1601.05  1642.05  1675.92
                             1706.58  1749.96  1802.57  1864.14  1928.52
                             1967.93  1976.90  2008.32  2052.12  2055.78
                             2088.85  2113.18  2161.07  2171.29  2184.66
                             2196.39  2203.86  2207.48  2214.04  2231.84
                             2287.32  2588.71  4396.63  4404.87  4422.23
                             4447.60  4472.11  4483.09  4498.42  4523.65
                             4558.12  4611.09  5310.94  5373.01

 Zero-point correction=                           0.205186 (Hartree/Particle)
 Thermal correction to Energy=                    0.218625
 Thermal correction to Enthalpy=                  0.219569
 Thermal correction to Gibbs Free Energy=         0.164836
 Sum of electronic and zero-point Energies=           -647.101919
 Sum of electronic and thermal Energies=              -647.088480
 Sum of electronic and thermal Enthalpies=            -647.087536
 Sum of electronic and thermal Free Energies=         -647.142269

                     E (Thermal)             CV                S
                      KCal/Mol        Cal/Mol-Kelvin    Cal/Mol-Kelvin
 Total                  137.189             48.526            115.196
 Electronic               0.000              0.000              0.000
 Translational            0.889              2.981             41.537
 Rotational               0.889              2.981             31.356
 Vibrational            135.412             42.564             42.303
 Vibration     1          0.596              1.976              4.667
 Vibration     2          0.598              1.968              4.148
 Vibration     3          0.599              1.965              4.002
 Vibration     4          0.602              1.957              3.684
 Vibration     5          0.609              1.933              3.113
 Vibration     6          0.616              1.909              2.744
 Vibration     7          0.632              1.859              2.271
 Vibration     8          0.636              1.845              2.166
 Vibration     9          0.649              1.805              1.927
 Vibration    10          0.656              1.784              1.826
 Vibration    11          0.684              1.698              1.490
 Vibration    12          0.709              1.626              1.285
 Vibration    13          0.730              1.567              1.148
 Vibration    14          0.741              1.537              1.087
 Vibration    15          0.766              1.469              0.961
 Vibration    16          0.776              1.444              0.919
 Vibration    17          0.819              1.336              0.762
 Vibration    18          0.936              1.077              0.487
 Vibration    19          0.941              1.066              0.478
 Vibration    20          0.970              1.009              0.432

                           ! Non-Optimized Parameters !
 Normal termination of Gaussian 16 at Sun Dec 13 20:14:37 2020.

 ----------------------------------------------------------------------
 # B3LYP/6-311++G(d,p) empiricaldispersion=gd3bj scf=xqc pop=npa geom=c
 heck
 ----------------------------------------------------------------------

 ---------------------------------------
 CID_149868213_JID_3963_Energie_neutraal
 ---------------------------------------
 Structure from the checkpoint file:  "JID_3963.chk"
 Charge =  0 Multiplicity = 1

 SCF Done:  E(RB3LYP) =  -647.506667453     A.U. after   15 cycles
 Normal termination of Gaussian 16 at Sun Dec 13 20:17:10 2020.

 ----------------------------------------------------------------------
 # B3LYP/6-311++G(d,p) empiricaldispersion=gd3bj scf=xqc pop=npa geom=c
 heck
 ----------------------------------------------------------------------

 -------------------------------------
 CID_149868213_JID_3963_Energie_kation
 -------------------------------------
 Structure from the checkpoint file:  "JID_3963.chk"
 Charge =  1 Multiplicity = 2

 SCF Done:  E(UB3LYP) =  -647.193355644     A.U. after   23 cycles
 Normal termination of Gaussian 16 at Sun Dec 13 20:22:39 2020.
 Gaussian 16:  ES64L-G16RevA.03 25-Dec-2016

 ----------------------------------------------------------------------
 # B3LYP/6-311++G(d,p) empiricaldispersion=gd3bj scf=xqc pop=npa geom=c
 heck
 ----------------------------------------------------------------------

 ------------------------------------
 CID_149868213_JID_3963_Energie_anion
 ------------------------------------
 Structure from the checkpoint file:  "JID_3963.chk"
 Charge = -1 Multiplicity = 2

                         Standard orientation:
 ---------------------------------------------------------------------
 Center     Atomic      Atomic             Coordinates (Angstroms)
 Number     Number       Type             X           Y           Z
 ---------------------------------------------------------------------
      1          6           0       -2.743555    2.022726    0.728490
      2          6           0       -1.914965    1.780225   -0.544604
      3          6           0       -0.663936    1.006999   -0.267112
      4          6           0       -0.507897   -0.367134   -0.084986
      5          7           0        0.851530   -0.562430    0.175082
      6          6           0        1.425701    0.672236    0.150099
      7          7           0        0.541925    1.630049   -0.119669
      8          6           0        2.882442    0.933931    0.385420
      9          8           0        3.737688    0.262865   -0.541069
     10          6           0        1.554906   -1.817990    0.426717
     11          6           0       -1.545099   -1.381632   -0.152870
     12          8           0       -2.723077   -1.151706   -0.366468
     13          8           0       -1.099221   -2.655525    0.052140
     14          1           0       -3.078635    1.070514    1.149575
     15          1           0       -3.629381    2.625731    0.501020
     16          1           0       -2.152052    2.552121    1.483196
     17          1           0       -2.528202    1.238382   -1.270332
     18          1           0       -1.618482    2.737251   -0.986332
     19          1           0        3.017234    2.021805    0.360589
     20          1           0        3.195077    0.576787    1.372209
     21          1           0        3.493859    0.569697   -1.429056
     22          1           0        1.266059   -2.231270    1.396430
     23          1           0        1.303200   -2.543664   -0.346329
     24          1           0        2.624466   -1.618261    0.395702
     25          1           0       -1.896033   -3.213671   -0.018321
 ---------------------------------------------------------------------

 SCF Done:  E(UB3LYP) =  -647.505114776     A.U. after   30 cycles

 The electronic state is 2-A.
 Alpha  occ. eigenvalues --  -19.03159 -19.00291 -18.95599 -14.22929 -14.16047
 Alpha  occ. eigenvalues --  -10.14664 -10.10201 -10.08682 -10.08215 -10.06062
 Alpha  occ. eigenvalues --  -10.05414 -10.04203 -10.03895  -0.96750  -0.90655
 Alpha  occ. eigenvalues --   -0.87992  -0.87131  -0.75580  -0.66265  -0.62841
 Alpha  occ. eigenvalues --   -0.59359  -0.56771  -0.52685  -0.48528  -0.44376
 Alpha  occ. eigenvalues --   -0.43172  -0.39319  -0.37963  -0.35408  -0.34985
 Alpha  occ. eigenvalues --   -0.33250  -0.32524  -0.31588  -0.31043  -0.30741
 Alpha  occ. eigenvalues --   -0.29437  -0.28724  -0.26996  -0.25749  -0.24521
 Alpha  occ. eigenvalues --   -0.23601  -0.22303  -0.21538  -0.19107  -0.16682
 Alpha  occ. eigenvalues --   -0.14546  -0.14349  -0.14073  -0.09855   0.05024
 Alpha virt. eigenvalues --    0.08219   0.08505   0.09019   0.09602   0.10529
 Alpha virt. eigenvalues --    0.11424   0.12101   0.12450   0.13003   0.13311
 Alpha virt. eigenvalues --    0.14068   0.15208   0.15711   0.16646   0.17109

  Beta  occ. eigenvalues --  -19.03077 -19.00190 -18.95331 -14.22673 -14.16129
  Beta  occ. eigenvalues --  -10.14395 -10.10192 -10.08527 -10.08213 -10.06031
  Beta  occ. eigenvalues --  -10.05253 -10.04215 -10.03870  -0.96448  -0.90401
  Beta  occ. eigenvalues --   -0.87720  -0.86717  -0.75372  -0.66054  -0.62667
  Beta  occ. eigenvalues --   -0.59220  -0.56460  -0.52466  -0.48373  -0.44169
  Beta  occ. eigenvalues --   -0.43014  -0.39152  -0.37749  -0.34911  -0.34655
  Beta  occ. eigenvalues --   -0.33136  -0.32301  -0.31421  -0.30924  -0.29815
  Beta  occ. eigenvalues --   -0.29294  -0.28610  -0.26727  -0.25558  -0.24322
  Beta  occ. eigenvalues --   -0.23471  -0.22251  -0.21451  -0.18033  -0.16557
  Beta  occ. eigenvalues --   -0.14506  -0.13988  -0.13598  -0.08698
  Beta virt. eigenvalues --    0.07935   0.08717   0.08905   0.09798   0.10534
  Beta virt. eigenvalues --    0.10918   0.11491   0.12185   0.12470   0.12916
  Beta virt. eigenvalues --    0.13358   0.14128   0.15122   0.16385   0.16725

 Mulliken charges and spin densities:
               1          2
     1  C   -0.427335  -0.126262
     2  C   -0.378985   0.126180
     3  C   -0.026897   0.342404
     4  C   -0.086461   0.063079
     5  N   -0.068884   0.132891
     6  C   -0.730518   0.943147
     7  N   -0.086920  -0.007615
     8  C    1.144358  -1.753361
     9  O   -0.206206  -0.022114
    10  C    0.039679  -0.446234
    11  C   -0.169928   0.175208
    12  O   -0.396797   0.093144
    13  O   -0.248294   0.010766
    14  H    0.136055   0.040501
    15  H    0.025003   0.076826
    16  H    0.113167   0.009901
    17  H    0.154593   0.013252
    18  H    0.098229   0.042077
    19  H    0.049435   0.110080
    20  H   -0.060230   0.235531
    21  H   -0.214962   0.472578
    22  H    0.127184   0.035457
    23  H    0.006537   0.188608
    24  H   -0.013040   0.194313
    25  H    0.221221   0.049642
 Sum of Mulliken charges =  -1.00000   1.00000

 Dipole moment (field-independent basis, Debye):
    X=             -2.2847    Y=             -1.5269    Z=              2.2158  Tot=              3.5300
 Quadrupole moment (field-independent basis, Debye-Ang):
   XX=           -134.8107   YY=            -97.2193   ZZ=            -90.1731
   XY=             -1.1642   XZ=              5.3476   YZ=             -0.9419

 Summary of Natural Population Analysis:

                                       Natural Population
                Natural  -----------------------------------------------
    Atom  No    Charge         Core      Valence    Rydberg      Total
 -----------------------------------------------------------------------
      C    1   -0.27816      0.99966     2.27434    0.00416     3.27816
      C    2   -0.20582      0.99961     2.19798    0.00823     3.20582
      C    3    0.11452      0.99952     1.87168    0.01428     2.88548
      C    4   -0.00310      0.99940     1.99179    0.01192     3.00310
      N    5   -0.16348      0.99958     2.65476    0.00914     3.66348
      C    6    0.20892      0.99959     1.77395    0.01753     2.79108
      N    7   -0.28385      0.99969     2.77407    0.01009     3.78385
      C    8   -0.03307      0.99955     2.01968    0.01384     3.03307
      O    9   -0.36846      0.99990     3.36125    0.00730     4.36846
      C   10   -0.17945      0.99964     2.17187    0.00794     3.17945
      C   11    0.41320      0.99965     1.56430    0.02285     2.58680
      O   12   -0.30844      0.99988     3.30234    0.00623     4.30844
      O   13   -0.35566      0.99988     3.34921    0.00657     4.35566
      H   14    0.10428      0.00000     0.39439    0.00133     0.39572
      H   15    0.08784      0.00000     0.41074    0.00142     0.41216
      H   16    0.09287      0.00000     0.40586    0.00126     0.40713
      H   17    0.10896      0.00000     0.38966    0.00138     0.39104
      H   18    0.09756      0.00000     0.40084    0.00160     0.40244
      H   19    0.09042      0.00000     0.40798    0.00160     0.40958
      H   20    0.08872      0.00000     0.40987    0.00140     0.41128
      H   21    0.23229      0.00000     0.25804    0.00967     0.26771
      H   22    0.09316      0.00000     0.40588    0.00096     0.40684
      H   23    0.10561      0.00000     0.39303    0.00135     0.39439
      H   24    0.10895      0.00000     0.38980    0.00125     0.39105
      H   25    0.23218      0.00000     0.26382    0.00400     0.26782
 =======================================================================
   * Total *    0.00000     12.99554    35.83716    0.16730    49.00000

 Normal termination of Gaussian 16 at Sun Dec 13 20:29:42 2020.
