 Gaussian 16, Revision A.03,

 -----------------------------------------------------------
 # opt freq B3LYP/6-31G(d) empiricaldispersion=gd3bj scf=xqc
 -----------------------------------------------------------

 -------------------------------
 CID_131589245_JID_6890_neutraal
 -------------------------------
 Symbolic Z-matrix:
 Charge =  0 Multiplicity = 1

 SCF Done:  E(RB3LYP) =  -766.427930887     A.U. after   14 cycles
 SCF Done:  E(RB3LYP) =  -766.431368228     A.U. after   12 cycles
 SCF Done:  E(RB3LYP) =  -766.431721602     A.U. after   11 cycles
 SCF Done:  E(RB3LYP) =  -766.431747866     A.U. after   10 cycles
 SCF Done:  E(RB3LYP) =  -766.431873874     A.U. after   11 cycles
 SCF Done:  E(RB3LYP) =  -766.431967217     A.U. after   11 cycles
 SCF Done:  E(RB3LYP) =  -766.431218144     A.U. after   13 cycles
 SCF Done:  E(RB3LYP) =  -766.432268526     A.U. after   11 cycles
 SCF Done:  E(RB3LYP) =  -766.432485332     A.U. after   12 cycles
 SCF Done:  E(RB3LYP) =  -766.432697010     A.U. after   11 cycles
 SCF Done:  E(RB3LYP) =  -766.432802363     A.U. after    8 cycles
 SCF Done:  E(RB3LYP) =  -766.432802348     A.U. after    8 cycles
 SCF Done:  E(RB3LYP) =  -766.432802341     A.U. after    7 cycles
 SCF Done:  E(RB3LYP) =  -766.432802330     A.U. after    8 cycles
 SCF Done:  E(RB3LYP) =  -766.432802355     A.U. after    7 cycles
 Optimization completed.
    -- Stationary point found.
 Normal termination of Gaussian 16 at Fri Dec 11 01:10:30 2020.

 --------------------------------------------------------------------
 #N Geom=AllCheck Guess=TCheck SCRF=Check GenChk RB3LYP/6-31G(d) Freq
 --------------------------------------------------------------------

 Structure from the checkpoint file:  "JID_6890.chk"
 -------------------------------
 CID_131589245_JID_6890_neutraal
 -------------------------------
 Charge =  0 Multiplicity = 1

 SCF Done:  E(RB3LYP) =  -766.432802355     A.U. after    1 cycles

  Exact polarizability: 148.783  -3.626 130.443   2.817   6.915 118.835
 Approx polarizability: 188.604 -12.319 193.122   4.183  16.763 182.711

                      1                      2                      3
                      A                      A                      A
 Frequencies --     19.3157                35.8874                44.4669
 Red. masses --      3.5685                 4.7518                 4.2473
 Frc consts  --      0.0008                 0.0036                 0.0049
 IR Inten    --      1.0433                 0.3837                 0.1946

                      4                      5                      6
                      A                      A                      A
 Frequencies --     60.8231               104.1683               131.0257
 Red. masses --      4.6166                 4.4891                 4.7626
 Frc consts  --      0.0101                 0.0287                 0.0482
 IR Inten    --      1.1372                 5.0161                 0.9954

                      7                      8                      9
                      A                      A                      A
 Frequencies --    169.4283               194.8209               252.2846
 Red. masses --      3.5549                 2.5999                 2.3770
 Frc consts  --      0.0601                 0.0581                 0.0891
 IR Inten    --      0.3442                 1.4268                 5.4891

                     10                     11                     12
                      A                      A                      A
 Frequencies --    298.7578               305.4528               314.7287
 Red. masses --      2.5729                 2.3633                 2.2466
 Frc consts  --      0.1353                 0.1299                 0.1311
 IR Inten    --      5.2566                 2.0361                 7.5881

                     13                     14                     15
                      A                      A                      A
 Frequencies --    364.4542               387.3575               426.5873
 Red. masses --      2.4552                 4.2571                 2.3404
 Frc consts  --      0.1921                 0.3763                 0.2509
 IR Inten    --     18.1079                 3.8041                 1.4821

                     16                     17                     18
                      A                      A                      A
 Frequencies --    438.3569               453.3406               455.1546
 Red. masses --      3.7047                 2.2064                 2.6882
 Frc consts  --      0.4194                 0.2672                 0.3281
 IR Inten    --      7.6801                 2.1879                 2.2890

                     19                     20                     21
                      A                      A                      A
 Frequencies --    481.6127               532.4029               552.2164
 Red. masses --      2.9586                 2.5826                 2.6049
 Frc consts  --      0.4043                 0.4313                 0.4680
 IR Inten    --      4.5555                 7.1138                 4.2720

                     22                     23                     24
                      A                      A                      A
 Frequencies --    580.6829               597.5406               653.8548
 Red. masses --      3.0186                 2.8687                 2.1498
 Frc consts  --      0.5997                 0.6035                 0.5415
 IR Inten    --      0.3213                 8.7837                 5.0791

                     25                     26                     27
                      A                      A                      A
 Frequencies --    698.3658               751.9122               787.3966
 Red. masses --      2.1186                 2.6236                 4.1290
 Frc consts  --      0.6088                 0.8740                 1.5083
 IR Inten    --      2.2422                12.2897                13.3815

                     28                     29                     30
                      A                      A                      A
 Frequencies --    828.7779               857.1035               864.5040
 Red. masses --      1.9371                 3.0597                 2.6614
 Frc consts  --      0.7839                 1.3243                 1.1719
 IR Inten    --    117.4286                 7.0043                18.1801

                     31                     32                     33
                      A                      A                      A
 Frequencies --    867.1510               905.1875               913.4275
 Red. masses --      1.8058                 2.1341                 2.2475
 Frc consts  --      0.8000                 1.0303                 1.1048
 IR Inten    --      7.2653                 1.7388                 0.9943

                     34                     35                     36
                      A                      A                      A
 Frequencies --    920.5295               935.8601               961.3805
 Red. masses --      2.1962                 1.9648                 2.7794
 Frc consts  --      1.0965                 1.0139                 1.5136
 IR Inten    --     12.6175                28.4756                12.2271

                     37                     38                     39
                      A                      A                      A
 Frequencies --    994.0575              1021.6661              1031.1561
 Red. masses --      2.0152                 2.2933                 2.1785
 Frc consts  --      1.1732                 1.4104                 1.3648
 IR Inten    --     13.5161                 8.6511                 2.6105

                     40                     41                     42
                      A                      A                      A
 Frequencies --   1046.0246              1060.1102              1087.3548
 Red. masses --      2.4390                 2.3276                 1.9560
 Frc consts  --      1.5723                 1.5412                 1.3625
 IR Inten    --     21.6117                30.5642                 0.9704

                     43                     44                     45
                      A                      A                      A
 Frequencies --   1089.7176              1103.8883              1144.2704
 Red. masses --      2.2816                 1.7863                 2.4387
 Frc consts  --      1.5963                 1.2825                 1.8813
 IR Inten    --      8.1759                15.7760                75.5083

                     46                     47                     48
                      A                      A                      A
 Frequencies --   1146.4894              1148.8036              1158.3000
 Red. masses --      5.1424                 4.2945                 2.5642
 Frc consts  --      3.9825                 3.3393                 2.0270
 IR Inten    --     10.8205               112.2028                 5.9284

                     49                     50                     51
                      A                      A                      A
 Frequencies --   1188.6035              1218.5848              1226.4810
 Red. masses --      2.2635                 1.6327                 1.6473
 Frc consts  --      1.8841                 1.4285                 1.4600
 IR Inten    --     16.1696                 3.7706                 4.8144

                     52                     53                     54
                      A                      A                      A
 Frequencies --   1246.2408              1256.4626              1265.8869
 Red. masses --      1.2831                 1.3684                 1.4532
 Frc consts  --      1.1741                 1.2728                 1.3721
 IR Inten    --     22.0715                17.7956                64.8706

                     55                     56                     57
                      A                      A                      A
 Frequencies --   1273.4937              1302.6124              1306.1002
 Red. masses --      1.2978                 1.2496                 1.4562
 Frc consts  --      1.2401                 1.2493                 1.4636
 IR Inten    --     48.1393                 2.2762                46.7593

                     58                     59                     60
                      A                      A                      A
 Frequencies --   1331.9731              1338.2226              1350.3610
 Red. masses --      1.2199                 1.2210                 1.2948
 Frc consts  --      1.2752                 1.2884                 1.3910
 IR Inten    --      4.5744                26.5384                 5.9724

                     61                     62                     63
                      A                      A                      A
 Frequencies --   1371.2917              1380.0238              1391.9967
 Red. masses --      1.2707                 1.2544                 1.3362
 Frc consts  --      1.4078                 1.4075                 1.5255
 IR Inten    --      1.1506                 2.1326                 3.5915

                     64                     65                     66
                      A                      A                      A
 Frequencies --   1395.5781              1405.3190              1412.1409
 Red. masses --      1.4058                 1.2779                 1.3657
 Frc consts  --      1.6132                 1.4869                 1.6046
 IR Inten    --      8.8136                 9.3457                15.6654

                     67                     68                     69
                      A                      A                      A
 Frequencies --   1414.7830              1418.1338              1437.4170
 Red. masses --      1.3528                 1.4048                 1.3564
 Frc consts  --      1.5954                 1.6646                 1.6513
 IR Inten    --      8.9312                 1.3024                 5.8260

                     70                     71                     72
                      A                      A                      A
 Frequencies --   1440.9942              1476.6403              1490.6191
 Red. masses --      1.3226                 1.7237                 1.1814
 Frc consts  --      1.6181                 2.2144                 1.5466
 IR Inten    --     10.7892               107.7309                14.0386

                     73                     74                     75
                      A                      A                      A
 Frequencies --   1500.2691              1503.4116              1507.8892
 Red. masses --      1.1853                 1.1368                 1.1889
 Frc consts  --      1.5718                 1.5139                 1.5927
 IR Inten    --      7.4408                 8.2885                27.5521

                     76                     77                     78
                      A                      A                      A
 Frequencies --   1515.3272              1517.6962              1523.3762
 Red. masses --      1.0863                 1.1190                 1.1184
 Frc consts  --      1.4697                 1.5186                 1.5291
 IR Inten    --      0.8361                 1.2485                15.5907

                     79                     80                     81
                      A                      A                      A
 Frequencies --   1523.7528              1525.4206              1531.4687
 Red. masses --      1.1075                 1.1381                 1.1057
 Frc consts  --      1.5150                 1.5602                 1.5279
 IR Inten    --      4.1080                26.0472                 1.7377

                     82                     83                     84
                      A                      A                      A
 Frequencies --   1735.4877              2960.9992              2973.2152
 Red. masses --      9.8615                 1.0718                 1.0718
 Frc consts  --     17.5000                 5.5364                 5.5826
 IR Inten    --    248.8831                34.7001               106.6178

                     85                     86                     87
                      A                      A                      A
 Frequencies --   2998.4371              3018.3293              3048.5176
 Red. masses --      1.0700                 1.0673                 1.0715
 Frc consts  --      5.6677                 5.7288                 5.8673
 IR Inten    --     40.3146                22.5932                16.3550

                     88                     89                     90
                      A                      A                      A
 Frequencies --   3052.4208              3053.8727              3057.2978
 Red. masses --      1.0623                 1.0688                 1.0705
 Frc consts  --      5.8315                 5.8727                 5.8952
 IR Inten    --     34.9930                10.4883                75.0030

                     91                     92                     93
                      A                      A                      A
 Frequencies --   3075.6042              3090.6997              3095.5474
 Red. masses --      1.0644                 1.0846                 1.1000
 Frc consts  --      5.9320                 6.1043                 6.2105
 IR Inten    --     12.4015                16.3532                48.6359

                     94                     95                     96
                      A                      A                      A
 Frequencies --   3101.2615              3104.0277              3110.5437
 Red. masses --      1.0962                 1.0941                 1.0987
 Frc consts  --      6.2119                 6.2108                 6.2636
 IR Inten    --     34.0274                40.8083                46.3728

                     97                     98                     99
                      A                      A                      A
 Frequencies --   3113.9050              3120.5225              3154.6366
 Red. masses --      1.0960                 1.1010                 1.0928
 Frc consts  --      6.2615                 6.3169                 6.4077
 IR Inten    --     52.5737                15.1556                14.7099

                    100                    101                    102
                      A                      A                      A
 Frequencies --   3172.1157              3184.3889              3469.9834
 Red. masses --      1.0944                 1.0877                 1.0740
 Frc consts  --      6.4883                 6.4982                 7.6189
 IR Inten    --      2.9460                25.9847                 0.7855

 - Thermochemistry -
 -------------------
 Temperature   298.150 Kelvin.  Pressure   1.00000 Atm.
 Atom     1 has atomic number  6 and mass  12.00000

 Molecular mass:   228.14739 amu.
 Principal axes and moments of inertia in atomic units:
                           1         2         3
     Eigenvalues --  1885.094785755.167206536.44240
           X            0.99999   0.00432  -0.00057
           Y           -0.00431   0.99994   0.00956
           Z            0.00061  -0.00956   0.99995
 This molecule is an asymmetric top.
 Rotational symmetry number  1.
 Warning -- assumption of classical behavior for rotation
           may cause significant error
 Rotational temperatures (Kelvin)      0.04595     0.01505     0.01325
 Rotational constants (GHZ):           0.95737     0.31359     0.27610
 Zero-point vibrational energy     842521.2 (Joules/Mol)
                                  201.36739 (Kcal/Mol)
 Warning -- explicit consideration of  23 degrees of freedom as
           vibrations may cause significant error
 Vibrational temperatures:     27.79    51.63    63.98    87.51   149.87
          (Kelvin)            188.52   243.77   280.30   362.98   429.85
                              439.48   452.82   524.37   557.32   613.76
                              630.70   652.26   654.87   692.93   766.01
                              794.52   835.47   859.73   940.75  1004.79
                             1081.83  1132.89  1192.43  1233.18  1243.83
                             1247.64  1302.36  1314.22  1324.44  1346.49
                             1383.21  1430.23  1469.95  1483.60  1505.00
                             1525.26  1564.46  1567.86  1588.25  1646.35
                             1649.54  1652.87  1666.54  1710.14  1753.27
                             1764.63  1793.06  1807.77  1821.33  1832.27
                             1874.17  1879.19  1916.41  1925.40  1942.87
                             1972.98  1985.55  2002.77  2007.93  2021.94
                             2031.76  2035.56  2040.38  2068.12  2073.27
                             2124.56  2144.67  2158.55  2163.07  2169.52
                             2180.22  2183.63  2191.80  2192.34  2194.74
                             2203.44  2496.98  4260.22  4277.79  4314.08
                             4342.70  4386.14  4391.75  4393.84  4398.77
                             4425.11  4446.83  4453.80  4462.02  4466.00
                             4475.38  4480.21  4489.74  4538.82  4563.97
                             4581.63  4992.53

 Zero-point correction=                           0.320899 (Hartree/Particle)
 Thermal correction to Energy=                    0.335688
 Thermal correction to Enthalpy=                  0.336633
 Thermal correction to Gibbs Free Energy=         0.277087
 Sum of electronic and zero-point Energies=           -766.111903
 Sum of electronic and thermal Energies=              -766.097114
 Sum of electronic and thermal Enthalpies=            -766.096170
 Sum of electronic and thermal Free Energies=         -766.155716

                     E (Thermal)             CV                S
                      KCal/Mol        Cal/Mol-Kelvin    Cal/Mol-Kelvin
 Total                  210.648             57.583            125.325
 Electronic               0.000              0.000              0.000
 Translational            0.889              2.981             42.177
 Rotational               0.889              2.981             32.628
 Vibrational            208.870             51.621             50.520
 Vibration     1          0.593              1.986              6.703
 Vibration     2          0.594              1.982              5.474
 Vibration     3          0.595              1.980              5.049
 Vibration     4          0.597              1.973              4.430
 Vibration     5          0.605              1.946              3.375
 Vibration     6          0.612              1.922              2.931
 Vibration     7          0.625              1.880              2.442
 Vibration     8          0.635              1.847              2.181
 Vibration     9          0.664              1.759              1.715
 Vibration    10          0.692              1.676              1.424
 Vibration    11          0.696              1.663              1.387
 Vibration    12          0.702              1.646              1.337
 Vibration    13          0.738              1.545              1.103
 Vibration    14          0.756              1.497              1.010
 Vibration    15          0.788              1.412              0.870
 Vibration    16          0.799              1.387              0.832
 Vibration    17          0.812              1.354              0.786
 Vibration    18          0.813              1.349              0.780
 Vibration    19          0.838              1.291              0.706
 Vibration    20          0.887              1.178              0.582
 Vibration    21          0.908              1.135              0.540
 Vibration    22          0.937              1.073              0.484
 Vibration    23          0.955              1.037              0.454

 Optimization completed.
    -- Stationary point found.
 Normal termination of Gaussian 16 at Fri Dec 11 01:23:15 2020.

 ----------------------------------------------------------------------
 # B3LYP/6-311++G(d,p) empiricaldispersion=gd3bj scf=xqc pop=npa geom=c
 heck
 ----------------------------------------------------------------------

 ---------------------------------------
 CID_131589245_JID_6890_Energie_neutraal
 ---------------------------------------
 Structure from the checkpoint file:  "JID_6890.chk"
 Charge =  0 Multiplicity = 1

 SCF Done:  E(RB3LYP) =  -766.653829299     A.U. after   15 cycles
 Normal termination of Gaussian 16 at Fri Dec 11 01:28:43 2020.

 ----------------------------------------------------------------------
 # B3LYP/6-311++G(d,p) empiricaldispersion=gd3bj scf=xqc pop=npa geom=c
 heck
 ----------------------------------------------------------------------

 -------------------------------------
 CID_131589245_JID_6890_Energie_kation
 -------------------------------------
 Structure from the checkpoint file:  "JID_6890.chk"
 Charge =  1 Multiplicity = 2

 SCF Done:  E(UB3LYP) =  -766.366940608     A.U. after   22 cycles
 Normal termination of Gaussian 16 at Fri Dec 11 01:40:12 2020.
 Gaussian 16:  ES64L-G16RevA.03 25-Dec-2016

 ----------------------------------------------------------------------
 # B3LYP/6-311++G(d,p) empiricaldispersion=gd3bj scf=xqc pop=npa geom=c
 heck
 ----------------------------------------------------------------------

 ------------------------------------
 CID_131589245_JID_6890_Energie_anion
 ------------------------------------
 Structure from the checkpoint file:  "JID_6890.chk"
 Charge = -1 Multiplicity = 2

                         Standard orientation:
 ---------------------------------------------------------------------
 Center     Atomic      Atomic             Coordinates (Angstroms)
 Number     Number       Type             X           Y           Z
 ---------------------------------------------------------------------
      1          6           0        2.282000    1.537768    0.583471
      2          6           0        3.706735    1.395369    0.046394
      3          8           0        4.032587    0.029092   -0.170445
      4          6           0        3.135749   -0.572373   -1.099617
      5          6           0        1.687868   -0.522601   -0.595103
      6          7           0        1.288494    0.865131   -0.265246
      7          6           0        1.490188   -1.464797    0.603686
      8          6           0        0.153900   -1.257472    1.322571
      9          6           0       -1.014215   -1.434521    0.357003
     10          8           0       -0.945912   -2.285396   -0.530551
     11          7           0       -2.143536   -0.667938    0.521195
     12          6           0       -3.184864   -0.740254   -0.505992
     13          6           0       -3.137015    0.528118   -1.357861
     14          8           0       -3.264010    1.697808   -0.556324
     15          6           0       -2.240123    1.768465    0.428428
     16          6           0       -2.270518    0.537511    1.337056
     17          1           0        2.231858    1.097485    1.586481
     18          1           0        2.008203    2.595441    0.676059
     19          1           0        3.806004    1.958557   -0.899704
     20          1           0        4.445734    1.782465    0.755564
     21          1           0        3.477946   -1.603700   -1.231236
     22          1           0        3.209727   -0.055502   -2.072936
     23          1           0        1.021101   -0.858944   -1.395441
     24          1           0        1.204391    1.385852   -1.138073
     25          1           0        1.544243   -2.491180    0.229373
     26          1           0        2.308751   -1.334795    1.319800
     27          1           0        0.043381   -2.010704    2.114009
     28          1           0        0.153191   -0.280298    1.802662
     29          1           0       -4.161796   -0.818636   -0.012693
     30          1           0       -3.006698   -1.631185   -1.107482
     31          1           0       -2.186126    0.551363   -1.915135
     32          1           0       -3.965242    0.553709   -2.072209
     33          1           0       -2.426318    2.682418    1.001027
     34          1           0       -1.246559    1.827771   -0.042443
     35          1           0       -3.233311    0.495616    1.863065
     36          1           0       -1.482739    0.590611    2.086006
 ---------------------------------------------------------------------

 SCF Done:  E(UB3LYP) =  -766.641009144     A.U. after   33 cycles
 SCF Done:  E(UB3LYP) =  -766.641009144     a.u. after    1 cycles

 The electronic state is 2-A.
 Alpha  occ. eigenvalues --  -19.03402 -19.02914 -18.98997 -14.24998 -14.20171
 Alpha  occ. eigenvalues --  -10.17638 -10.12805 -10.11834 -10.11775 -10.11470
 Alpha  occ. eigenvalues --  -10.11350 -10.11069 -10.09980 -10.09107 -10.08069
 Alpha  occ. eigenvalues --  -10.07123  -0.95303  -0.94487  -0.94017  -0.84213
 Alpha  occ. eigenvalues --   -0.80893  -0.70239  -0.68737  -0.66358  -0.62817
 Alpha  occ. eigenvalues --   -0.59020  -0.57147  -0.55927  -0.53425  -0.51263
 Alpha  occ. eigenvalues --   -0.46589  -0.44808  -0.42072  -0.40230  -0.39137
 Alpha  occ. eigenvalues --   -0.38843  -0.38602  -0.37951  -0.37799  -0.37411
 Alpha  occ. eigenvalues --   -0.36557  -0.34457  -0.33986  -0.33191  -0.31838
 Alpha  occ. eigenvalues --   -0.31227  -0.30189  -0.28076  -0.28044  -0.27594
 Alpha  occ. eigenvalues --   -0.27402  -0.26174  -0.25564  -0.24720  -0.24062
 Alpha  occ. eigenvalues --   -0.22781  -0.22046  -0.18883  -0.18287  -0.16307
 Alpha  occ. eigenvalues --   -0.14262  -0.12294   0.04400
 Alpha virt. eigenvalues --    0.06314   0.06801   0.07482   0.08129   0.08431
 Alpha virt. eigenvalues --    0.09028   0.09695   0.10135   0.10596   0.10938
 Alpha virt. eigenvalues --    0.11068   0.11624   0.11804   0.12467   0.13195

  Beta  occ. eigenvalues --  -19.03396 -19.02904 -18.98991 -14.25000 -14.20149
  Beta  occ. eigenvalues --  -10.17633 -10.12791 -10.11821 -10.11750 -10.11444
  Beta  occ. eigenvalues --  -10.11328 -10.11060 -10.09977 -10.09073 -10.08055
  Beta  occ. eigenvalues --  -10.07117  -0.95290  -0.94466  -0.94006  -0.84204
  Beta  occ. eigenvalues --   -0.80846  -0.70215  -0.68708  -0.66325  -0.62794
  Beta  occ. eigenvalues --   -0.58978  -0.57103  -0.55879  -0.53379  -0.51215
  Beta  occ. eigenvalues --   -0.46533  -0.44769  -0.42035  -0.40190  -0.39104
  Beta  occ. eigenvalues --   -0.38808  -0.38584  -0.37921  -0.37771  -0.37368
  Beta  occ. eigenvalues --   -0.36522  -0.34424  -0.33949  -0.33168  -0.31814
  Beta  occ. eigenvalues --   -0.31191  -0.30150  -0.28039  -0.28015  -0.27561
  Beta  occ. eigenvalues --   -0.27374  -0.26152  -0.25531  -0.24688  -0.24036
  Beta  occ. eigenvalues --   -0.22763  -0.22018  -0.18850  -0.18230  -0.16298
  Beta  occ. eigenvalues --   -0.14240  -0.12251
  Beta virt. eigenvalues --    0.06603   0.07158   0.07234   0.08055   0.08595
  Beta virt. eigenvalues --    0.08852   0.09372   0.10189   0.10356   0.10995
  Beta virt. eigenvalues --    0.11194   0.11366   0.11963   0.12134   0.12573

 Mulliken charges and spin densities:
               1          2
     1  C    0.293815  -0.544028
     2  C    0.746060  -1.084087
     3  O   -0.146731   0.058879
     4  C    0.076602  -0.923706
     5  C    0.087215   0.245918
     6  N   -0.312902   0.185709
     7  C   -0.563279  -0.176866
     8  C    0.753449  -0.360646
     9  C   -0.817616   0.200725
    10  O   -0.280722   0.003864
    11  N    0.161668   0.011028
    12  C   -0.049584   0.046792
    13  C    0.293328  -0.659066
    14  O   -0.156278   0.043098
    15  C    0.089052  -0.587689
    16  C    0.187637  -0.352081
    17  H    0.023958   0.136553
    18  H   -0.821976   0.997273
    19  H   -0.194818   0.326113
    20  H   -0.185729   0.375772
    21  H    0.155696   0.009796
    22  H   -0.293976   0.444738
    23  H    0.163800   0.077976
    24  H    0.017269   0.245891
    25  H    0.158508   0.018222
    26  H    0.122486   0.054106
    27  H   -0.041268   0.261008
    28  H    0.195053  -0.156717
    29  H   -0.014582   0.176480
    30  H    0.177226  -0.004689
    31  H   -0.133749   0.280128
    32  H    0.020592   0.160200
    33  H   -0.527175   0.714793
    34  H    0.401186  -0.139386
    35  H   -0.093123   0.265912
    36  H   -0.491094   0.647987
 Sum of Mulliken charges =  -1.00000   1.00000

 Dipole moment (field-independent basis, Debye):
    X=             -1.7620    Y=             -5.9479    Z=             -0.5631  Tot=              6.2289
 Quadrupole moment (field-independent basis, Debye-Ang):
   XX=           -163.2636   YY=           -154.4622   ZZ=           -134.9822
   XY=             -3.7812   XZ=              3.7921   YZ=             -5.5560

 Summary of Natural Population Analysis:

                                       Natural Population
                Natural  -----------------------------------------------
    Atom  No    Charge         Core      Valence    Rydberg      Total
 -----------------------------------------------------------------------
      C    1   -0.10551      0.99962     2.09324    0.01265     3.10551
      C    2   -0.01749      0.99958     2.00477    0.01314     3.01749
      O    3   -0.30235      0.99989     3.29329    0.00917     4.30235
      C    4   -0.01428      0.99955     2.00159    0.01314     3.01428
      C    5   -0.03009      0.99958     2.01753    0.01298     3.03009
      N    6   -0.34576      0.99976     2.83164    0.01436     3.84576
      C    7   -0.19244      0.99961     2.18448    0.00836     3.19244
      C    8   -0.23037      0.99958     2.22207    0.00872     3.23037
      C    9    0.35306      0.99964     1.62461    0.02269     2.64694
      O   10   -0.33709      0.99988     3.33197    0.00524     4.33709
      N   11   -0.25670      0.99964     2.74604    0.01101     3.75670
      C   12   -0.10256      0.99961     2.09369    0.00927     3.10256
      C   13   -0.01454      0.99958     2.00404    0.01093     3.01454
      O   14   -0.29854      0.99989     3.28952    0.00913     4.29854
      C   15   -0.02103      0.99957     2.00812    0.01333     3.02103
      C   16   -0.09589      0.99960     2.08466    0.01162     3.09589
      H   17    0.09004      0.00000     0.40843    0.00153     0.40996
      H   18    0.10303      0.00000     0.39367    0.00330     0.39697
      H   19    0.07727      0.00000     0.42067    0.00207     0.42273
      H   20    0.09128      0.00000     0.40739    0.00133     0.40872
      H   21    0.08999      0.00000     0.40893    0.00108     0.41001
      H   22    0.08042      0.00000     0.41820    0.00138     0.41958
      H   23    0.10483      0.00000     0.39334    0.00183     0.39517
      H   24    0.17670      0.00000     0.31963    0.00368     0.32330
      H   25    0.10630      0.00000     0.39259    0.00111     0.39370
      H   26    0.10207      0.00000     0.39658    0.00136     0.39793
      H   27    0.10860      0.00000     0.39049    0.00091     0.39140
      H   28    0.10737      0.00000     0.39061    0.00202     0.39263
      H   29    0.09282      0.00000     0.40587    0.00131     0.40718
      H   30    0.11844      0.00000     0.38026    0.00130     0.38156
      H   31    0.08309      0.00000     0.41516    0.00175     0.41691
      H   32    0.09016      0.00000     0.40857    0.00126     0.40984
      H   33    0.09451      0.00000     0.40348    0.00201     0.40549
      H   34    0.09179      0.00000     0.40572    0.00249     0.40821
      H   35    0.09463      0.00000     0.40388    0.00149     0.40537
      H   36    0.10828      0.00000     0.39011    0.00161     0.39172
 =======================================================================
   * Total *   -0.00000     15.99459    45.78485    0.22056    62.00000

 Normal termination of Gaussian 16 at Fri Dec 11 01:56:44 2020.
