 Gaussian 16, Revision A.03,

 -----------------------------------------------------------
 # opt freq B3LYP/6-31G(d) empiricaldispersion=gd3bj scf=xqc
 -----------------------------------------------------------

 -------------------------------
 CID_154398231_JID_2828_neutraal
 -------------------------------
 Symbolic Z-matrix:
 Charge =  0 Multiplicity = 1

 SCF Done:  E(RB3LYP) =  -539.924658359     A.U. after   15 cycles
 SCF Done:  E(RB3LYP) =  -539.928371394     A.U. after   13 cycles
 SCF Done:  E(RB3LYP) =  -539.928172872     A.U. after   13 cycles
 SCF Done:  E(RB3LYP) =  -539.929726026     A.U. after   12 cycles
 SCF Done:  E(RB3LYP) =  -539.930584471     A.U. after   13 cycles
 SCF Done:  E(RB3LYP) =  -539.931432913     A.U. after   13 cycles
 SCF Done:  E(RB3LYP) =  -539.931652890     A.U. after   13 cycles
 SCF Done:  E(RB3LYP) =  -539.931939500     A.U. after   12 cycles
 SCF Done:  E(RB3LYP) =  -539.932192803     A.U. after   12 cycles
 SCF Done:  E(RB3LYP) =  -539.932443313     A.U. after   12 cycles
 SCF Done:  E(RB3LYP) =  -539.931576836     A.U. after   13 cycles
 SCF Done:  E(RB3LYP) =  -539.933279534     A.U. after   11 cycles
 SCF Done:  E(RB3LYP) =  -539.933280926     A.U. after    9 cycles
 SCF Done:  E(RB3LYP) =  -539.933281094     A.U. after    9 cycles
 SCF Done:  E(RB3LYP) =  -539.933281206     A.U. after    8 cycles
 Optimization completed.
    -- Stationary point found.
 Normal termination of Gaussian 16 at Wed Dec  9 18:22:58 2020.

 --------------------------------------------------------------------
 #N Geom=AllCheck Guess=TCheck SCRF=Check GenChk RB3LYP/6-31G(d) Freq
 --------------------------------------------------------------------

 Structure from the checkpoint file:  "JID_2828.chk"
 -------------------------------
 CID_154398231_JID_2828_neutraal
 -------------------------------
 Charge =  0 Multiplicity = 1

 SCF Done:  E(RB3LYP) =  -539.933281206     A.U. after    1 cycles

  Exact polarizability: 111.569  -1.874 114.350   3.723  -2.349  89.834
 Approx polarizability: 156.559   0.529 170.542   5.542  -1.868 142.808

                      1                      2                      3
                      A                      A                      A
 Frequencies --     43.0489                75.1096               111.4700
 Red. masses --      4.0564                 4.4697                 3.4983
 Frc consts  --      0.0044                 0.0149                 0.0256
 IR Inten    --      1.8544                 1.7723                 1.3964

                      4                      5                      6
                      A                      A                      A
 Frequencies --    128.6776               192.0080               230.0820
 Red. masses --      4.4271                 3.7088                 4.0974
 Frc consts  --      0.0432                 0.0806                 0.1278
 IR Inten    --      1.5314                 1.0752                 8.2566

                      7                      8                      9
                      A                      A                      A
 Frequencies --    245.2412               272.3140               321.7842
 Red. masses --      1.1309                 4.1174                 2.6206
 Frc consts  --      0.0401                 0.1799                 0.1599
 IR Inten    --      3.1320                 3.7724                 0.5525

                     10                     11                     12
                      A                      A                      A
 Frequencies --    343.9826               370.0844               403.8049
 Red. masses --      2.4028                 1.1510                 3.1490
 Frc consts  --      0.1675                 0.0929                 0.3025
 IR Inten    --      0.1024                36.8161                 6.6018

                     13                     14                     15
                      A                      A                      A
 Frequencies --    431.4574               439.7914               462.4846
 Red. masses --      3.5706                 2.4835                 2.5545
 Frc consts  --      0.3916                 0.2830                 0.3219
 IR Inten    --      2.1118                 3.3176                 0.3756

                     16                     17                     18
                      A                      A                      A
 Frequencies --    506.7230               568.1139               615.7893
 Red. masses --      3.3110                 3.7928                 2.7458
 Frc consts  --      0.5009                 0.7212                 0.6135
 IR Inten    --      6.7930                 4.3001                 2.3780

                     19                     20                     21
                      A                      A                      A
 Frequencies --    620.2115               718.8156               730.0475
 Red. masses --      4.9340                 1.3787                 1.3019
 Frc consts  --      1.1182                 0.4197                 0.4088
 IR Inten    --      7.7690                 2.0265                 1.1830

                     22                     23                     24
                      A                      A                      A
 Frequencies --    739.5664               777.7313               853.6377
 Red. masses --      2.7345                 2.0167                 2.3162
 Frc consts  --      0.8812                 0.7187                 0.9944
 IR Inten    --      1.4576                 7.3045                 1.7402

                     25                     26                     27
                      A                      A                      A
 Frequencies --    865.9234               920.6293               941.5084
 Red. masses --      2.2281                 2.3075                 1.3690
 Frc consts  --      0.9843                 1.1523                 0.7150
 IR Inten    --      5.3462                 9.0847                31.4800

                     28                     29                     30
                      A                      A                      A
 Frequencies --    949.4074               968.2203               971.0154
 Red. masses --      1.4011                 2.3143                 1.8226
 Frc consts  --      0.7441                 1.2783                 1.0125
 IR Inten    --     30.7426                 2.7405                 6.4027

                     31                     32                     33
                      A                      A                      A
 Frequencies --    999.5771              1036.9661              1046.7430
 Red. masses --      1.9818                 1.4705                 2.2887
 Frc consts  --      1.1667                 0.9316                 1.4775
 IR Inten    --      8.5191                 7.6572                27.5688

                     34                     35                     36
                      A                      A                      A
 Frequencies --   1067.9670              1084.3894              1092.4387
 Red. masses --      2.0925                 1.7762                 1.9348
 Frc consts  --      1.4061                 1.2306                 1.3604
 IR Inten    --     35.5403                 1.8570                 9.1238

                     37                     38                     39
                      A                      A                      A
 Frequencies --   1150.7384              1189.1758              1251.7081
 Red. masses --      2.1481                 1.3527                 1.9863
 Frc consts  --      1.6759                 1.1270                 1.8336
 IR Inten    --     15.8794                 0.2975                20.6697

                     40                     41                     42
                      A                      A                      A
 Frequencies --   1269.2306              1282.3805              1304.3155
 Red. masses --      1.8148                 1.3459                 1.7783
 Frc consts  --      1.7225                 1.3040                 1.7825
 IR Inten    --     13.9950                 8.0429                10.3929

                     43                     44                     45
                      A                      A                      A
 Frequencies --   1318.2106              1324.3193              1340.1756
 Red. masses --      1.3432                 1.4666                 1.9281
 Frc consts  --      1.3752                 1.5154                 2.0403
 IR Inten    --      4.8575                10.1284                 4.8364

                     46                     47                     48
                      A                      A                      A
 Frequencies --   1366.2733              1393.1245              1428.4434
 Red. masses --      1.4801                 1.4163                 1.2115
 Frc consts  --      1.6279                 1.6195                 1.4564
 IR Inten    --      4.6713                 9.0781                37.6825

                     49                     50                     51
                      A                      A                      A
 Frequencies --   1440.8167              1467.4250              1484.4752
 Red. masses --      1.2198                 1.2345                 1.1975
 Frc consts  --      1.4920                 1.5662                 1.5548
 IR Inten    --      4.1555                 3.7703                12.4416

                     52                     53                     54
                      A                      A                      A
 Frequencies --   1501.3457              1512.0732              1517.7904
 Red. masses --      1.0921                 1.0496                 1.0655
 Frc consts  --      1.4503                 1.4139                 1.4462
 IR Inten    --     10.8546                10.7291                19.5776

                     55                     56                     57
                      A                      A                      A
 Frequencies --   1537.9121              1711.7152              1726.9825
 Red. masses --      1.0712                 4.7464                 5.2866
 Frc consts  --      1.4927                 8.1936                 9.2897
 IR Inten    --      0.8246                13.5510                 7.2500

                     58                     59                     60
                      A                      A                      A
 Frequencies --   1832.8279              3017.0036              3041.1665
 Red. masses --     11.3085                 1.0829                 1.0396
 Frc consts  --     22.3819                 5.8076                 5.6648
 IR Inten    --    201.9017                14.3594                15.8769

                     61                     62                     63
                      A                      A                      A
 Frequencies --   3059.2788              3067.2553              3092.0875
 Red. masses --      1.0673                 1.0622                 1.0985
 Frc consts  --      5.8852                 5.8878                 6.1883
 IR Inten    --      5.8958                31.7719                16.1482

                     64                     65                     66
                      A                      A                      A
 Frequencies --   3103.0934              3111.1102              3133.7114
 Red. masses --      1.0876                 1.0989                 1.0998
 Frc consts  --      6.1706                 6.2667                 6.3635
 IR Inten    --     25.9896                29.7119                23.3440

                     67                     68                     69
                      A                      A                      A
 Frequencies --   3135.9767              3159.5152              3168.3609
 Red. masses --      1.1004                 1.0602                 1.0599
 Frc consts  --      6.3758                 6.2358                 6.2688
 IR Inten    --     14.1859                 7.6238                 6.9001

                     70                     71                     72
                      A                      A                      A
 Frequencies --   3239.6404              3249.5580              3688.3943
 Red. masses --      1.1162                 1.1157                 1.0665
 Frc consts  --      6.9024                 6.9414                 8.5481
 IR Inten    --     11.7727                 8.2968               187.7848

 - Thermochemistry -
 -------------------
 Temperature   298.150 Kelvin.  Pressure   1.00000 Atm.
 Atom     1 has atomic number  6 and mass  12.00000

 Molecular mass:   166.09938 amu.
 Principal axes and moments of inertia in atomic units:
                           1         2         3
     Eigenvalues --  1350.964952233.788682586.28839
           X            0.99925  -0.03552   0.01514
           Y            0.03575   0.99925  -0.01518
           Z           -0.01459   0.01571   0.99977
 This molecule is an asymmetric top.
 Rotational symmetry number  1.
 Warning -- assumption of classical behavior for rotation
           may cause significant error
 Rotational temperatures (Kelvin)      0.06411     0.03877     0.03349
 Rotational constants (GHZ):           1.33589     0.80793     0.69781
 Zero-point vibrational energy     584760.8 (Joules/Mol)
                                  139.76119 (Kcal/Mol)
 Warning -- explicit consideration of  19 degrees of freedom as
           vibrations may cause significant error
 Vibrational temperatures:     61.94   108.07   160.38   185.14   276.26
          (Kelvin)            331.04   352.85   391.80   462.98   494.91
                              532.47   580.99   620.77   632.76   665.41
                              729.06   817.39   885.98   892.35  1034.22
                             1050.38  1064.07  1118.98  1228.19  1245.87
                             1324.58  1354.62  1365.99  1393.05  1397.07
                             1438.17  1491.96  1506.03  1536.57  1560.19
                             1571.78  1655.66  1710.96  1800.93  1826.14
                             1845.06  1876.62  1896.61  1905.40  1928.21
                             1965.76  2004.40  2055.21  2073.01  2111.30
                             2135.83  2160.10  2175.54  2183.76  2212.71
                             2462.78  2484.74  2637.03  4340.80  4375.56
                             4401.62  4413.10  4448.82  4464.66  4476.19
                             4508.71  4511.97  4545.84  4558.56  4661.12
                             4675.39  5306.78

 Zero-point correction=                           0.222724 (Hartree/Particle)
 Thermal correction to Energy=                    0.234631
 Thermal correction to Enthalpy=                  0.235575
 Thermal correction to Gibbs Free Energy=         0.185103
 Sum of electronic and zero-point Energies=           -539.710558
 Sum of electronic and thermal Energies=              -539.698650
 Sum of electronic and thermal Enthalpies=            -539.697706
 Sum of electronic and thermal Free Energies=         -539.748178

                     E (Thermal)             CV                S
                      KCal/Mol        Cal/Mol-Kelvin    Cal/Mol-Kelvin
 Total                  147.233             46.254            106.227
 Electronic               0.000              0.000              0.000
 Translational            0.889              2.981             41.231
 Rotational               0.889              2.981             30.435
 Vibrational            145.456             40.293             34.561
 Vibration     1          0.595              1.980              5.114
 Vibration     2          0.599              1.966              4.015
 Vibration     3          0.607              1.940              3.243
 Vibration     4          0.611              1.925              2.966
 Vibration     5          0.634              1.851              2.208
 Vibration     6          0.652              1.795              1.878
 Vibration     7          0.660              1.771              1.765
 Vibration     8          0.675              1.724              1.581
 Vibration     9          0.707              1.632              1.301
 Vibration    10          0.723              1.588              1.194
 Vibration    11          0.742              1.534              1.079
 Vibration    12          0.769              1.462              0.949
 Vibration    13          0.792              1.402              0.854
 Vibration    14          0.800              1.383              0.827
 Vibration    15          0.820              1.333              0.759
 Vibration    16          0.862              1.235              0.642
 Vibration    17          0.924              1.100              0.508
 Vibration    18          0.975              0.998              0.423
 Vibration    19          0.980              0.989              0.416

 Optimization completed.
    -- Stationary point found.
 Normal termination of Gaussian 16 at Wed Dec  9 18:29:50 2020.

 ----------------------------------------------------------------------
 # B3LYP/6-311++G(d,p) empiricaldispersion=gd3bj scf=xqc pop=npa geom=c
 heck
 ----------------------------------------------------------------------

 ---------------------------------------
 CID_154398231_JID_2828_Energie_neutraal
 ---------------------------------------
 Structure from the checkpoint file:  "JID_2828.chk"
 Charge =  0 Multiplicity = 1

 SCF Done:  E(RB3LYP) =  -540.096426126     A.U. after   15 cycles
 Normal termination of Gaussian 16 at Wed Dec  9 18:32:22 2020.

 ----------------------------------------------------------------------
 # B3LYP/6-311++G(d,p) empiricaldispersion=gd3bj scf=xqc pop=npa geom=c
 heck
 ----------------------------------------------------------------------

 -------------------------------------
 CID_154398231_JID_2828_Energie_kation
 -------------------------------------
 Structure from the checkpoint file:  "JID_2828.chk"
 Charge =  1 Multiplicity = 2

 SCF Done:  E(UB3LYP) =  -539.779184732     A.U. after   24 cycles
 Normal termination of Gaussian 16 at Wed Dec  9 18:37:23 2020.
 Gaussian 16:  ES64L-G16RevA.03 25-Dec-2016

 ----------------------------------------------------------------------
 # B3LYP/6-311++G(d,p) empiricaldispersion=gd3bj scf=xqc pop=npa geom=c
 heck
 ----------------------------------------------------------------------

 ------------------------------------
 CID_154398231_JID_2828_Energie_anion
 ------------------------------------
 Structure from the checkpoint file:  "JID_2828.chk"
 Charge = -1 Multiplicity = 2

                         Standard orientation:
 ---------------------------------------------------------------------
 Center     Atomic      Atomic             Coordinates (Angstroms)
 Number     Number       Type             X           Y           Z
 ---------------------------------------------------------------------
      1          6           0        2.711862   -1.319364    0.185920
      2          6           0        1.929458   -0.033876    0.092514
      3          6           0        2.299113    1.046651    0.794132
      4          6           0        0.778947    0.017923   -0.924000
      5          6           0        0.042210   -1.331026   -1.121703
      6          6           0       -0.892645   -1.687111    0.050635
      7          6           0       -1.889095   -0.556432    0.232743
      8          8           0       -3.091593   -0.691438    0.145304
      9          6           0       -1.227788    0.805938    0.499273
     10          6           0       -0.245182    1.101346   -0.618788
     11          6           0       -0.344890    2.217108   -1.345371
     12          8           0       -0.642832    0.742885    1.805026
     13          1           0        3.577220   -1.204825    0.844174
     14          1           0        3.074524   -1.630931   -0.802537
     15          1           0        2.100234   -2.144020    0.571062
     16          1           0        1.775237    1.993885    0.710640
     17          1           0        3.158466    1.017703    1.458388
     18          1           0        1.249107    0.259941   -1.888248
     19          1           0       -0.559430   -1.249678   -2.034651
     20          1           0        0.758987   -2.139550   -1.292191
     21          1           0       -0.314992   -1.801751    0.976416
     22          1           0       -1.435018   -2.616836   -0.137605
     23          1           0       -2.015540    1.563602    0.527509
     24          1           0       -1.102303    2.967414   -1.135558
     25          1           0        0.325059    2.416911   -2.178236
     26          1           0        0.311914    0.589615    1.706070
 ---------------------------------------------------------------------

 SCF Done:  E(UB3LYP) =  -540.091108614     A.U. after   33 cycles
 SCF Done:  E(UB3LYP) =  -540.091108614     a.u. after    1 cycles

 The electronic state is 2-A.
 Alpha  occ. eigenvalues --  -19.00472 -18.98035 -10.11755 -10.10778 -10.08167
 Alpha  occ. eigenvalues --  -10.07902 -10.06876 -10.06441 -10.05800 -10.05614
 Alpha  occ. eigenvalues --  -10.05219 -10.05021  -0.92066  -0.90321  -0.73786
 Alpha  occ. eigenvalues --   -0.68279  -0.66015  -0.60366  -0.58208  -0.56696
 Alpha  occ. eigenvalues --   -0.50561  -0.45963  -0.43277  -0.41407  -0.38053
 Alpha  occ. eigenvalues --   -0.36638  -0.35105  -0.34819  -0.33456  -0.31792
 Alpha  occ. eigenvalues --   -0.31135  -0.30821  -0.29650  -0.28080  -0.27109
 Alpha  occ. eigenvalues --   -0.26658  -0.25684  -0.24595  -0.23229  -0.22155
 Alpha  occ. eigenvalues --   -0.20872  -0.18613  -0.15737  -0.14862  -0.11277
 Alpha  occ. eigenvalues --    0.04632
 Alpha virt. eigenvalues --    0.07119   0.08075   0.08423   0.09156   0.10338
 Alpha virt. eigenvalues --    0.10669   0.10842   0.11170   0.11651   0.12403
 Alpha virt. eigenvalues --    0.13021   0.13658   0.13927   0.14625   0.14905

  Beta  occ. eigenvalues --  -19.00408 -18.97808 -10.11568 -10.10791 -10.08095
  Beta  occ. eigenvalues --  -10.07903 -10.06810 -10.06390 -10.05811 -10.05555
  Beta  occ. eigenvalues --  -10.05215 -10.04901  -0.91736  -0.90080  -0.73659
  Beta  occ. eigenvalues --   -0.68133  -0.65870  -0.60199  -0.58120  -0.56534
  Beta  occ. eigenvalues --   -0.50451  -0.45734  -0.43001  -0.41252  -0.37965
  Beta  occ. eigenvalues --   -0.36493  -0.34996  -0.34683  -0.33326  -0.31631
  Beta  occ. eigenvalues --   -0.30949  -0.30689  -0.29514  -0.28008  -0.26899
  Beta  occ. eigenvalues --   -0.26462  -0.25474  -0.24257  -0.23138  -0.21779
  Beta  occ. eigenvalues --   -0.20667  -0.18469  -0.15178  -0.14694  -0.11050
  Beta virt. eigenvalues --    0.07502   0.08371   0.08863   0.08988   0.09354
  Beta virt. eigenvalues --    0.10672   0.10871   0.11498   0.11634   0.12029
  Beta virt. eigenvalues --    0.12978   0.13282   0.14063   0.14220   0.14899

 Mulliken charges and spin densities:
               1          2
     1  C    2.171013  -2.675067
     2  C   -1.296475   1.584099
     3  C    0.190576  -1.128301
     4  C   -0.064768   0.505804
     5  C    0.316463  -0.976391
     6  C   -0.303677   0.037735
     7  C   -0.013505   0.044639
     8  O   -0.327885   0.077051
     9  C   -1.054449   0.129100
    10  C   -0.020368   0.696819
    11  C    0.299300  -0.483581
    12  O   -0.200153   0.003927
    13  H   -0.288069   0.433237
    14  H   -0.572162   0.754366
    15  H   -0.240983   0.407967
    16  H    0.199693  -0.003643
    17  H   -0.157314   0.274984
    18  H   -0.229071   0.470192
    19  H    0.158265   0.018666
    20  H   -0.430217   0.620405
    21  H    0.128040   0.030018
    22  H    0.129753   0.053355
    23  H    0.196212  -0.000618
    24  H    0.096175   0.004200
    25  H   -0.023520   0.132918
    26  H    0.337127  -0.011878
 Sum of Mulliken charges =  -1.00000   1.00000

 Dipole moment (field-independent basis, Debye):
    X=             -2.1485    Y=              2.7900    Z=              0.5639  Tot=              3.5662
 Quadrupole moment (field-independent basis, Debye-Ang):
   XX=           -133.5958   YY=           -105.4693   ZZ=            -98.5461
   XY=              6.4335   XZ=              7.4179   YZ=             -4.2865

 Summary of Natural Population Analysis:

                                       Natural Population
                Natural  -----------------------------------------------
    Atom  No    Charge         Core      Valence    Rydberg      Total
 -----------------------------------------------------------------------
      C    1   -0.30322      0.99961     2.29633    0.00728     3.30322
      C    2    0.01880      0.99950     1.96881    0.01289     2.98120
      C    3   -0.22447      0.99949     2.21572    0.00926     3.22447
      C    4   -0.14394      0.99949     2.12939    0.01505     3.14394
      C    5   -0.18339      0.99962     2.17435    0.00943     3.18339
      C    6   -0.24302      0.99958     2.23355    0.00989     3.24302
      C    7    0.31467      0.99964     1.66275    0.02294     2.68533
      O    8   -0.27339      0.99987     3.26614    0.00739     4.27339
      C    9    0.01318      0.99943     1.97097    0.01642     2.98682
      C   10   -0.00330      0.99949     1.99174    0.01207     3.00330
      C   11   -0.16552      0.99948     2.15857    0.00748     3.16552
      O   12   -0.37195      0.99990     3.36621    0.00584     4.37195
      H   13    0.10376      0.00000     0.39476    0.00148     0.39624
      H   14    0.11065      0.00000     0.38458    0.00477     0.38935
      H   15    0.10466      0.00000     0.39410    0.00124     0.39534
      H   16    0.10425      0.00000     0.39474    0.00101     0.39575
      H   17    0.09547      0.00000     0.40371    0.00082     0.40453
      H   18    0.11176      0.00000     0.38628    0.00196     0.38824
      H   19    0.09891      0.00000     0.39991    0.00117     0.40109
      H   20    0.10850      0.00000     0.38945    0.00205     0.39150
      H   21    0.10837      0.00000     0.39027    0.00135     0.39163
      H   22    0.10641      0.00000     0.39230    0.00129     0.39359
      H   23    0.09100      0.00000     0.40713    0.00187     0.40900
      H   24    0.09045      0.00000     0.40852    0.00103     0.40955
      H   25    0.09068      0.00000     0.40830    0.00101     0.40932
      H   26    0.24068      0.00000     0.25621    0.00312     0.25932
 =======================================================================
   * Total *   -0.00000     11.99510    32.84480    0.16010    45.00000

 Normal termination of Gaussian 16 at Wed Dec  9 18:44:14 2020.
