 Gaussian 16, Revision A.03,

 -----------------------------------------------------------
 # opt freq B3LYP/6-31G(d) empiricaldispersion=gd3bj scf=xqc
 -----------------------------------------------------------

 ------------------------------
 CID_66170159_JID_5124_neutraal
 ------------------------------
 Symbolic Z-matrix:
 Charge =  0 Multiplicity = 1

 SCF Done:  E(RB3LYP) =  -730.689364540     A.U. after   12 cycles
 SCF Done:  E(RB3LYP) =  -730.693491012     A.U. after   11 cycles
 SCF Done:  E(RB3LYP) =  -730.690767142     A.U. after   11 cycles
 SCF Done:  E(RB3LYP) =  -730.694279661     A.U. after   10 cycles
 SCF Done:  E(RB3LYP) =  -730.694939165     A.U. after   11 cycles
 SCF Done:  E(RB3LYP) =  -730.695434972     A.U. after   11 cycles
 SCF Done:  E(RB3LYP) =  -730.695099073     A.U. after   11 cycles
 SCF Done:  E(RB3LYP) =  -730.695817503     A.U. after   11 cycles
 SCF Done:  E(RB3LYP) =  -730.695873189     A.U. after   10 cycles
 SCF Done:  E(RB3LYP) =  -730.695888443     A.U. after   10 cycles
 SCF Done:  E(RB3LYP) =  -730.696186500     A.U. after   11 cycles
 SCF Done:  E(RB3LYP) =  -730.696190073     A.U. after    8 cycles
 SCF Done:  E(RB3LYP) =  -730.696190857     A.U. after    7 cycles
 SCF Done:  E(RB3LYP) =  -730.696191536     A.U. after    7 cycles
 SCF Done:  E(RB3LYP) =  -730.696191683     A.U. after    7 cycles
 SCF Done:  E(RB3LYP) =  -730.696191723     A.U. after    6 cycles
 Optimization completed.
    -- Stationary point found.
 Normal termination of Gaussian 16 at Thu Dec 10 15:11:57 2020.

 --------------------------------------------------------------------
 #N Geom=AllCheck Guess=TCheck SCRF=Check GenChk RB3LYP/6-31G(d) Freq
 --------------------------------------------------------------------

 Structure from the checkpoint file:  "JID_5124.chk"
 ------------------------------
 CID_66170159_JID_5124_neutraal
 ------------------------------
 Charge =  0 Multiplicity = 1

 SCF Done:  E(RB3LYP) =  -730.696191723     A.U. after    1 cycles

  Exact polarizability: 148.442  -0.850 128.127  -4.964   0.359 116.249
 Approx polarizability: 185.643  -1.919 176.585  -6.239  -2.233 173.081

                      1                      2                      3
                      A                      A                      A
 Frequencies --     36.7777                47.9178                56.0592
 Red. masses --      3.6423                 4.4750                 4.8873
 Frc consts  --      0.0029                 0.0061                 0.0090
 IR Inten    --      0.2395                 0.8025                 1.3722

                      4                      5                      6
                      A                      A                      A
 Frequencies --     76.2915                90.9070               117.1638
 Red. masses --      3.6323                 2.6342                 3.3089
 Frc consts  --      0.0125                 0.0128                 0.0268
 IR Inten    --      1.3688                 0.5650                 1.9569

                      7                      8                      9
                      A                      A                      A
 Frequencies --    118.8420               127.8539               135.6414
 Red. masses --      2.2621                 2.6457                 3.6101
 Frc consts  --      0.0188                 0.0255                 0.0391
 IR Inten    --      0.2045                 1.4026                 0.8914

                     10                     11                     12
                      A                      A                      A
 Frequencies --    169.3207               192.8366               219.7599
 Red. masses --      1.9174                 4.3486                 1.6118
 Frc consts  --      0.0324                 0.0953                 0.0459
 IR Inten    --      1.0752                 3.7807                 2.0510

                     13                     14                     15
                      A                      A                      A
 Frequencies --    222.7451               237.8123               270.8402
 Red. masses --      2.1920                 3.0424                 1.3848
 Frc consts  --      0.0641                 0.1014                 0.0599
 IR Inten    --      3.3027                 2.0271                 3.8579

                     16                     17                     18
                      A                      A                      A
 Frequencies --    285.8979               297.1968               325.6298
 Red. masses --      2.1086                 1.4316                 2.1299
 Frc consts  --      0.1015                 0.0745                 0.1331
 IR Inten    --     18.6726               109.6807                26.5266

                     19                     20                     21
                      A                      A                      A
 Frequencies --    329.0989               370.5608               382.8058
 Red. masses --      2.4697                 2.6268                 3.0308
 Frc consts  --      0.1576                 0.2125                 0.2617
 IR Inten    --     10.1005                 1.5860                 2.1949

                     22                     23                     24
                      A                      A                      A
 Frequencies --    407.8249               438.5730               448.0513
 Red. masses --      1.4874                 1.6960                 1.9555
 Frc consts  --      0.1458                 0.1922                 0.2313
 IR Inten    --     28.0851                87.9024                 6.8313

                     25                     26                     27
                      A                      A                      A
 Frequencies --    487.4914               522.6797               527.2418
 Red. masses --      2.5970                 3.0219                 3.0786
 Frc consts  --      0.3636                 0.4864                 0.5042
 IR Inten    --      5.1853                 8.4686                 3.5152

                     28                     29                     30
                      A                      A                      A
 Frequencies --    592.9682               636.4244               655.5589
 Red. masses --      1.1249                 2.4650                 2.9822
 Frc consts  --      0.2330                 0.5882                 0.7551
 IR Inten    --     72.7260                22.7752                14.5473

                     31                     32                     33
                      A                      A                      A
 Frequencies --    776.7837               787.8820               800.9940
 Red. masses --      2.0779                 1.6837                 1.2836
 Frc consts  --      0.7387                 0.6158                 0.4852
 IR Inten    --     13.3036                22.1077                 7.5313

                     34                     35                     36
                      A                      A                      A
 Frequencies --    822.1782               827.0005               851.1430
 Red. masses --      1.1897                 2.6151                 1.8946
 Frc consts  --      0.4738                 1.0538                 0.8087
 IR Inten    --      6.3932                22.2784                29.6772

                     37                     38                     39
                      A                      A                      A
 Frequencies --    912.9199               936.9168               950.2276
 Red. masses --      1.9652                 1.9242                 2.5491
 Frc consts  --      0.9650                 0.9952                 1.3561
 IR Inten    --     17.5022                29.3070                27.4190

                     40                     41                     42
                      A                      A                      A
 Frequencies --    962.4112               992.1112               999.9727
 Red. masses --      2.1759                 2.1351                 2.0552
 Frc consts  --      1.1874                 1.2382                 1.2108
 IR Inten    --     26.2467                 4.5037                15.2046

                     43                     44                     45
                      A                      A                      A
 Frequencies --   1042.1770              1069.8122              1082.2476
 Red. masses --      2.6651                 2.6418                 2.0350
 Frc consts  --      1.7055                 1.7814                 1.4043
 IR Inten    --     29.2096                60.5920                 2.0869

                     46                     47                     48
                      A                      A                      A
 Frequencies --   1097.1382              1109.3480              1113.3324
 Red. masses --      2.1490                 2.6781                 2.3310
 Frc consts  --      1.5241                 1.9419                 1.7024
 IR Inten    --     10.7557                67.7327                64.0508

                     49                     50                     51
                      A                      A                      A
 Frequencies --   1126.9900              1131.1507              1138.0622
 Red. masses --      2.7190                 1.8873                 2.2400
 Frc consts  --      2.0347                 1.4228                 1.7093
 IR Inten    --     16.9376                18.4125                16.3142

                     52                     53                     54
                      A                      A                      A
 Frequencies --   1144.7420              1177.4047              1193.3597
 Red. masses --      1.7410                 2.6455                 1.2251
 Frc consts  --      1.3442                 2.1608                 1.0279
 IR Inten    --     45.2382                63.5212                18.1631

                     55                     56                     57
                      A                      A                      A
 Frequencies --   1223.2577              1245.6189              1268.1089
 Red. masses --      1.5071                 1.3437                 2.0040
 Frc consts  --      1.3287                 1.2283                 1.8987
 IR Inten    --     28.2642                27.8574                28.3288

                     58                     59                     60
                      A                      A                      A
 Frequencies --   1272.3349              1284.4357              1316.3201
 Red. masses --      1.2532                 1.1587                 1.3171
 Frc consts  --      1.1953                 1.1263                 1.3446
 IR Inten    --     42.0161                 4.3689                12.8972

                     61                     62                     63
                      A                      A                      A
 Frequencies --   1318.1772              1341.4599              1361.2155
 Red. masses --      1.2158                 1.2387                 1.3795
 Frc consts  --      1.2447                 1.3133                 1.5060
 IR Inten    --     18.2525                 4.7746                11.1343

                     64                     65                     66
                      A                      A                      A
 Frequencies --   1375.2497              1379.0408              1397.2424
 Red. masses --      1.3247                 1.3665                 1.3398
 Frc consts  --      1.4762                 1.5311                 1.5411
 IR Inten    --     20.1686                29.8049                23.9317

                     67                     68                     69
                      A                      A                      A
 Frequencies --   1401.4792              1416.0009              1416.9918
 Red. masses --      1.3139                 1.3198                 1.3485
 Frc consts  --      1.5205                 1.5591                 1.5953
 IR Inten    --      4.9445                 6.3867                 6.5270

                     70                     71                     72
                      A                      A                      A
 Frequencies --   1422.9947              1429.6630              1434.7328
 Red. masses --      1.3337                 1.2827                 1.2543
 Frc consts  --      1.5911                 1.5447                 1.5212
 IR Inten    --      3.4371                 4.9840                11.9885

                     73                     74                     75
                      A                      A                      A
 Frequencies --   1439.9788              1450.6614              1469.0102
 Red. masses --      1.2207                 1.4170                 1.4908
 Frc consts  --      1.4914                 1.7570                 1.8954
 IR Inten    --     59.0805                17.7888                11.7652

                     76                     77                     78
                      A                      A                      A
 Frequencies --   1473.4870              1499.5388              1505.0150
 Red. masses --      1.2659                 1.1457                 1.0781
 Frc consts  --      1.6193                 1.5178                 1.4388
 IR Inten    --    113.3764                 5.8938                 1.6462

                     79                     80                     81
                      A                      A                      A
 Frequencies --   1506.3101              1510.9167              1522.6347
 Red. masses --      1.1039                 1.0981                 1.0523
 Frc consts  --      1.4757                 1.4770                 1.4374
 IR Inten    --      4.5034                 7.4751                 3.4508

                     82                     83                     84
                      A                      A                      A
 Frequencies --   1527.5212              1531.5155              1533.5972
 Red. masses --      1.0585                 1.0644                 1.0913
 Frc consts  --      1.4552                 1.4710                 1.5123
 IR Inten    --      8.3610                 2.1347                31.1591

                     85                     86                     87
                      A                      A                      A
 Frequencies --   1535.8452              1545.1116              1554.8231
 Red. masses --      1.0700                 1.0842                 1.0939
 Frc consts  --      1.4871                 1.5250                 1.5581
 IR Inten    --      5.3736                 6.5212                 0.6640

                     88                     89                     90
                      A                      A                      A
 Frequencies --   2926.0557              3006.3849              3012.3617
 Red. masses --      1.0736                 1.0691                 1.0658
 Frc consts  --      5.4157                 5.6930                 5.6982
 IR Inten    --    119.5203                57.0645                46.6726

                     91                     92                     93
                      A                      A                      A
 Frequencies --   3031.4285              3042.0426              3046.4878
 Red. masses --      1.0564                 1.0823                 1.0609
 Frc consts  --      5.7199                 5.9008                 5.8011
 IR Inten    --     34.2600                40.1660                32.1495

                     94                     95                     96
                      A                      A                      A
 Frequencies --   3051.4434              3053.5252              3063.9486
 Red. masses --      1.0373                 1.0426                 1.0601
 Frc consts  --      5.6905                 5.7278                 5.8633
 IR Inten    --     19.4744                18.8199                31.3263

                     97                     98                     99
                      A                      A                      A
 Frequencies --   3070.6667              3071.6547              3074.2412
 Red. masses --      1.0907                 1.1034                 1.0942
 Frc consts  --      6.0593                 6.1339                 6.0927
 IR Inten    --     20.6078                54.2586                21.8546

                    100                    101                    102
                      A                      A                      A
 Frequencies --   3077.3865              3080.7815              3095.0290
 Red. masses --      1.0874                 1.0939                 1.0995
 Frc consts  --      6.0675                 6.1169                 6.2056
 IR Inten    --     37.9380                25.5753                66.8415

                    103                    104                    105
                      A                      A                      A
 Frequencies --   3111.9535              3113.8592              3114.7972
 Red. masses --      1.1058                 1.1010                 1.0983
 Frc consts  --      6.3094                 6.2895                 6.2779
 IR Inten    --     36.0385                45.2645                43.7064

                    106                    107                    108
                      A                      A                      A
 Frequencies --   3133.6907              3134.2925              3531.9466
 Red. masses --      1.1010                 1.1029                 1.0729
 Frc consts  --      6.3702                 6.3834                 7.8859
 IR Inten    --     41.2450                37.2355                 2.6400

                    109                    110                    111
                      A                      A                      A
 Frequencies --   3590.1223              3714.9724              3768.7695
 Red. masses --      1.0645                 1.0655                 1.0667
 Frc consts  --      8.0836                 8.6639                 8.9265
 IR Inten    --     95.6018                18.2286                22.5872

 - Thermochemistry -
 -------------------
 Temperature   298.150 Kelvin.  Pressure   1.00000 Atm.
 Atom     1 has atomic number  6 and mass  12.00000

 Molecular mass:   220.17869 amu.
 Principal axes and moments of inertia in atomic units:
                           1         2         3
     Eigenvalues --  2320.365905357.261666242.64859
           X            0.99988   0.00847  -0.01326
           Y           -0.00822   0.99980   0.01825
           Z            0.01342  -0.01813   0.99975
 This molecule is an asymmetric top.
 Rotational symmetry number  1.
 Warning -- assumption of classical behavior for rotation
           may cause significant error
 Rotational temperatures (Kelvin)      0.03733     0.01617     0.01387
 Rotational constants (GHZ):           0.77778     0.33688     0.28910
 Zero-point vibrational energy     931312.0 (Joules/Mol)
                                  222.58891 (Kcal/Mol)
 Warning -- explicit consideration of  28 degrees of freedom as
           vibrations may cause significant error
 Vibrational temperatures:     52.91    68.94    80.66   109.77   130.79
          (Kelvin)            168.57   170.99   183.95   195.16   243.61
                              277.45   316.19   320.48   342.16   389.68
                              411.34   427.60   468.51   473.50   533.15
                              550.77   586.77   631.01   644.65   701.39
                              752.02   758.58   853.15   915.67   943.20
                             1117.62  1133.59  1152.45  1182.93  1189.87
                             1224.60  1313.49  1348.01  1367.17  1384.70
                             1427.43  1438.74  1499.46  1539.22  1557.11
                             1578.54  1596.10  1601.84  1621.49  1627.47
                             1637.42  1647.03  1694.02  1716.98  1760.00
                             1792.17  1824.53  1830.61  1848.02  1893.89
                             1896.56  1930.06  1958.49  1978.68  1984.13
                             2010.32  2016.42  2037.31  2038.74  2047.37
                             2056.97  2064.26  2071.81  2087.18  2113.58
                             2120.02  2157.50  2165.38  2167.24  2173.87
                             2190.73  2197.76  2203.51  2206.50  2209.74
                             2223.07  2237.04  4209.94  4325.52  4334.12
                             4361.55  4376.82  4383.22  4390.35  4393.34
                             4408.34  4418.00  4419.43  4423.15  4427.67
                             4432.56  4453.06  4477.41  4480.15  4481.50
                             4508.68  4509.55  5081.68  5165.39  5345.02
                             5422.42

 Zero-point correction=                           0.354718 (Hartree/Particle)
 Thermal correction to Energy=                    0.373025
 Thermal correction to Enthalpy=                  0.373969
 Thermal correction to Gibbs Free Energy=         0.308497
 Sum of electronic and zero-point Energies=           -730.341474
 Sum of electronic and thermal Energies=              -730.323167
 Sum of electronic and thermal Enthalpies=            -730.322223
 Sum of electronic and thermal Free Energies=         -730.387695

                     E (Thermal)             CV                S
                      KCal/Mol        Cal/Mol-Kelvin    Cal/Mol-Kelvin
 Total                  234.076             67.799            137.797
 Electronic               0.000              0.000              0.000
 Translational            0.889              2.981             42.071
 Rotational               0.889              2.981             32.717
 Vibrational            232.299             61.837             63.009
 Vibration     1          0.594              1.982              5.426
 Vibration     2          0.595              1.978              4.902
 Vibration     3          0.596              1.975              4.591
 Vibration     4          0.599              1.965              3.984
 Vibration     5          0.602              1.956              3.640
 Vibration     6          0.608              1.935              3.147
 Vibration     7          0.609              1.934              3.119
 Vibration     8          0.611              1.925              2.978
 Vibration     9          0.613              1.918              2.864
 Vibration    10          0.625              1.880              2.443
 Vibration    11          0.635              1.850              2.200
 Vibration    12          0.647              1.811              1.961
 Vibration    13          0.648              1.806              1.937
 Vibration    14          0.656              1.783              1.819
 Vibration    15          0.675              1.727              1.591
 Vibration    16          0.684              1.700              1.498
 Vibration    17          0.691              1.679              1.433
 Vibration    18          0.710              1.624              1.282
 Vibration    19          0.712              1.617              1.265
 Vibration    20          0.743              1.533              1.077
 Vibration    21          0.752              1.507              1.028
 Vibration    22          0.772              1.453              0.934
 Vibration    23          0.799              1.386              0.831
 Vibration    24          0.807              1.365              0.802
 Vibration    25          0.843              1.278              0.690
 Vibration    26          0.878              1.200              0.604
 Vibration    27          0.882              1.190              0.593
 Vibration    28          0.951              1.047              0.462

 Optimization completed.
    -- Stationary point found.
 Normal termination of Gaussian 16 at Thu Dec 10 15:26:22 2020.

 ----------------------------------------------------------------------
 # B3LYP/6-311++G(d,p) empiricaldispersion=gd3bj scf=xqc pop=npa geom=c
 heck
 ----------------------------------------------------------------------

 --------------------------------------
 CID_66170159_JID_5124_Energie_neutraal
 --------------------------------------
 Structure from the checkpoint file:  "JID_5124.chk"
 Charge =  0 Multiplicity = 1

 SCF Done:  E(RB3LYP) =  -730.940802626     A.U. after   13 cycles
 Normal termination of Gaussian 16 at Thu Dec 10 15:32:33 2020.

 ----------------------------------------------------------------------
 # B3LYP/6-311++G(d,p) empiricaldispersion=gd3bj scf=xqc pop=npa geom=c
 heck
 ----------------------------------------------------------------------

 ------------------------------------
 CID_66170159_JID_5124_Energie_kation
 ------------------------------------
 Structure from the checkpoint file:  "JID_5124.chk"
 Charge =  1 Multiplicity = 2

 SCF Done:  E(UB3LYP) =  -730.666451806     A.U. after   23 cycles
 Normal termination of Gaussian 16 at Thu Dec 10 15:47:30 2020.
 Gaussian 16:  ES64L-G16RevA.03 25-Dec-2016

 ----------------------------------------------------------------------
 # B3LYP/6-311++G(d,p) empiricaldispersion=gd3bj scf=xqc pop=npa geom=c
 heck
 ----------------------------------------------------------------------

 -----------------------------------
 CID_66170159_JID_5124_Energie_anion
 -----------------------------------
 Structure from the checkpoint file:  "JID_5124.chk"
 Charge = -1 Multiplicity = 2

                         Standard orientation:
 ---------------------------------------------------------------------
 Center     Atomic      Atomic             Coordinates (Angstroms)
 Number     Number       Type             X           Y           Z
 ---------------------------------------------------------------------
      1          6           0       -0.764921   -2.278917   -1.305518
      2          6           0       -1.538567   -1.777189   -0.083632
      3          7           0       -2.462247   -0.694938   -0.370955
      4          6           0       -3.553691   -0.554214    0.581845
      5          6           0       -3.176121   -0.298250    2.051698
      6          6           0       -1.995102    0.519717   -1.021104
      7          6           0       -1.364577    1.657744   -0.177558
      8          6           0       -0.035029    1.296822    0.501940
      9          7           0        0.989066    1.148884   -0.533983
     10          6           0        2.378758    1.215892   -0.099050
     11          6           0        2.863701    0.116761    0.873906
     12          6           0        2.407413   -1.276642    0.458269
     13          8           0        2.777825   -1.453994   -0.913111
     14          8           0        4.282407    0.175277    0.987149
     15          8           0       -1.152035    2.779457   -1.022967
     16          1           0       -0.245032   -3.211179   -1.054311
     17          1           0       -0.004596   -1.571411   -1.651902
     18          1           0       -1.450032   -2.476473   -2.135957
     19          1           0       -2.148765   -2.608234    0.294734
     20          1           0       -0.819928   -1.550309    0.727318
     21          1           0       -4.199626    0.256378    0.223595
     22          1           0       -4.157087   -1.474030    0.542500
     23          1           0       -2.632459    0.642592    2.179820
     24          1           0       -4.080189   -0.252369    2.670474
     25          1           0       -2.547795   -1.104941    2.445657
     26          1           0       -1.289241    0.244958   -1.813235
     27          1           0       -2.848436    0.977580   -1.536919
     28          1           0       -2.081463    1.971199    0.589076
     29          1           0        0.265942    2.139913    1.135036
     30          1           0       -0.153149    0.419849    1.156320
     31          1           0        0.852584    0.288784   -1.058162
     32          1           0        3.004331    1.162690   -0.996680
     33          1           0        2.560721    2.192878    0.362081
     34          1           0        2.480538    0.306308    1.883034
     35          1           0        2.904744   -2.013777    1.103349
     36          1           0        1.322149   -1.381583    0.588038
     37          1           0        2.610774   -2.376182   -1.156583
     38          1           0        4.626863   -0.120782    0.127624
     39          1           0       -0.255333    2.624261   -1.383685
 ---------------------------------------------------------------------

 SCF Done:  E(UB3LYP) =  -730.933918507     A.U. after   27 cycles

 The electronic state is 2-A.
 Alpha  occ. eigenvalues --  -19.03093 -19.02842 -19.02241 -14.21905 -14.20676
 Alpha  occ. eigenvalues --  -10.12815 -10.12595 -10.11757 -10.10784 -10.10429
 Alpha  occ. eigenvalues --  -10.10420 -10.09923 -10.09745 -10.06911 -10.06026
 Alpha  occ. eigenvalues --   -0.94229  -0.93136  -0.91949  -0.82943  -0.82173
 Alpha  occ. eigenvalues --   -0.67705  -0.66969  -0.65531  -0.62981  -0.59497
 Alpha  occ. eigenvalues --   -0.57080  -0.53671  -0.51992  -0.49956  -0.46490
 Alpha  occ. eigenvalues --   -0.44192  -0.41728  -0.41411  -0.40138  -0.38640
 Alpha  occ. eigenvalues --   -0.38002  -0.37674  -0.36455  -0.35981  -0.34936
 Alpha  occ. eigenvalues --   -0.33324  -0.32519  -0.32225  -0.31070  -0.30390
 Alpha  occ. eigenvalues --   -0.29597  -0.29129  -0.27463  -0.27335  -0.26754
 Alpha  occ. eigenvalues --   -0.26076  -0.26036  -0.24956  -0.24636  -0.24269
 Alpha  occ. eigenvalues --   -0.23047  -0.20272  -0.19186  -0.18573  -0.14592
 Alpha  occ. eigenvalues --   -0.10903   0.04078
 Alpha virt. eigenvalues --    0.05993   0.07163   0.07596   0.08280   0.08734
 Alpha virt. eigenvalues --    0.09092   0.09641   0.09877   0.10375   0.11178
 Alpha virt. eigenvalues --    0.11498   0.11902   0.12630   0.13078   0.13334

  Beta  occ. eigenvalues --  -19.03079 -19.02779 -19.02240 -14.21899 -14.20678
  Beta  occ. eigenvalues --  -10.12812 -10.12591 -10.11722 -10.10776 -10.10419
  Beta  occ. eigenvalues --  -10.10409 -10.09917 -10.09722 -10.06890 -10.05981
  Beta  occ. eigenvalues --   -0.94169  -0.93133  -0.91847  -0.82932  -0.82162
  Beta  occ. eigenvalues --   -0.67678  -0.66931  -0.65483  -0.62935  -0.59453
  Beta  occ. eigenvalues --   -0.57030  -0.53603  -0.51957  -0.49911  -0.46451
  Beta  occ. eigenvalues --   -0.44102  -0.41671  -0.41388  -0.40107  -0.38610
  Beta  occ. eigenvalues --   -0.37969  -0.37643  -0.36426  -0.35954  -0.34914
  Beta  occ. eigenvalues --   -0.33302  -0.32491  -0.32202  -0.31040  -0.30357
  Beta  occ. eigenvalues --   -0.29559  -0.29092  -0.27437  -0.27296  -0.26734
  Beta  occ. eigenvalues --   -0.26032  -0.25977  -0.24931  -0.24606  -0.24236
  Beta  occ. eigenvalues --   -0.23033  -0.20239  -0.19179  -0.18518  -0.14578
  Beta  occ. eigenvalues --   -0.10897
  Beta virt. eigenvalues --    0.06245   0.07095   0.07404   0.08010   0.08572
  Beta virt. eigenvalues --    0.09172   0.09270   0.09933   0.10203   0.10674
  Beta virt. eigenvalues --    0.11461   0.11715   0.12149   0.12754   0.13378

 Mulliken charges and spin densities:
               1          2
     1  C    1.390166  -1.935451
     2  C   -0.903939   0.639213
     3  N    0.158960   0.052270
     4  C   -0.410875   0.197542
     5  C    0.350761  -0.792266
     6  C   -0.138364  -0.263365
     7  C   -0.617992   0.061903
     8  C   -0.249023  -0.084386
     9  N   -0.170442   0.038240
    10  C    0.222894  -0.621647
    11  C   -0.330631   0.131699
    12  C    0.381416  -0.644882
    13  O   -0.202393  -0.051961
    14  O   -0.222584   0.031712
    15  O   -0.159490   0.007949
    16  H   -0.705099   0.888417
    17  H    0.179563  -0.069545
    18  H    0.050151   0.096999
    19  H   -0.257897   0.414983
    20  H    0.009607   0.080301
    21  H    0.018067   0.090322
    22  H   -0.009578   0.178863
    23  H   -0.076990   0.183774
    24  H   -0.290517   0.434371
    25  H   -0.197231   0.349223
    26  H    0.096951   0.045161
    27  H    0.146175   0.035657
    28  H    0.235250  -0.017026
    29  H    0.055973   0.123874
    30  H    0.458527  -0.318072
    31  H    0.157265   0.120913
    32  H    0.118128   0.093523
    33  H    0.096860   0.040863
    34  H   -0.038127   0.257799
    35  H   -0.664598   0.877267
    36  H    0.349210  -0.315487
    37  H   -0.277118   0.569925
    38  H    0.179530   0.078803
    39  H    0.267435  -0.007478
 Sum of Mulliken charges =  -1.00000   1.00000

 Dipole moment (field-independent basis, Debye):
    X=             -2.1933    Y=              6.7858    Z=             -0.6254  Tot=              7.1588
 Quadrupole moment (field-independent basis, Debye-Ang):
   XX=           -163.6426   YY=           -160.7438   ZZ=           -132.4972
   XY=             10.1374   XZ=              2.2640   YZ=              0.4123

 Summary of Natural Population Analysis:

                                       Natural Population
                Natural  -----------------------------------------------
    Atom  No    Charge         Core      Valence    Rydberg      Total
 -----------------------------------------------------------------------
      C    1   -0.29083      0.99966     2.28444    0.00673     3.29083
      C    2   -0.08313      0.99961     2.07148    0.01204     3.08313
      N    3   -0.28579      0.99971     2.77280    0.01327     3.78579
      C    4   -0.08009      0.99963     2.06911    0.01136     3.08009
      C    5   -0.29744      0.99966     2.29262    0.00516     3.29744
      C    6   -0.09355      0.99958     2.08136    0.01261     3.09355
      C    7    0.05208      0.99957     1.93571    0.01264     2.94792
      C    8   -0.10355      0.99960     2.09351    0.01043     3.10355
      N    9   -0.35986      0.99974     2.84815    0.01197     3.85986
      C   10   -0.09420      0.99961     2.08205    0.01255     3.09420
      C   11    0.04551      0.99956     1.94068    0.01424     2.95449
      C   12   -0.02779      0.99957     2.01451    0.01371     3.02779
      O   13   -0.38509      0.99989     3.37789    0.00731     4.38509
      O   14   -0.37064      0.99990     3.36427    0.00648     4.37064
      O   15   -0.38029      0.99990     3.37382    0.00658     4.38029
      H   16    0.10818      0.00000     0.38959    0.00223     0.39182
      H   17    0.09190      0.00000     0.40629    0.00181     0.40810
      H   18    0.09911      0.00000     0.39964    0.00125     0.40089
      H   19    0.09574      0.00000     0.40280    0.00146     0.40426
      H   20    0.07650      0.00000     0.42107    0.00243     0.42350
      H   21    0.09070      0.00000     0.40833    0.00097     0.40930
      H   22    0.09064      0.00000     0.40820    0.00116     0.40936
      H   23    0.09312      0.00000     0.40551    0.00137     0.40688
      H   24    0.09809      0.00000     0.40063    0.00128     0.40191
      H   25    0.10029      0.00000     0.39842    0.00129     0.39971
      H   26    0.09566      0.00000     0.40295    0.00139     0.40434
      H   27    0.09678      0.00000     0.40205    0.00116     0.40322
      H   28    0.08381      0.00000     0.41454    0.00165     0.41619
      H   29    0.09537      0.00000     0.40362    0.00101     0.40463
      H   30    0.08990      0.00000     0.40847    0.00164     0.41010
      H   31    0.18397      0.00000     0.31209    0.00395     0.31603
      H   32    0.09924      0.00000     0.39961    0.00115     0.40076
      H   33    0.09387      0.00000     0.40501    0.00112     0.40613
      H   34    0.08816      0.00000     0.41057    0.00127     0.41184
      H   35    0.08864      0.00000     0.40907    0.00229     0.41136
      H   36    0.08180      0.00000     0.41546    0.00274     0.41820
      H   37    0.24526      0.00000     0.23913    0.01561     0.25474
      H   38    0.23103      0.00000     0.26606    0.00291     0.26897
      H   39    0.23692      0.00000     0.26007    0.00301     0.26308
 =======================================================================
   * Total *    0.00000     14.99519    45.79156    0.21325    61.00000

 Normal termination of Gaussian 16 at Thu Dec 10 16:04:18 2020.
