 Gaussian 16, Revision A.03,

 -----------------------------------------------------------
 # opt freq B3LYP/6-31G(d) empiricaldispersion=gd3bj scf=xqc
 -----------------------------------------------------------

 -------------------------------
 CID_142038613_JID_3462_neutraal
 -------------------------------
 Symbolic Z-matrix:
 Charge =  0 Multiplicity = 1

 SCF Done:  E(RB3LYP) =  -652.291771934     A.U. after   15 cycles
 SCF Done:  E(RB3LYP) =  -652.294415368     A.U. after   13 cycles
 SCF Done:  E(RB3LYP) =  -652.294302881     A.U. after   12 cycles
 SCF Done:  E(RB3LYP) =  -652.294615058     A.U. after   13 cycles
 SCF Done:  E(RB3LYP) =  -652.294987402     A.U. after   12 cycles
 SCF Done:  E(RB3LYP) =  -652.295144154     A.U. after   11 cycles
 SCF Done:  E(RB3LYP) =  -652.295161354     A.U. after   11 cycles
 SCF Done:  E(RB3LYP) =  -652.295177444     A.U. after   10 cycles
 SCF Done:  E(RB3LYP) =  -652.295180389     A.U. after    8 cycles
 SCF Done:  E(RB3LYP) =  -652.295180675     A.U. after    8 cycles
 SCF Done:  E(RB3LYP) =  -652.295181444     A.U. after    8 cycles
 SCF Done:  E(RB3LYP) =  -652.295182741     A.U. after    9 cycles
 SCF Done:  E(RB3LYP) =  -652.295184029     A.U. after    9 cycles
 SCF Done:  E(RB3LYP) =  -652.295184728     A.U. after    8 cycles
 SCF Done:  E(RB3LYP) =  -652.295184870     A.U. after    7 cycles
 Optimization completed.
    -- Stationary point found.

 1\1\GINC-NODE226\FOpt\RB3LYP\6-31G(d)\C9H14O4\VSC10255\09-Dec-2020\0\\
 # opt freq B3LYP/6-31G(d) empiricaldispersion=gd3bj scf=xqc\\CID_14203
 8613_JID_3462_neutraal\\0,1\C,0.8896026819,0.0247993496,-0.0341985159\
 C,0.987452429,-1.5055707644,-0.0861725762\C,2.0781391016,-2.1003329449
 ,0.8220878247\C,1.6131214018,-2.2310835496,2.2666390174\O,0.4956173482
 ,-2.6408408528,2.5348879624\C,2.4718121388,-1.7796573504,3.4124692807\
 C,3.7874574965,-1.923730215,3.630425408\C,4.7975742856,-2.6098805499,2
 .791030902\O,5.9791693584,-2.3367767417,2.8115791241\O,4.2911489164,-3

 Normal termination of Gaussian 16 at Wed Dec  9 23:22:02 2020.

 --------------------------------------------------------------------
 #N Geom=AllCheck Guess=TCheck SCRF=Check GenChk RB3LYP/6-31G(d) Freq
 --------------------------------------------------------------------

 Structure from the checkpoint file:  "JID_3462.chk"
 -------------------------------
 CID_142038613_JID_3462_neutraal
 -------------------------------
 Charge =  0 Multiplicity = 1

 SCF Done:  E(RB3LYP) =  -652.295184870     A.U. after    1 cycles

  Exact polarizability: 122.339  13.951 101.447  12.798  -2.547  93.718
 Approx polarizability: 161.004  32.907 156.017  32.131  13.711 148.922

                      1                      2                      3
                      A                      A                      A
 Frequencies --     16.6672                32.4236                45.1098
 Red. masses --      8.0282                 5.5576                 5.7648
 Frc consts  --      0.0013                 0.0034                 0.0069
 IR Inten    --      2.0769                 4.9684                 0.6093

                      4                      5                      6
                      A                      A                      A
 Frequencies --     56.1068                84.6275                97.2322
 Red. masses --      3.5136                 3.7149                 4.1437
 Frc consts  --      0.0065                 0.0157                 0.0231
 IR Inten    --      1.7902                 0.8195                 3.2523

                      7                      8                      9
                      A                      A                      A
 Frequencies --    140.8408               155.4692               211.7208
 Red. masses --      4.5637                 3.3255                 2.7956
 Frc consts  --      0.0533                 0.0474                 0.0738
 IR Inten    --      3.7388                 3.0215                12.1936

                     10                     11                     12
                      A                      A                      A
 Frequencies --    227.0805               256.7358               287.5105
 Red. masses --      3.5600                 4.7687                 1.9556
 Frc consts  --      0.1082                 0.1852                 0.0952
 IR Inten    --      2.0584                 1.2110                11.2240

                     13                     14                     15
                      A                      A                      A
 Frequencies --    306.6168               322.8967               429.4727
 Red. masses --      2.2473                 1.2755                 2.5780
 Frc consts  --      0.1245                 0.0784                 0.2802
 IR Inten    --     10.6469               134.2743                 2.7126

                     16                     17                     18
                      A                      A                      A
 Frequencies --    460.4196               465.8910               517.8428
 Red. masses --      4.9901                 2.2623                 2.4549
 Frc consts  --      0.6233                 0.2893                 0.3879
 IR Inten    --      9.1704                10.4276                 0.7532

                     19                     20                     21
                      A                      A                      A
 Frequencies --    545.1127               570.8909               633.3667
 Red. masses --      2.9012                 4.1968                 1.2925
 Frc consts  --      0.5079                 0.8059                 0.3055
 IR Inten    --      6.1444                30.1422                98.6997

                     22                     23                     24
                      A                      A                      A
 Frequencies --    716.3039               737.1512               758.9421
 Red. masses --      3.0107                 2.1305                 2.1032
 Frc consts  --      0.9101                 0.6821                 0.7138
 IR Inten    --      4.2662                 2.0313                 4.1556

                     25                     26                     27
                      A                      A                      A
 Frequencies --    784.7112               825.9511               833.0618
 Red. masses --      1.8513                 2.6049                 2.3557
 Frc consts  --      0.6717                 1.0470                 0.9632
 IR Inten    --      4.1227                45.8394                33.5556

                     28                     29                     30
                      A                      A                      A
 Frequencies --    885.0134               910.6167               931.1926
 Red. masses --      3.6709                 2.1181                 1.7969
 Frc consts  --      1.6940                 1.0348                 0.9180
 IR Inten    --     10.7133                27.7764                 2.7530

                     31                     32                     33
                      A                      A                      A
 Frequencies --    958.7352               992.0879              1016.6161
 Red. masses --      2.3593                 1.8019                 1.2657
 Frc consts  --      1.2777                 1.0449                 0.7707
 IR Inten    --      4.6769                 1.0186                 0.1061

                     34                     35                     36
                      A                      A                      A
 Frequencies --   1057.6779              1086.5703              1101.5103
 Red. masses --      2.1203                 3.1657                 2.1429
 Frc consts  --      1.3975                 2.2021                 1.5319
 IR Inten    --     14.7397               123.9263                10.7339

                     37                     38                     39
                      A                      A                      A
 Frequencies --   1114.4449              1152.0224              1183.5795
 Red. masses --      2.0705                 1.9535                 1.3877
 Frc consts  --      1.5151                 1.5275                 1.1453
 IR Inten    --     44.7025                72.9714                79.4893

                     40                     41                     42
                      A                      A                      A
 Frequencies --   1198.5877              1217.3954              1266.8614
 Red. masses --      1.5680                 1.4369                 1.3136
 Frc consts  --      1.3272                 1.2547                 1.2422
 IR Inten    --     36.2456                32.7989                38.3721

                     43                     44                     45
                      A                      A                      A
 Frequencies --   1271.2248              1290.4389              1344.3093
 Red. masses --      1.2524                 1.3129                 1.1540
 Frc consts  --      1.1925                 1.2881                 1.2287
 IR Inten    --     21.5249                12.9777                 2.6954

                     46                     47                     48
                      A                      A                      A
 Frequencies --   1358.1549              1383.8944              1392.6347
 Red. masses --      1.3449                 1.5770                 1.5844
 Frc consts  --      1.4616                 1.7795                 1.8105
 IR Inten    --      1.6568                17.2218                29.4867

                     49                     50                     51
                      A                      A                      A
 Frequencies --   1404.7776              1408.5536              1426.2062
 Red. masses --      1.4252                 1.1957                 1.9040
 Frc consts  --      1.6570                 1.3977                 2.2818
 IR Inten    --     13.1845                 2.0612                17.5458

                     52                     53                     54
                      A                      A                      A
 Frequencies --   1430.3395              1438.6293              1493.0015
 Red. masses --      1.5139                 1.2644                 1.0968
 Frc consts  --      1.8248                 1.5418                 1.4404
 IR Inten    --     30.6776                37.5596                 8.0150

                     55                     56                     57
                      A                      A                      A
 Frequencies --   1505.1000              1519.7585              1525.1200
 Red. masses --      1.0854                 1.0848                 1.0966
 Frc consts  --      1.4486                 1.4763                 1.5028
 IR Inten    --      9.8781                 8.1391                 1.8916

                     58                     59                     60
                      A                      A                      A
 Frequencies --   1532.6538              1694.6491              1775.0959
 Red. masses --      1.0908                 8.3251                10.9292
 Frc consts  --      1.5096                14.0864                20.2901
 IR Inten    --      0.6297                17.4390               114.4673

                     61                     62                     63
                      A                      A                      A
 Frequencies --   1829.0725              2986.7566              3012.7191
 Red. masses --      9.4413                 1.0721                 1.0617
 Frc consts  --     18.6100                 5.6350                 5.6779
 IR Inten    --    328.5851                54.9724                33.8383

                     64                     65                     66
                      A                      A                      A
 Frequencies --   3031.5223              3048.9158              3060.4050
 Red. masses --      1.0671                 1.0870                 1.0703
 Frc consts  --      5.7781                 5.9537                 5.9063
 IR Inten    --     33.4086                24.5235                55.1085

                     67                     68                     69
                      A                      A                      A
 Frequencies --   3071.1732              3090.4041              3102.8458
 Red. masses --      1.0607                 1.0988                 1.0950
 Frc consts  --      5.8947                 6.1827                 6.2110
 IR Inten    --      8.0211                35.4135                17.7646

                     70                     71                     72
                      A                      A                      A
 Frequencies --   3104.1092              3114.9405              3177.9399
 Red. masses --      1.0999                 1.1024                 1.0867
 Frc consts  --      6.2440                 6.3019                 6.4663
 IR Inten    --     36.9713                24.6032                 1.8725

                     73                     74                     75
                      A                      A                      A
 Frequencies --   3209.1359              3685.8045              3758.4891
 Red. masses --      1.0924                 1.0640                 1.0660
 Frc consts  --      6.6284                 8.5164                 8.8727
 IR Inten    --      1.9736                66.7069                 9.1617

 - Thermochemistry -
 -------------------
 Temperature   298.150 Kelvin.  Pressure   1.00000 Atm.
 Atom     1 has atomic number  6 and mass  12.00000

 Molecular mass:   186.08921 amu.
 Principal axes and moments of inertia in atomic units:
                           1         2         3
     Eigenvalues --  1379.029955284.172585556.86204
           X            0.99996  -0.00695  -0.00642
           Y            0.00582   0.98690  -0.16120
           Z            0.00745   0.16116   0.98690
 This molecule is an asymmetric top.
 Rotational symmetry number  1.
 Warning -- assumption of classical behavior for rotation
           may cause significant error
 Rotational temperatures (Kelvin)      0.06281     0.01639     0.01559
 Rotational constants (GHZ):           1.30870     0.34154     0.32478
 Zero-point vibrational energy     592581.2 (Joules/Mol)
                                  141.63031 (Kcal/Mol)
 Warning -- explicit consideration of  20 degrees of freedom as
           vibrations may cause significant error
 Vibrational temperatures:     23.98    46.65    64.90    80.73   121.76
          (Kelvin)            139.90   202.64   223.69   304.62   326.72
                              369.39   413.66   441.15   464.58   617.92
                              662.44   670.31   745.06   784.30   821.38
                              911.27  1030.60  1060.60  1091.95  1129.02
                             1188.36  1198.59  1273.34  1310.17  1339.78
                             1379.41  1427.39  1462.68  1521.76  1563.33
                             1584.83  1603.44  1657.50  1702.91  1724.50
                             1751.56  1822.73  1829.01  1856.65  1934.16
                             1954.08  1991.12  2003.69  2021.16  2026.59
                             2051.99  2057.94  2069.87  2148.10  2165.50
                             2186.59  2194.31  2205.15  2438.22  2553.97
                             2631.63  4297.28  4334.63  4361.68  4386.71
                             4403.24  4418.73  4446.40  4464.30  4466.12
                             4481.70  4572.35  4617.23  5303.05  5407.63

 Zero-point correction=                           0.225702 (Hartree/Particle)
 Thermal correction to Energy=                    0.240169
 Thermal correction to Enthalpy=                  0.241113
 Thermal correction to Gibbs Free Energy=         0.181402
 Sum of electronic and zero-point Energies=           -652.069483
 Sum of electronic and thermal Energies=              -652.055016
 Sum of electronic and thermal Enthalpies=            -652.054072
 Sum of electronic and thermal Free Energies=         -652.113783

                     E (Thermal)             CV                S
                      KCal/Mol        Cal/Mol-Kelvin    Cal/Mol-Kelvin
 Total                  150.708             51.149            125.672
 Electronic               0.000              0.000              0.000
 Translational            0.889              2.981             41.569
 Rotational               0.889              2.981             32.071
 Vibrational            148.931             45.187             52.031
 Vibration     1          0.593              1.986              6.996
 Vibration     2          0.594              1.983              5.675
 Vibration     3          0.595              1.979              5.021
 Vibration     4          0.596              1.975              4.590
 Vibration     5          0.601              1.960              3.781
 Vibration     6          0.603              1.951              3.509
 Vibration     7          0.615              1.912              2.792
 Vibration     8          0.620              1.897              2.604
 Vibration     9          0.643              1.823              2.029
 Vibration    10          0.651              1.800              1.902
 Vibration    11          0.666              1.751              1.684
 Vibration    12          0.685              1.697              1.489
 Vibration    13          0.697              1.661              1.381
 Vibration    14          0.708              1.630              1.295
 Vibration    15          0.791              1.406              0.860
 Vibration    16          0.818              1.338              0.765
 Vibration    17          0.823              1.326              0.749
 Vibration    18          0.873              1.210              0.615
 Vibration    19          0.900              1.150              0.554
 Vibration    20          0.927              1.094              0.503

 Optimization completed.
    -- Stationary point found.

 1\1\GINC-NODE226\Freq\RB3LYP\6-31G(d)\C9H14O4\VSC10255\09-Dec-2020\0\\
 #N Geom=AllCheck Guess=TCheck SCRF=Check GenChk RB3LYP/6-31G(d) Freq\\
 CID_142038613_JID_3462_neutraal\\0,1\C,0.8896026819,0.0247993496,-0.03
 41985159\C,0.987452429,-1.5055707644,-0.0861725762\C,2.0781391016,-2.1
 003329449,0.8220878247\C,1.6131214018,-2.2310835496,2.2666390174\O,0.4
 956173482,-2.6408408528,2.5348879624\C,2.4718121388,-1.7796573504,3.41
 24692807\C,3.7874574965,-1.923730215,3.630425408\C,4.7975742856,-2.609
 8805499,2.791030902\O,5.9791693584,-2.3367767417,2.8115791241\O,4.2911

 Normal termination of Gaussian 16 at Wed Dec  9 23:28:00 2020.

 ----------------------------------------------------------------------
 # B3LYP/6-311++G(d,p) empiricaldispersion=gd3bj scf=xqc pop=npa geom=c
 heck
 ----------------------------------------------------------------------

 ---------------------------------------
 CID_142038613_JID_3462_Energie_neutraal
 ---------------------------------------
 Structure from the checkpoint file:  "JID_3462.chk"
 Charge =  0 Multiplicity = 1

 SCF Done:  E(RB3LYP) =  -652.507504577     A.U. after   16 cycles
 Normal termination of Gaussian 16 at Wed Dec  9 23:31:01 2020.

 ----------------------------------------------------------------------
 # B3LYP/6-311++G(d,p) empiricaldispersion=gd3bj scf=xqc pop=npa geom=c
 heck
 ----------------------------------------------------------------------

 -------------------------------------
 CID_142038613_JID_3462_Energie_kation
 -------------------------------------
 Structure from the checkpoint file:  "JID_3462.chk"
 Charge =  1 Multiplicity = 2

 SCF Done:  E(UB3LYP) =  -652.165906073     A.U. after   27 cycles
 Normal termination of Gaussian 16 at Wed Dec  9 23:38:17 2020.
 Gaussian 16:  ES64L-G16RevA.03 25-Dec-2016

 ------------------------------------
 CID_142038613_JID_3462_Energie_anion
 ------------------------------------
 Structure from the checkpoint file:  "JID_3462.chk"
 Charge = -1 Multiplicity = 2

                         Standard orientation:
 ---------------------------------------------------------------------
 Center     Atomic      Atomic             Coordinates (Angstroms)
 Number     Number       Type             X           Y           Z
 ---------------------------------------------------------------------
      1          6           0        2.116127    0.579924   -0.989454
      2          6           0        1.071994    1.687228   -0.794586
      3          6           0       -0.356623    1.172068   -0.545713
      4          6           0       -0.579024    0.778203    0.908754
      5          8           0       -0.157539    1.470055    1.821094
      6          6           0       -1.243911   -0.515815    1.279570
      7          6           0       -2.316253   -1.130053    0.758055
      8          6           0       -3.193084   -0.684824   -0.350395
      9          8           0       -3.839324   -1.447258   -1.037594
     10          8           0       -3.248024    0.661587   -0.501979
     11          6           0        2.267613   -0.385986    0.190243
     12          6           0        3.387337   -1.410078   -0.010199
     13          8           0        4.680996   -0.822521   -0.094495
     14          1           0        3.083930    1.064171   -1.179400
     15          1           0        1.870756    0.005123   -1.895602
     16          1           0        1.353718    2.327965    0.048288
     17          1           0        1.063599    2.321474   -1.688770
     18          1           0       -1.074557    1.971007   -0.759682
     19          1           0       -0.599250    0.341217   -1.216356
     20          1           0       -0.770730   -0.979885    2.142884
     21          1           0       -2.622846   -2.089934    1.163594
     22          1           0       -3.846448    0.822041   -1.255925
     23          1           0        2.458200    0.177525    1.111656
     24          1           0        1.331699   -0.942633    0.341247
     25          1           0        3.430250   -2.085533    0.849976
     26          1           0        3.175065   -2.026415   -0.900108
     27          1           0        4.732701   -0.345028   -0.935661
 ---------------------------------------------------------------------

 SCF Done:  E(UB3LYP) =  -652.541907237     A.U. after   23 cycles

 The electronic state is 2-A.
 Alpha  occ. eigenvalues --  -19.03407 -19.01830 -18.94606 -18.92818 -10.13215
 Alpha  occ. eigenvalues --  -10.11932 -10.07473 -10.06270 -10.05332 -10.04784
 Alpha  occ. eigenvalues --  -10.02992 -10.00625 -10.00458  -0.95478  -0.93404
 Alpha  occ. eigenvalues --   -0.86945  -0.86166  -0.69306  -0.63998  -0.62719
 Alpha  occ. eigenvalues --   -0.57724  -0.52372  -0.50300  -0.46475  -0.43890
 Alpha  occ. eigenvalues --   -0.41789  -0.37550  -0.36668  -0.34931  -0.34040
 Alpha  occ. eigenvalues --   -0.33524  -0.31709  -0.30813  -0.30156  -0.28626
 Alpha  occ. eigenvalues --   -0.28170  -0.26622  -0.26337  -0.25029  -0.24227
 Alpha  occ. eigenvalues --   -0.23263  -0.22106  -0.21189  -0.20319  -0.19499
 Alpha  occ. eigenvalues --   -0.18166  -0.17794  -0.13329  -0.11993  -0.08673
 Alpha  occ. eigenvalues --    0.03357
 Alpha virt. eigenvalues --    0.06874   0.08882   0.09289   0.10486   0.10622
 Alpha virt. eigenvalues --    0.11612   0.12551   0.12780   0.13175   0.14120
 Alpha virt. eigenvalues --    0.14432   0.15009   0.15519   0.16028   0.16920

  Beta  occ. eigenvalues --  -19.03404 -19.01771 -18.94312 -18.92345 -10.13044
  Beta  occ. eigenvalues --  -10.11931 -10.07252 -10.06271 -10.05316 -10.04774
  Beta  occ. eigenvalues --  -10.03016 -10.00367 -10.00157  -0.95220  -0.93398
  Beta  occ. eigenvalues --   -0.86098  -0.85734  -0.69274  -0.63810  -0.62025
  Beta  occ. eigenvalues --   -0.57607  -0.51942  -0.49798  -0.46350  -0.43397
  Beta  occ. eigenvalues --   -0.41768  -0.37155  -0.36550  -0.34833  -0.33836
  Beta  occ. eigenvalues --   -0.33280  -0.31477  -0.30239  -0.29977  -0.28249
  Beta  occ. eigenvalues --   -0.27598  -0.26259  -0.26188  -0.24679  -0.23885
  Beta  occ. eigenvalues --   -0.23025  -0.21937  -0.21078  -0.20072  -0.18735
  Beta  occ. eigenvalues --   -0.17313  -0.16776  -0.12634  -0.10151  -0.07994
  Beta virt. eigenvalues --    0.06855   0.08809   0.09248   0.10117   0.10507
  Beta virt. eigenvalues --    0.10561   0.11797   0.12537   0.12811   0.13180
  Beta virt. eigenvalues --    0.14095   0.14738   0.15131   0.15673   0.16769

 Mulliken charges and spin densities:
               1          2
     1  C   -0.271954   0.004061
     2  C   -0.403627  -0.060326
     3  C    0.078209   0.033775
     4  C   -0.349742   0.164043
     5  O   -0.318803   0.166477
     6  C    0.144210   0.146700
     7  C   -0.290359   0.257087
     8  C   -0.239438   0.092315
     9  O   -0.375426   0.097678
    10  O   -0.190146   0.012978
    11  C   -0.207190  -0.010267
    12  C   -0.473483  -0.008320
    13  O   -0.253248  -0.000041
    14  H    0.035482  -0.000768
    15  H    0.138267  -0.000906
    16  H    0.177095  -0.004501
    17  H    0.114317   0.011266
    18  H    0.167109   0.057327
    19  H    0.134006  -0.003273
    20  H    0.140921   0.016908
    21  H    0.114860   0.015790
    22  H    0.248210  -0.001656
    23  H    0.203639   0.002944
    24  H    0.148919   0.009545
    25  H    0.169412  -0.000115
    26  H    0.128475   0.000496
    27  H    0.230288   0.000782
 Sum of Mulliken charges =  -1.00000   1.00000

 Dipole moment (field-independent basis, Debye):
    X=              5.4011    Y=              0.7269    Z=             -4.1312  Tot=              6.8387
 Quadrupole moment (field-independent basis, Debye-Ang):
   XX=           -129.1063   YY=            -96.1336   ZZ=            -93.6949
   XY=             -9.9893   XZ=             -7.1225   YZ=            -10.9210

 Summary of Natural Population Analysis:

                                       Natural Population
                Natural  -----------------------------------------------
    Atom  No    Charge         Core      Valence    Rydberg      Total
 -----------------------------------------------------------------------
      C    1   -0.18814      0.99963     2.18138    0.00712     3.18814
      C    2   -0.18510      0.99963     2.17790    0.00757     3.18510
      C    3   -0.24061      0.99959     2.22811    0.01291     3.24061
      C    4    0.29374      0.99965     1.68558    0.02103     2.70626
      O    5   -0.25843      0.99988     3.25125    0.00730     4.25843
      C    6   -0.05639      0.99951     2.04618    0.01070     3.05639
      C    7   -0.10908      0.99949     2.09983    0.00977     3.10908
      C    8    0.40574      0.99969     1.57073    0.02384     2.59426
      O    9   -0.30336      0.99987     3.29659    0.00690     4.30336
      O   10   -0.34850      0.99988     3.34075    0.00787     4.34850
      C   11   -0.21032      0.99962     2.20343    0.00727     3.21032
      C   12   -0.00715      0.99961     1.99590    0.01164     3.00715
      O   13   -0.37265      0.99990     3.36575    0.00700     4.37265
      H   14    0.08392      0.00000     0.41447    0.00161     0.41608
      H   15    0.08824      0.00000     0.41049    0.00127     0.41176
      H   16    0.10520      0.00000     0.39324    0.00156     0.39480
      H   17    0.08777      0.00000     0.41104    0.00119     0.41223
      H   18    0.11409      0.00000     0.38432    0.00159     0.38591
      H   19    0.09896      0.00000     0.40012    0.00092     0.40104
      H   20    0.09041      0.00000     0.40736    0.00223     0.40959
      H   21    0.09222      0.00000     0.40591    0.00187     0.40778
      H   22    0.22628      0.00000     0.26903    0.00470     0.27372
      H   23    0.10376      0.00000     0.39496    0.00128     0.39624
      H   24    0.11181      0.00000     0.38699    0.00120     0.38819
      H   25    0.08412      0.00000     0.41468    0.00120     0.41588
      H   26    0.06941      0.00000     0.42917    0.00142     0.43059
      H   27    0.22405      0.00000     0.27323    0.00272     0.27595
 =======================================================================
   * Total *    0.00000     12.99593    36.83839    0.16567    50.00000

 Normal termination of Gaussian 16 at Wed Dec  9 23:44:28 2020.
