 Gaussian 16, Revision A.03,

 -----------------------------------------------------------
 # opt freq B3LYP/6-31G(d) empiricaldispersion=gd3bj scf=xqc
 -----------------------------------------------------------

 -------------------------------
 CID_83214321_JID_10480_neutraal
 -------------------------------
 Symbolic Z-matrix:
 Charge =  0 Multiplicity = 1

 SCF Done:  E(RB3LYP) =  -1238.00475833     A.U. after   15 cycles
 SCF Done:  E(RB3LYP) =  -1238.01213764     A.U. after   12 cycles
 SCF Done:  E(RB3LYP) =  -1238.01355251     A.U. after   12 cycles
 SCF Done:  E(RB3LYP) =  -1238.01411200     A.U. after   12 cycles
 SCF Done:  E(RB3LYP) =  -1238.01449665     A.U. after   12 cycles
 SCF Done:  E(RB3LYP) =  -1238.01480312     A.U. after   12 cycles
 SCF Done:  E(RB3LYP) =  -1238.01495356     A.U. after   13 cycles
 SCF Done:  E(RB3LYP) =  -1238.01513265     A.U. after   11 cycles
 SCF Done:  E(RB3LYP) =  -1238.01527846     A.U. after   12 cycles
 SCF Done:  E(RB3LYP) =  -1238.01534125     A.U. after   11 cycles
 SCF Done:  E(RB3LYP) =  -1238.01549605     A.U. after    8 cycles
 SCF Done:  E(RB3LYP) =  -1238.01549647     A.U. after    8 cycles
 SCF Done:  E(RB3LYP) =  -1238.01549658     A.U. after    7 cycles
 SCF Done:  E(RB3LYP) =  -1238.01549663     A.U. after    7 cycles
 Optimization completed.
    -- Stationary point found.
 Normal termination of Gaussian 16 at Sun Dec 13 20:58:14 2020.

 --------------------------------------------------------------------
 #N Geom=AllCheck Guess=TCheck SCRF=Check GenChk RB3LYP/6-31G(d) Freq
 --------------------------------------------------------------------

 Structure from the checkpoint file:  "JID_10480.chk"
 -------------------------------
 CID_83214321_JID_10480_neutraal
 -------------------------------
 Charge =  0 Multiplicity = 1

 SCF Done:  E(RB3LYP) =  -1238.01549663     A.U. after    1 cycles

  Exact polarizability: 225.307   0.095 179.194   4.347   5.620 140.085
 Approx polarizability: 304.249   8.875 298.468   5.099  24.232 221.151

                      1                      2                      3
                      A                      A                      A
 Frequencies --     11.9409                15.1384                38.6305
 Red. masses --      4.1058                 4.8608                 5.1883
 Frc consts  --      0.0003                 0.0007                 0.0046
 IR Inten    --      0.0938                 0.1271                 0.0484

                      4                      5                      6
                      A                      A                      A
 Frequencies --     55.0419                63.4713                86.9615
 Red. masses --      6.3995                 1.1098                 4.6892
 Frc consts  --      0.0114                 0.0026                 0.0209
 IR Inten    --      0.2776                 0.2813                 0.6785

                      7                      8                      9
                      A                      A                      A
 Frequencies --    124.1333               165.5631               173.8306
 Red. masses --      3.8753                 3.5456                 3.1646
 Frc consts  --      0.0352                 0.0573                 0.0563
 IR Inten    --      0.5480                 0.2972                 0.2779

                     10                     11                     12
                      A                      A                      A
 Frequencies --    193.6441               219.3846               230.4709
 Red. masses --      4.3567                 3.0404                 1.1009
 Frc consts  --      0.0963                 0.0862                 0.0345
 IR Inten    --      2.9538                 0.8337                 0.0510

                     13                     14                     15
                      A                      A                      A
 Frequencies --    249.4499               258.6019               268.8795
 Red. masses --      3.6315                 3.1902                 2.9441
 Frc consts  --      0.1331                 0.1257                 0.1254
 IR Inten    --      3.1674                 3.5874                 1.8879

                     16                     17                     18
                      A                      A                      A
 Frequencies --    298.6467               305.8618               332.5041
 Red. masses --      2.8140                 3.1044                 1.1199
 Frc consts  --      0.1479                 0.1711                 0.0729
 IR Inten    --      0.9636                 4.5008                67.7926

                     19                     20                     21
                      A                      A                      A
 Frequencies --    346.1739               350.2775               376.8960
 Red. masses --      3.5947                 2.2816                 3.4392
 Frc consts  --      0.2538                 0.1649                 0.2878
 IR Inten    --      4.9481                 0.6770                 4.4666

                     22                     23                     24
                      A                      A                      A
 Frequencies --    390.8205               426.9028               440.2179
 Red. masses --      3.6706                 3.1732                 3.5321
 Frc consts  --      0.3303                 0.3407                 0.4033
 IR Inten    --      4.4052                 0.0400                 1.2547

                     25                     26                     27
                      A                      A                      A
 Frequencies --    492.4187               514.5425               535.0498
 Red. masses --      3.5892                 4.4844                 2.2979
 Frc consts  --      0.5128                 0.6995                 0.3876
 IR Inten    --      2.1444                 0.1743                 2.7658

                     28                     29                     30
                      A                      A                      A
 Frequencies --    564.3709               571.9209               597.2065
 Red. masses --      5.1057                 3.8557                 2.5586
 Frc consts  --      0.9581                 0.7431                 0.5376
 IR Inten    --      2.7646                 1.1340                 3.8284

                     31                     32                     33
                      A                      A                      A
 Frequencies --    616.4103               646.3542               671.7050
 Red. masses --      4.8931                 5.7198                 7.1726
 Frc consts  --      1.0954                 1.4079                 1.9067
 IR Inten    --      9.0488                 5.7822                 3.3886

                     34                     35                     36
                      A                      A                      A
 Frequencies --    716.4238               770.8686               779.9731
 Red. masses --      4.8135                 2.7497                 1.6186
 Frc consts  --      1.4556                 0.9627                 0.5802
 IR Inten    --      9.3193                29.7867                11.3799

                     37                     38                     39
                      A                      A                      A
 Frequencies --    792.4228               819.4175               853.7269
 Red. masses --      2.1895                 4.5137                 1.8255
 Frc consts  --      0.8100                 1.7857                 0.7839
 IR Inten    --      0.5631                18.7921                12.8719

                     40                     41                     42
                      A                      A                      A
 Frequencies --    862.7021               875.0375               891.2576
 Red. masses --      2.4087                 4.0622                 2.0250
 Frc consts  --      1.0562                 1.8326                 0.9477
 IR Inten    --      6.1122                11.1790                10.8646

                     43                     44                     45
                      A                      A                      A
 Frequencies --    912.9780               924.0812               939.3437
 Red. masses --      8.8150                 1.5396                 1.6255
 Frc consts  --      4.3291                 0.7746                 0.8450
 IR Inten    --     11.3780                55.6466                58.4650

                     46                     47                     48
                      A                      A                      A
 Frequencies --    958.8026               960.8058               982.3339
 Red. masses --      1.9700                 2.2566                 3.8711
 Frc consts  --      1.0670                 1.2274                 2.2009
 IR Inten    --      4.9791                 8.5594                 8.1000

                     49                     50                     51
                      A                      A                      A
 Frequencies --   1011.4152              1028.3919              1031.7146
 Red. masses --      1.7063                 2.4954                 4.7359
 Frc consts  --      1.0284                 1.5549                 2.9701
 IR Inten    --      8.0780                 4.6919                 2.0002

                     52                     53                     54
                      A                      A                      A
 Frequencies --   1043.1380              1049.5839              1064.4164
 Red. masses --      3.2073                 1.6823                 1.4112
 Frc consts  --      2.0562                 1.0919                 0.9420
 IR Inten    --      1.7237                10.9581                 0.6408

                     55                     56                     57
                      A                      A                      A
 Frequencies --   1069.2836              1095.5459              1122.2165
 Red. masses --      2.7655                 1.8471                 1.8441
 Frc consts  --      1.8630                 1.3062                 1.3683
 IR Inten    --      8.2443                 2.9059                13.1968

                     58                     59                     60
                      A                      A                      A
 Frequencies --   1131.3665              1153.7645              1155.4606
 Red. masses --      1.7362                 1.9960                 1.5967
 Frc consts  --      1.3093                 1.5655                 1.2560
 IR Inten    --      3.3894                 5.7813                19.8089

                     61                     62                     63
                      A                      A                      A
 Frequencies --   1171.6196              1197.4159              1202.3143
 Red. masses --      2.2712                 2.0435                 1.9799
 Frc consts  --      1.8368                 1.7263                 1.6863
 IR Inten    --      6.5361                 7.4877                25.3097

                     64                     65                     66
                      A                      A                      A
 Frequencies --   1210.7155              1243.4205              1257.5846
 Red. masses --      1.7954                 2.0847                 1.6208
 Frc consts  --      1.5506                 1.8990                 1.5102
 IR Inten    --     17.7883                10.5074                 1.3995

                     67                     68                     69
                      A                      A                      A
 Frequencies --   1289.3186              1299.9674              1306.1498
 Red. masses --      1.9307                 1.8259                 1.2816
 Frc consts  --      1.8910                 1.8180                 1.2882
 IR Inten    --     12.2895                33.0782                 0.5962

                     70                     71                     72
                      A                      A                      A
 Frequencies --   1351.0007              1361.9568              1384.3310
 Red. masses --      2.1429                 1.2954                 2.2981
 Frc consts  --      2.3044                 1.4157                 2.5948
 IR Inten    --     28.0218                 1.5814                18.9760

                     73                     74                     75
                      A                      A                      A
 Frequencies --   1385.2160              1390.4133              1398.8569
 Red. masses --      1.4559                 1.4073                 1.6959
 Frc consts  --      1.6459                 1.6030                 1.9553
 IR Inten    --      0.7155                 2.2153                22.2009

                     76                     77                     78
                      A                      A                      A
 Frequencies --   1403.7615              1410.6657              1426.9673
 Red. masses --      1.6427                 2.5683                 1.2527
 Frc consts  --      1.9072                 3.0112                 1.5029
 IR Inten    --     19.3187                49.0401                 8.6371

                     79                     80                     81
                      A                      A                      A
 Frequencies --   1434.1116              1449.5649              1493.6985
 Red. masses --      1.2645                 1.3532                 1.1264
 Frc consts  --      1.5323                 1.6753                 1.4808
 IR Inten    --      1.1549                 1.2938                 8.6891

                     82                     83                     84
                      A                      A                      A
 Frequencies --   1504.4360              1508.1045              1511.5594
 Red. masses --      1.1905                 1.0435                 1.0804
 Frc consts  --      1.5876                 1.3983                 1.4544
 IR Inten    --     16.1333                 9.0952                 1.9635

                     85                     86                     87
                      A                      A                      A
 Frequencies --   1516.6836              1518.8627              1522.8095
 Red. masses --      1.0908                 1.0869                 1.0914
 Frc consts  --      1.4783                 1.4774                 1.4912
 IR Inten    --      2.1739                 2.0417                 7.8432

                     88                     89                     90
                      A                      A                      A
 Frequencies --   1529.9371              1534.5692              1554.4379
 Red. masses --      1.0751                 1.0992                 4.7276
 Frc consts  --      1.4827                 1.5252                 6.7303
 IR Inten    --      7.6040                 4.1950                 1.2809

                     91                     92                     93
                      A                      A                      A
 Frequencies --   1569.5775              1589.3850              1619.0623
 Red. masses --      6.5049                 6.2431                 8.6257
 Frc consts  --      9.4418                 9.2920                13.3221
 IR Inten    --      9.2121                49.9527               110.8530

                     94                     95                     96
                      A                      A                      A
 Frequencies --   1692.5409              3018.2170              3025.0564
 Red. masses --      1.0927                 1.0828                 1.0687
 Frc consts  --      1.8443                 5.8117                 5.7618
 IR Inten    --     25.5890                14.6405                29.7022

                     97                     98                     99
                      A                      A                      A
 Frequencies --   3037.6495              3041.3810              3041.7650
 Red. masses --      1.0654                 1.0627                 1.0704
 Frc consts  --      5.7920                 5.7917                 5.8353
 IR Inten    --     14.2558                33.3365                 9.9102

                    100                    101                    102
                      A                      A                      A
 Frequencies --   3046.5499              3057.1706              3061.8171
 Red. masses --      1.0640                 1.0371                 1.0378
 Frc consts  --      5.8187                 5.7112                 5.7324
 IR Inten    --     25.1058                19.8212                31.7717

                    103                    104                    105
                      A                      A                      A
 Frequencies --   3075.8963              3083.0768              3089.5985
 Red. masses --      1.0959                 1.0988                 1.1013
 Frc consts  --      6.1090                 6.1535                 6.1937
 IR Inten    --     41.5609                37.6581                87.5887

                    106                    107                    108
                      A                      A                      A
 Frequencies --   3104.4757              3112.2325              3128.0144
 Red. masses --      1.0984                 1.1016                 1.1024
 Frc consts  --      6.2371                 6.2869                 6.3553
 IR Inten    --     19.8894                10.5199                27.7830

                    109                    110                    111
                      A                      A                      A
 Frequencies --   3134.6057              3159.6166              3167.0427
 Red. masses --      1.0917                 1.1008                 1.1010
 Frc consts  --      6.3199                 6.4751                 6.5063
 IR Inten    --      1.1573                 4.4253                 7.5139

                    112                    113                    114
                      A                      A                      A
 Frequencies --   3297.5268              3467.3857              3555.7326
 Red. masses --      1.0943                 1.0492                 1.0928
 Frc consts  --      7.0105                 7.4324                 8.1404
 IR Inten    --      6.2510                14.2764                 7.8030

 - Thermochemistry -
 -------------------
 Temperature   298.150 Kelvin.  Pressure   1.00000 Atm.
 Atom     1 has atomic number  6 and mass  12.00000

 Molecular mass:   292.13578 amu.
 Principal axes and moments of inertia in atomic units:
                           1         2         3
     Eigenvalues --  3085.66500********************
           X            0.99994   0.01103   0.00201
           Y           -0.01096   0.99948  -0.03028
           Z           -0.00235   0.03026   0.99954
 This molecule is an asymmetric top.
 Rotational symmetry number  1.
 Warning -- assumption of classical behavior for rotation
           may cause significant error
 Rotational temperatures (Kelvin)      0.02807     0.00824     0.00743
 Rotational constants (GHZ):           0.58488     0.17165     0.15472
 Zero-point vibrational energy     882698.8 (Joules/Mol)
                                  210.97009 (Kcal/Mol)
 Warning -- explicit consideration of  31 degrees of freedom as
           vibrations may cause significant error
 Vibrational temperatures:     17.18    21.78    55.58    79.19    91.32
          (Kelvin)            125.12   178.60   238.21   250.10   278.61
                              315.65   331.60   358.90   372.07   386.86
                              429.69   440.07   478.40   498.07   503.97
                              542.27   562.30   614.22   633.38   708.48
                              740.31   769.82   812.00   822.87   859.25
                              886.88   929.96   966.43  1030.77  1109.11
                             1122.21  1140.12  1178.96  1228.32  1241.24
                             1258.98  1282.32  1313.57  1329.55  1351.51
                             1379.50  1382.39  1413.36  1455.20  1479.63
                             1484.41  1500.84  1510.12  1531.46  1538.46
                             1576.25  1614.62  1627.78  1660.01  1662.45
                             1685.70  1722.81  1729.86  1741.95  1789.00
                             1809.38  1855.04  1870.36  1879.26  1943.79
                             1959.55  1991.74  1993.02  2000.49  2012.64
                             2019.70  2029.63  2053.09  2063.37  2085.60
                             2149.10  2164.55  2169.83  2174.80  2182.17
                             2185.30  2190.98  2201.24  2207.90  2236.49
                             2258.27  2286.77  2329.47  2435.19  4342.54
                             4352.38  4370.50  4375.87  4376.42  4383.31
                             4398.59  4405.27  4425.53  4435.86  4445.24
                             4466.65  4477.81  4500.52  4510.00  4545.98
                             4556.67  4744.41  4988.79  5115.91

 Zero-point correction=                           0.336202 (Hartree/Particle)
 Thermal correction to Energy=                    0.355327
 Thermal correction to Enthalpy=                  0.356271
 Thermal correction to Gibbs Free Energy=         0.286127
 Sum of electronic and zero-point Energies=          -1237.679294
 Sum of electronic and thermal Energies=             -1237.660169
 Sum of electronic and thermal Enthalpies=           -1237.659225
 Sum of electronic and thermal Free Energies=        -1237.729370

                     E (Thermal)             CV                S
                      KCal/Mol        Cal/Mol-Kelvin    Cal/Mol-Kelvin
 Total                  222.971             73.409            147.631
 Electronic               0.000              0.000              0.000
 Translational            0.889              2.981             42.914
 Rotational               0.889              2.981             34.292
 Vibrational            221.194             67.448             70.426
 Vibration     1          0.593              1.987              7.659
 Vibration     2          0.593              1.986              7.187
 Vibration     3          0.594              1.981              5.328
 Vibration     4          0.596              1.976              4.627
 Vibration     5          0.597              1.972              4.346
 Vibration     6          0.601              1.958              3.727
 Vibration     7          0.610              1.929              3.035
 Vibration     8          0.624              1.885              2.485
 Vibration     9          0.627              1.875              2.394
 Vibration    10          0.635              1.849              2.193
 Vibration    11          0.647              1.812              1.964
 Vibration    12          0.652              1.794              1.875
 Vibration    13          0.662              1.764              1.734
 Vibration    14          0.667              1.748              1.671
 Vibration    15          0.673              1.730              1.603
 Vibration    16          0.692              1.676              1.424
 Vibration    17          0.696              1.663              1.385
 Vibration    18          0.714              1.611              1.248
 Vibration    19          0.724              1.583              1.184
 Vibration    20          0.727              1.575              1.165
 Vibration    21          0.747              1.519              1.052
 Vibration    22          0.759              1.490              0.997
 Vibration    23          0.789              1.412              0.869
 Vibration    24          0.800              1.382              0.826
 Vibration    25          0.848              1.267              0.677
 Vibration    26          0.870              1.218              0.623
 Vibration    27          0.890              1.172              0.576
 Vibration    28          0.920              1.108              0.515
 Vibration    29          0.928              1.092              0.501
 Vibration    30          0.955              1.038              0.454
 Vibration    31          0.976              0.997              0.422

 Optimization completed on the basis of negligible forces.
    -- Stationary point found.
 Normal termination of Gaussian 16 at Sun Dec 13 21:19:45 2020.

 ----------------------------------------------------------------------
 # B3LYP/6-311++G(d,p) empiricaldispersion=gd3bj scf=xqc pop=npa geom=c
 heck
 ----------------------------------------------------------------------

 ---------------------------------------
 CID_83214321_JID_10480_Energie_neutraal
 ---------------------------------------
 Structure from the checkpoint file:  "JID_10480.chk"
 Charge =  0 Multiplicity = 1

 SCF Done:  E(RB3LYP) =  -1238.26900267     A.U. after   16 cycles
 Normal termination of Gaussian 16 at Sun Dec 13 21:29:12 2020.

 ----------------------------------------------------------------------
 # B3LYP/6-311++G(d,p) empiricaldispersion=gd3bj scf=xqc pop=npa geom=c
 heck
 ----------------------------------------------------------------------

 -------------------------------------
 CID_83214321_JID_10480_Energie_kation
 -------------------------------------
 Structure from the checkpoint file:  "JID_10480.chk"
 Charge =  1 Multiplicity = 2

 SCF Done:  E(UB3LYP) =  -1237.96822304     A.U. after   33 cycles
 SCF Done:  E(UB3LYP) =  -1237.96822305     a.u. after    2 cycles
 Normal termination of Gaussian 16 at Sun Dec 13 22:15:03 2020.
 Gaussian 16:  ES64L-G16RevA.03 25-Dec-2016

 ----------------------------------------------------------------------
 # B3LYP/6-311++G(d,p) empiricaldispersion=gd3bj scf=xqc pop=npa geom=c
 heck
 ----------------------------------------------------------------------

 ------------------------------------
 CID_83214321_JID_10480_Energie_anion
 ------------------------------------
 Structure from the checkpoint file:  "JID_10480.chk"
 Charge = -1 Multiplicity = 2

                         Standard orientation:
 ---------------------------------------------------------------------
 Center     Atomic      Atomic             Coordinates (Angstroms)
 Number     Number       Type             X           Y           Z
 ---------------------------------------------------------------------
      1          6           0       -5.990667    0.326621   -0.524147
      2          6           0       -4.543638    0.207194   -0.161250
      3          7           0       -3.897448   -0.919808   -0.079247
      4          6           0       -2.571764   -0.730646    0.266067
      5          6           0       -2.199330    0.569746    0.454664
      6         16           0       -3.552077    1.622920    0.187781
      7          6           0       -1.704319   -1.958170    0.423849
      8          6           0       -0.275996   -1.750542    0.034391
      9          7           0        0.294508   -2.450938   -0.911640
     10          8           0        1.609806   -1.936011   -0.943926
     11          6           0        1.682845   -0.972281   -0.007378
     12          7           0        0.553181   -0.818703    0.629509
     13          6           0        3.004335   -0.274298    0.184531
     14          6           0        3.606817    0.063542   -1.203905
     15          6           0        2.779238    1.091944   -1.981676
     16          6           0        2.608982    2.383538   -1.174299
     17          6           0        2.011882    2.092182    0.207957
     18          6           0        2.827998    1.044645    0.992069
     19          7           0        2.340722    0.772719    2.346907
     20          6           0        3.942199   -1.243360    0.937581
     21          1           0       -6.565880    0.812355    0.272115
     22          1           0       -6.127705    0.913481   -1.439462
     23          1           0       -6.390815   -0.676549   -0.686516
     24          1           0       -1.227913    0.946142    0.736992
     25          1           0       -1.735529   -2.300447    1.467555
     26          1           0       -2.122213   -2.759896   -0.189352
     27          1           0        4.615555    0.461258   -1.030748
     28          1           0        3.723532   -0.857667   -1.783556
     29          1           0        1.792386    0.668907   -2.215168
     30          1           0        3.261919    1.301311   -2.943604
     31          1           0        1.978919    3.097334   -1.718401
     32          1           0        3.591587    2.861888   -1.051043
     33          1           0        0.980810    1.733829    0.097716
     34          1           0        1.964313    3.012788    0.804400
     35          1           0        3.848943    1.438729    1.101402
     36          1           0        2.342440    1.639844    2.881265
     37          1           0        1.373875    0.455669    2.289483
     38          1           0        3.546935   -1.465650    1.930138
     39          1           0        4.071695   -2.173081    0.374558
     40          1           0        4.923699   -0.772459    1.059701
 ---------------------------------------------------------------------

 SCF Done:  E(UB3LYP) =  -1238.26149234     A.U. after   33 cycles
 SCF Done:  E(UB3LYP) =  -1238.26149234     a.u. after    1 cycles

 The electronic state is 2-A.
 Alpha  occ. eigenvalues --  -88.76639 -19.10626 -14.25726 -14.21398 -14.19999
 Alpha  occ. eigenvalues --  -14.18920 -10.16422 -10.13828 -10.12090 -10.10602
 Alpha  occ. eigenvalues --  -10.10448 -10.09978 -10.09144 -10.08626 -10.08038
 Alpha  occ. eigenvalues --  -10.07568 -10.06987 -10.06870 -10.06738 -10.06371
 Alpha  occ. eigenvalues --   -7.85293  -5.81565  -5.81220  -5.80908  -1.05564
 Alpha  occ. eigenvalues --   -0.85425  -0.83475  -0.80222  -0.77158  -0.72690
 Alpha  occ. eigenvalues --   -0.69195  -0.68509  -0.67886  -0.64438  -0.63089
 Alpha  occ. eigenvalues --   -0.58313  -0.57345  -0.54692  -0.52199  -0.50533
 Alpha  occ. eigenvalues --   -0.48760  -0.47812  -0.44936  -0.43156  -0.40199
 Alpha  occ. eigenvalues --   -0.39219  -0.39049  -0.38163  -0.36986  -0.35596
 Alpha  occ. eigenvalues --   -0.35051  -0.34519  -0.34022  -0.33403  -0.32815
 Alpha  occ. eigenvalues --   -0.32160  -0.31607  -0.29979  -0.29749  -0.29140
 Alpha  occ. eigenvalues --   -0.28114  -0.27865  -0.27309  -0.26959  -0.26354
 Alpha  occ. eigenvalues --   -0.25421  -0.25071  -0.23712  -0.23041  -0.22712
 Alpha  occ. eigenvalues --   -0.22077  -0.20959  -0.19697  -0.18192  -0.17649
 Alpha  occ. eigenvalues --   -0.16959  -0.14296  -0.13243   0.04326
 Alpha virt. eigenvalues --    0.05861   0.06560   0.06904   0.07291   0.07880
 Alpha virt. eigenvalues --    0.08302   0.09218   0.09606   0.09911   0.10361
 Alpha virt. eigenvalues --    0.10593   0.10745   0.11093   0.12001   0.12116

  Beta  occ. eigenvalues --  -88.76619 -19.10520 -14.25637 -14.21421 -14.19983
  Beta  occ. eigenvalues --  -14.18907 -10.16237 -10.13805 -10.11834 -10.10617
  Beta  occ. eigenvalues --  -10.10437 -10.09956 -10.09146 -10.08641 -10.07916
  Beta  occ. eigenvalues --  -10.07551 -10.06978 -10.06845 -10.06718 -10.06360
  Beta  occ. eigenvalues --   -7.85274  -5.81560  -5.81215  -5.80835  -1.05385
  Beta  occ. eigenvalues --   -0.85244  -0.83391  -0.80157  -0.77022  -0.72650
  Beta  occ. eigenvalues --   -0.69029  -0.68362  -0.67819  -0.64354  -0.63057
  Beta  occ. eigenvalues --   -0.58255  -0.57223  -0.54507  -0.52133  -0.50445
  Beta  occ. eigenvalues --   -0.48683  -0.47674  -0.44813  -0.42965  -0.39956
  Beta  occ. eigenvalues --   -0.39180  -0.38844  -0.38086  -0.36883  -0.35468
  Beta  occ. eigenvalues --   -0.34947  -0.34268  -0.33875  -0.33371  -0.32785
  Beta  occ. eigenvalues --   -0.32078  -0.31509  -0.29879  -0.29717  -0.29039
  Beta  occ. eigenvalues --   -0.28061  -0.27802  -0.26993  -0.26903  -0.26243
  Beta  occ. eigenvalues --   -0.25288  -0.25021  -0.23632  -0.22940  -0.22635
  Beta  occ. eigenvalues --   -0.21844  -0.20922  -0.19652  -0.17660  -0.17192
  Beta  occ. eigenvalues --   -0.16881  -0.14277  -0.12447
  Beta virt. eigenvalues --    0.06527   0.06727   0.07639   0.07711   0.07937
  Beta virt. eigenvalues --    0.08291   0.08639   0.09380   0.09757   0.09953
  Beta virt. eigenvalues --    0.10462   0.10727   0.10887   0.11313   0.12056

 Mulliken charges and spin densities:
               1          2
     1  C   -0.010611  -0.199572
     2  C    0.274240   0.228373
     3  N    0.123672   0.006086
     4  C   -1.397079  -0.026445
     5  C    1.061546   0.105778
     6  S   -0.584311  -0.007517
     7  C   -0.992724   0.212639
     8  C    1.407689  -0.082053
     9  N   -0.385525   0.032944
    10  O    0.261686   0.034530
    11  C   -1.265253  -0.264850
    12  N    0.143643  -0.001393
    13  C    0.838365  -0.081862
    14  C   -0.115230  -0.446023
    15  C   -0.745785   0.513387
    16  C    1.188531  -1.753489
    17  C   -0.254685   0.218126
    18  C   -1.318648   0.393741
    19  N   -0.210443  -0.118143
    20  C   -0.067421  -0.269545
    21  H    0.149269   0.000665
    22  H    0.000568   0.165459
    23  H    0.135031   0.017279
    24  H    0.224801   0.070919
    25  H    0.170262   0.010889
    26  H    0.196298   0.004752
    27  H   -0.226246   0.376688
    28  H    0.196953  -0.014283
    29  H    0.164591  -0.002760
    30  H   -0.201399   0.389678
    31  H   -0.102430   0.272459
    32  H   -0.177812   0.309727
    33  H    0.310096  -0.237784
    34  H   -0.319718   0.495756
    35  H   -0.252217   0.464114
    36  H    0.087672   0.140605
    37  H    0.253747   0.010761
    38  H    0.180058  -0.003505
    39  H    0.134950   0.008409
    40  H    0.123868   0.025460
 Sum of Mulliken charges =  -1.00000   1.00000

 Dipole moment (field-independent basis, Debye):
    X=             -2.3380    Y=             -2.5688    Z=              1.5457  Tot=              3.8018
 Quadrupole moment (field-independent basis, Debye-Ang):
   XX=           -203.4100   YY=           -171.1262   ZZ=           -158.3090
   XY=            -16.2057   XZ=             -1.5935   YZ=             -1.5589

 Summary of Natural Population Analysis:

                                       Natural Population
                Natural  -----------------------------------------------
    Atom  No    Charge         Core      Valence    Rydberg      Total
 -----------------------------------------------------------------------
      C    1   -0.30746      0.99961     2.30228    0.00557     3.30746
      C    2    0.07728      0.99964     1.90656    0.01652     2.92272
      N    3   -0.25595      0.99963     2.74500    0.01132     3.75595
      C    4    0.06611      0.99948     1.92093    0.01349     2.93389
      C    5   -0.18874      0.99945     2.18062    0.00867     3.18874
      S    6    0.17468      4.99944     2.80523    0.02065     7.82532
      C    7   -0.21767      0.99954     2.20898    0.00915     3.21767
      C    8    0.18751      0.99964     1.79381    0.01904     2.81249
      N    9   -0.08441      0.99966     2.57397    0.01078     3.58441
      O   10   -0.16985      0.99985     3.16154    0.00847     4.16985
      C   11    0.33317      0.99954     1.64640    0.02089     2.66683
      N   12   -0.29680      0.99965     2.78786    0.00929     3.79680
      C   13   -0.06730      0.99950     2.05557    0.01222     3.06730
      C   14   -0.18476      0.99960     2.17460    0.01055     3.18476
      C   15   -0.19158      0.99962     2.18316    0.00880     3.19158
      C   16   -0.18935      0.99963     2.18089    0.00883     3.18935
      C   17   -0.19965      0.99960     2.18987    0.01018     3.19965
      C   18   -0.00539      0.99956     1.99099    0.01484     3.00539
      N   19   -0.43021      0.99976     2.92039    0.01006     3.93021
      C   20   -0.27461      0.99963     2.26927    0.00571     3.27461
      H   21    0.10349      0.00000     0.39554    0.00097     0.39651
      H   22    0.10664      0.00000     0.39173    0.00164     0.39336
      H   23    0.11028      0.00000     0.38830    0.00142     0.38972
      H   24    0.11872      0.00000     0.37972    0.00156     0.38128
      H   25    0.11142      0.00000     0.38729    0.00130     0.38858
      H   26    0.11878      0.00000     0.37988    0.00134     0.38122
      H   27    0.09881      0.00000     0.39992    0.00128     0.40119
      H   28    0.10516      0.00000     0.39360    0.00124     0.39484
      H   29    0.09685      0.00000     0.40177    0.00137     0.40315
      H   30    0.10015      0.00000     0.39894    0.00091     0.39985
      H   31    0.09891      0.00000     0.40016    0.00093     0.40109
      H   32    0.09471      0.00000     0.40325    0.00204     0.40529
      H   33    0.10002      0.00000     0.39791    0.00207     0.39998
      H   34    0.09903      0.00000     0.39949    0.00148     0.40097
      H   35    0.09192      0.00000     0.40620    0.00187     0.40808
      H   36    0.17307      0.00000     0.32547    0.00147     0.32693
      H   37    0.18684      0.00000     0.31102    0.00214     0.31316
      H   38    0.11210      0.00000     0.38700    0.00090     0.38790
      H   39    0.09908      0.00000     0.40005    0.00087     0.40092
      H   40    0.09900      0.00000     0.40027    0.00073     0.40100
 =======================================================================
   * Total *    0.00000     23.99202    53.74542    0.26255    78.00000

 Normal termination of Gaussian 16 at Sun Dec 13 22:42:06 2020.
