 Gaussian 16, Revision A.03,

 -----------------------------------------------------------
 # opt freq B3LYP/6-31G(d) empiricaldispersion=gd3bj scf=xqc
 -----------------------------------------------------------

 -------------------------------
 CID_150478570_JID_7777_neutraal
 -------------------------------
 Symbolic Z-matrix:
 Charge =  0 Multiplicity = 1

 SCF Done:  E(RB3LYP) =  -804.326871389     A.U. after   17 cycles
 SCF Done:  E(RB3LYP) =  -804.337663904     A.U. after   16 cycles
 SCF Done:  E(RB3LYP) =  -804.339290030     A.U. after   16 cycles
 SCF Done:  E(RB3LYP) =  -804.340330174     A.U. after   14 cycles
 SCF Done:  E(RB3LYP) =  -804.340308962     A.U. after   13 cycles
 SCF Done:  E(RB3LYP) =  -804.340541531     A.U. after   13 cycles
 SCF Done:  E(RB3LYP) =  -804.340612419     A.U. after   13 cycles
 SCF Done:  E(RB3LYP) =  -804.340662879     A.U. after   13 cycles
 SCF Done:  E(RB3LYP) =  -804.340677459     A.U. after   11 cycles
 SCF Done:  E(RB3LYP) =  -804.340682351     A.U. after   10 cycles
 SCF Done:  E(RB3LYP) =  -804.340682853     A.U. after    9 cycles
 SCF Done:  E(RB3LYP) =  -804.340682957     A.U. after    8 cycles
 Optimization completed.
    -- Stationary point found.
 Normal termination of Gaussian 16 at Mon Dec 14 13:15:11 2020.

 --------------------------------------------------------------------
 #N Geom=AllCheck Guess=TCheck SCRF=Check GenChk RB3LYP/6-31G(d) Freq
 --------------------------------------------------------------------

 Structure from the checkpoint file:  "JID_7777.chk"
 -------------------------------
 CID_150478570_JID_7777_neutraal
 -------------------------------
 Charge =  0 Multiplicity = 1

 SCF Done:  E(RB3LYP) =  -804.340682957     A.U. after    1 cycles

  Exact polarizability: 169.836 -16.373 160.488  11.574   5.078  84.040
 Approx polarizability: 262.948 -12.837 316.250  34.188  21.293 155.189

                      1                      2                      3
                      A                      A                      A
 Frequencies --     29.4962                44.6233                60.9815
 Red. masses --      9.2307                 7.3428                 7.1432
 Frc consts  --      0.0047                 0.0086                 0.0157
 IR Inten    --      0.2682                 3.9369                 2.9370

                      4                      5                      6
                      A                      A                      A
 Frequencies --     98.6696               109.8419               130.6998
 Red. masses --      7.2603                10.4741                 7.9343
 Frc consts  --      0.0416                 0.0745                 0.0799
 IR Inten    --      3.9985                 6.8494                 2.0472

                      7                      8                      9
                      A                      A                      A
 Frequencies --    178.4834               198.7007               259.5063
 Red. masses --      6.9984                 7.2619                 6.9947
 Frc consts  --      0.1314                 0.1689                 0.2775
 IR Inten    --      0.4763                 2.2839                 0.3168

                     10                     11                     12
                      A                      A                      A
 Frequencies --    282.8764               344.8083               371.3110
 Red. masses --      7.3543                 9.4967                 4.3329
 Frc consts  --      0.3467                 0.6652                 0.3520
 IR Inten    --      2.2150                 6.6567                 3.0485

                     13                     14                     15
                      A                      A                      A
 Frequencies --    382.6247               429.3972               468.8179
 Red. masses --      5.9850                 6.0022                 7.9166
 Frc consts  --      0.5162                 0.6520                 1.0252
 IR Inten    --      5.1621                 0.6092                 7.2973

                     16                     17                     18
                      A                      A                      A
 Frequencies --    500.8762               540.6776               554.4960
 Red. masses --      9.9263                 7.1617                12.3015
 Frc consts  --      1.4672                 1.2335                 2.2285
 IR Inten    --      7.4409                 0.7945                10.8294

                     19                     20                     21
                      A                      A                      A
 Frequencies --    604.3740               641.1498               667.7667
 Red. masses --      7.2639                 8.1949                 9.2038
 Frc consts  --      1.5633                 1.9848                 2.4181
 IR Inten    --      7.9067                 0.0971                 4.2286

                     22                     23                     24
                      A                      A                      A
 Frequencies --    707.5836               739.1208               767.5213
 Red. masses --      7.5016                 7.6582                 3.0866
 Frc consts  --      2.2129                 2.4649                 1.0713
 IR Inten    --     28.8823                 2.1153                11.5504

                     25                     26                     27
                      A                      A                      A
 Frequencies --    777.2919               792.4019               841.7240
 Red. masses --      3.7452                 4.2912                 2.2388
 Frc consts  --      1.3332                 1.5875                 0.9345
 IR Inten    --      3.4956                20.2042                 8.7388

                     28                     29                     30
                      A                      A                      A
 Frequencies --    870.0971               883.3432               966.6441
 Red. masses --      7.0224                 1.5045                 1.9349
 Frc consts  --      3.1323                 0.6917                 1.0652
 IR Inten    --      7.3413                 8.7585                33.2196

                     31                     32                     33
                      A                      A                      A
 Frequencies --    971.8421               991.1778              1010.1834
 Red. masses --      2.7900                 1.4058                 1.3311
 Frc consts  --      1.5526                 0.8137                 0.8003
 IR Inten    --     45.0037                 6.9854                 0.1902

                     34                     35                     36
                      A                      A                      A
 Frequencies --   1044.5086              1076.5937              1093.6909
 Red. masses --      7.2316                 2.6741                 2.4990
 Frc consts  --      4.6484                 1.8262                 1.7612
 IR Inten    --      9.0810                 2.5651                 4.9952

                     37                     38                     39
                      A                      A                      A
 Frequencies --   1131.8696              1158.5541              1189.1085
 Red. masses --      2.4805                 3.5261                 3.9784
 Frc consts  --      1.8723                 2.7885                 3.3144
 IR Inten    --     11.8709                 3.4233                 1.0234

                     40                     41                     42
                      A                      A                      A
 Frequencies --   1189.7575              1193.0979              1220.1905
 Red. masses --      2.4196                 5.7019                 2.1264
 Frc consts  --      2.0180                 4.7822                 1.8653
 IR Inten    --     21.0292                27.1398                 9.8448

                     43                     44                     45
                      A                      A                      A
 Frequencies --   1248.3617              1297.7766              1344.1912
 Red. masses --      2.1497                 3.2926                 3.4864
 Frc consts  --      1.9739                 3.2673                 3.7115
 IR Inten    --      4.0949                78.4775               129.9370

                     46                     47                     48
                      A                      A                      A
 Frequencies --   1404.2415              1432.0844              1472.6316
 Red. masses --      5.9888                 3.2944                 2.0532
 Frc consts  --      6.9579                 3.9808                 2.6235
 IR Inten    --    292.3100                19.7535                 9.5411

                     49                     50                     51
                      A                      A                      A
 Frequencies --   1475.7768              1590.2479              1603.9134
 Red. masses --      2.6217                 6.7349                 5.3678
 Frc consts  --      3.3642                10.0349                 8.1360
 IR Inten    --    103.4632                76.8584                15.6928

                     52                     53                     54
                      A                      A                      A
 Frequencies --   1613.8538              1628.0188              1779.3953
 Red. masses --      6.2555                 5.0952                12.9958
 Frc consts  --      9.5994                 7.9567                24.2437
 IR Inten    --     17.4935                 8.7342               157.3079

                     55                     56                     57
                      A                      A                      A
 Frequencies --   2297.3059              3201.6373              3210.7564
 Red. masses --     13.9945                 1.0879                 1.0915
 Frc consts  --     43.5158                 6.5704                 6.6298
 IR Inten    --    634.6189                 1.2202                15.6010

                     58                     59                     60
                      A                      A                      A
 Frequencies --   3216.0085              3224.7751              3232.4160
 Red. masses --      1.0896                 1.0987                 1.0954
 Frc consts  --      6.6396                 6.7316                 6.7435
 IR Inten    --      5.5545                 8.0391                 4.5590

 - Thermochemistry -
 -------------------
 Temperature   298.150 Kelvin.  Pressure   1.00000 Atm.
 Atom     1 has atomic number  6 and mass  12.00000

 Molecular mass:   227.05556 amu.
 Principal axes and moments of inertia in atomic units:
                           1         2         3
     Eigenvalues --  2401.410384729.505446310.04189
           X            0.99940  -0.03401  -0.00711
           Y            0.03403   0.99942   0.00325
           Z            0.00700  -0.00349   0.99997
 This molecule is an asymmetric top.
 Rotational symmetry number  1.
 Warning -- assumption of classical behavior for rotation
           may cause significant error
 Rotational temperatures (Kelvin)      0.03607     0.01831     0.01373
 Rotational constants (GHZ):           0.75153     0.38159     0.28601
 Zero-point vibrational energy     381548.2 (Joules/Mol)
                                   91.19220 (Kcal/Mol)
 Warning -- explicit consideration of  19 degrees of freedom as
           vibrations may cause significant error
 Vibrational temperatures:     42.44    64.20    87.74   141.96   158.04
          (Kelvin)            188.05   256.80   285.89   373.37   407.00
                              496.10   534.23   550.51   617.81   674.52
                              720.65   777.91   797.80   869.56   922.47
                              960.77  1018.05  1063.43  1104.29  1118.35
                             1140.09  1211.05  1251.88  1270.93  1390.79
                             1398.26  1426.08  1453.43  1502.81  1548.98
                             1573.58  1628.51  1666.90  1710.86  1711.80
                             1716.60  1755.58  1796.11  1867.21  1933.99
                             2020.39  2060.45  2118.79  2123.31  2288.01
                             2307.67  2321.98  2342.36  2560.15  3305.31
                             4606.44  4619.56  4627.12  4639.73  4650.73

 Zero-point correction=                           0.145324 (Hartree/Particle)
 Thermal correction to Energy=                    0.158558
 Thermal correction to Enthalpy=                  0.159502
 Thermal correction to Gibbs Free Energy=         0.103395
 Sum of electronic and zero-point Energies=           -804.195359
 Sum of electronic and thermal Energies=              -804.182125
 Sum of electronic and thermal Enthalpies=            -804.181181
 Sum of electronic and thermal Free Energies=         -804.237288

                     E (Thermal)             CV                S
                      KCal/Mol        Cal/Mol-Kelvin    Cal/Mol-Kelvin
 Total                   99.497             48.759            118.087
 Electronic               0.000              0.000              0.000
 Translational            0.889              2.981             42.162
 Rotational               0.889              2.981             32.638
 Vibrational             97.719             42.798             43.286
 Vibration     1          0.593              1.984              5.863
 Vibration     2          0.595              1.980              5.042
 Vibration     3          0.597              1.973              4.425
 Vibration     4          0.604              1.950              3.480
 Vibration     5          0.606              1.941              3.272
 Vibration     6          0.612              1.923              2.936
 Vibration     7          0.629              1.869              2.344
 Vibration     8          0.637              1.842              2.145
 Vibration     9          0.668              1.747              1.665
 Vibration    10          0.682              1.705              1.516
 Vibration    11          0.723              1.586              1.190
 Vibration    12          0.743              1.531              1.074
 Vibration    13          0.752              1.507              1.029
 Vibration    14          0.791              1.406              0.861
 Vibration    15          0.826              1.319              0.741
 Vibration    16          0.856              1.248              0.656
 Vibration    17          0.896              1.160              0.564
 Vibration    18          0.910              1.130              0.535
 Vibration    19          0.963              1.023              0.442

 Optimization completed.
    -- Stationary point found.
 Normal termination of Gaussian 16 at Mon Dec 14 13:22:35 2020.

 ----------------------------------------------------------------------
 # B3LYP/6-311++G(d,p) empiricaldispersion=gd3bj scf=xqc pop=npa geom=c
 heck
 ----------------------------------------------------------------------

 ---------------------------------------
 CID_150478570_JID_7777_Energie_neutraal
 ---------------------------------------
 Structure from the checkpoint file:  "JID_7777.chk"
 Charge =  0 Multiplicity = 1

 SCF Done:  E(RB3LYP) =  -804.549298830     A.U. after   18 cycles
 Normal termination of Gaussian 16 at Mon Dec 14 13:25:57 2020.

 ----------------------------------------------------------------------
 # B3LYP/6-311++G(d,p) empiricaldispersion=gd3bj scf=xqc pop=npa geom=c
 heck
 ----------------------------------------------------------------------

 -------------------------------------
 CID_150478570_JID_7777_Energie_kation
 -------------------------------------
 Structure from the checkpoint file:  "JID_7777.chk"
 Charge =  1 Multiplicity = 2

 SCF Done:  E(UB3LYP) =  -804.223448062     A.U. after   33 cycles
 SCF Done:  E(UB3LYP) =  -804.223448062     a.u. after    2 cycles
 Normal termination of Gaussian 16 at Mon Dec 14 13:48:47 2020.
 Gaussian 16:  ES64L-G16RevA.03 25-Dec-2016

 ----------------------------------------------------------------------
 # B3LYP/6-311++G(d,p) empiricaldispersion=gd3bj scf=xqc pop=npa geom=c
 heck
 ----------------------------------------------------------------------

 ------------------------------------
 CID_150478570_JID_7777_Energie_anion
 ------------------------------------
 Structure from the checkpoint file:  "JID_7777.chk"
 Charge = -1 Multiplicity = 2

                         Standard orientation:
 ---------------------------------------------------------------------
 Center     Atomic      Atomic             Coordinates (Angstroms)
 Number     Number       Type             X           Y           Z
 ---------------------------------------------------------------------
      1          6           0       -2.769812    0.675282    1.470041
      2          6           0       -1.580483    0.046052    1.152243
      3          6           0       -1.540032   -0.666708   -0.052964
      4          7           0       -2.579262   -0.748613   -0.895699
      5          7           0       -3.713502   -0.121731   -0.601536
      6          6           0       -3.810889    0.560398    0.546229
      7          6           0       -0.330950   -1.469138   -0.448246
      8          8           0       -0.442884   -2.551224   -0.991730
      9          6           0        1.040384   -0.962529   -0.090092
     10          6           0        1.460927    0.384233   -0.124336
     11          7           0        2.700399    0.781012    0.198840
     12          7           0        3.613179   -0.109735    0.561935
     13          6           0        3.295927   -1.408208    0.568225
     14          6           0        2.024273   -1.882301    0.243025
     15          7           0        0.553017    1.363259   -0.545970
     16          7           0        0.980251    2.536323   -0.578274
     17          7           0        1.204115    3.643865   -0.663668
     18          1           0       -2.896373    1.237740    2.389518
     19          1           0       -0.715575    0.088393    1.806360
     20          1           0       -4.774871    1.031523    0.717655
     21          1           0        4.098878   -2.080045    0.854831
     22          1           0        1.787564   -2.940966    0.251346
 ---------------------------------------------------------------------

 SCF Done:  E(UB3LYP) =  -804.610119461     A.U. after   28 cycles

 The electronic state is 2-A.
 Alpha  occ. eigenvalues --  -18.95236 -14.39213 -14.29466 -14.26780 -14.23170
 Alpha  occ. eigenvalues --  -14.22030 -14.21795 -14.20853 -10.13861 -10.10246
 Alpha  occ. eigenvalues --  -10.10029 -10.09356 -10.09143 -10.08811 -10.08504
 Alpha  occ. eigenvalues --  -10.06616 -10.06311  -1.05225  -0.91217  -0.90536
 Alpha  occ. eigenvalues --   -0.89126  -0.87833  -0.71901  -0.71232  -0.70783
 Alpha  occ. eigenvalues --   -0.69705  -0.58308  -0.57476  -0.54800  -0.53756
 Alpha  occ. eigenvalues --   -0.47075  -0.46074  -0.42743  -0.42078  -0.41158
 Alpha  occ. eigenvalues --   -0.39832  -0.38755  -0.37547  -0.36003  -0.33418
 Alpha  occ. eigenvalues --   -0.32417  -0.31828  -0.31051  -0.30475  -0.29146
 Alpha  occ. eigenvalues --   -0.28079  -0.25741  -0.23579  -0.22721  -0.20544
 Alpha  occ. eigenvalues --   -0.19822  -0.19523  -0.18232  -0.17144  -0.13594
 Alpha  occ. eigenvalues --   -0.12587  -0.12014  -0.10796  -0.00193
 Alpha virt. eigenvalues --    0.05046   0.05902   0.06346   0.06798   0.07366
 Alpha virt. eigenvalues --    0.08977   0.09731   0.11678   0.11984   0.12815
 Alpha virt. eigenvalues --    0.12921   0.13830   0.14632   0.14951   0.15514

  Beta  occ. eigenvalues --  -18.94598 -14.39196 -14.29447 -14.26787 -14.23229
  Beta  occ. eigenvalues --  -14.21868 -14.21750 -14.20429 -10.13838 -10.10020
  Beta  occ. eigenvalues --  -10.09907 -10.09318 -10.09140 -10.08773 -10.08565
  Beta  occ. eigenvalues --  -10.06480 -10.06120  -1.05194  -0.91008  -0.90187
  Beta  occ. eigenvalues --   -0.88255  -0.87539  -0.71607  -0.71002  -0.70530
  Beta  occ. eigenvalues --   -0.69375  -0.58088  -0.56929  -0.54646  -0.53447
  Beta  occ. eigenvalues --   -0.46893  -0.45602  -0.42599  -0.42042  -0.41046
  Beta  occ. eigenvalues --   -0.39666  -0.38590  -0.37392  -0.35901  -0.33163
  Beta  occ. eigenvalues --   -0.31976  -0.31386  -0.30536  -0.30289  -0.28900
  Beta  occ. eigenvalues --   -0.27477  -0.23681  -0.23270  -0.22148  -0.20392
  Beta  occ. eigenvalues --   -0.19460  -0.19166  -0.17211  -0.15857  -0.13011
  Beta  occ. eigenvalues --   -0.11989  -0.11878  -0.10281
  Beta virt. eigenvalues --    0.05316   0.05652   0.06325   0.06791   0.07318
  Beta virt. eigenvalues --    0.08102   0.08962   0.09720   0.11669   0.11985
  Beta virt. eigenvalues --    0.12886   0.13189   0.14539   0.14922   0.15473

 Mulliken charges and spin densities:
               1          2
     1  C   -0.568105   0.001279
     2  C    0.504917   0.014252
     3  C    0.008315   0.064001
     4  N    0.068859   0.063882
     5  N   -0.095648  -0.032333
     6  C   -0.206696   0.086904
     7  C   -1.159802   0.120580
     8  O   -0.308369   0.230916
     9  C    1.203524   0.086767
    10  C   -0.920029   0.020456
    11  N   -0.172154  -0.005729
    12  N   -0.035385   0.210584
    13  C   -0.495644  -0.056734
    14  C   -0.007743   0.183723
    15  N   -0.424367   0.022609
    16  N    0.878836  -0.003564
    17  N   -0.129501   0.010734
    18  H    0.144204   0.001433
    19  H    0.200293  -0.002980
    20  H    0.165462  -0.006896
    21  H    0.143538   0.000030
    22  H    0.205492  -0.009913
 Sum of Mulliken charges =  -1.00000   1.00000

 Dipole moment (field-independent basis, Debye):
    X=             -1.1826    Y=              2.3988    Z=              4.4673  Tot=              5.2067
 Quadrupole moment (field-independent basis, Debye-Ang):
   XX=           -143.8189   YY=           -122.4177   ZZ=           -104.1326
   XY=            -16.3595   XZ=            -13.8443   YZ=             -5.7095

 Summary of Natural Population Analysis:

                                       Natural Population
                Natural  -----------------------------------------------
    Atom  No    Charge         Core      Valence    Rydberg      Total
 -----------------------------------------------------------------------
      C    1   -0.11475      0.99956     2.10669    0.00850     3.11475
      C    2   -0.08289      0.99952     2.07556    0.00781     3.08289
      C    3    0.06838      0.99950     1.91778    0.01433     2.93162
      N    4   -0.08192      0.99969     2.56703    0.01519     3.58192
      N    5   -0.13811      0.99974     2.62202    0.01635     3.63811
      C    6    0.02243      0.99961     1.96332    0.01464     2.97757
      C    7    0.27422      0.99960     1.70417    0.02201     2.72578
      O    8   -0.19906      0.99988     3.19246    0.00672     4.19906
      C    9   -0.04062      0.99943     2.02991    0.01127     3.04062
      C   10    0.16787      0.99946     1.81831    0.01435     2.83213
      N   11   -0.15791      0.99968     2.63906    0.01917     3.65791
      N   12   -0.06355      0.99973     2.54797    0.01584     3.56355
      C   13   -0.02078      0.99961     2.00710    0.01407     3.02078
      C   14   -0.04708      0.99953     2.03912    0.00843     3.04708
      N   15   -0.17441      0.99964     2.65855    0.01622     3.67441
      N   16    0.13281      0.99971     2.35069    0.01679     3.36719
      N   17   -0.03259      0.99981     2.51917    0.01361     3.53259
      H   18    0.09855      0.00000     0.40028    0.00118     0.40145
      H   19    0.10662      0.00000     0.39205    0.00133     0.39338
      H   20    0.08692      0.00000     0.41183    0.00125     0.41308
      H   21    0.08828      0.00000     0.41051    0.00121     0.41172
      H   22    0.10757      0.00000     0.39116    0.00127     0.39243
 =======================================================================
   * Total *    0.00000     16.99370    40.76474    0.24157    58.00000

 Normal termination of Gaussian 16 at Mon Dec 14 13:56:07 2020.
