 Gaussian 16, Revision A.03,

 -----------------------------------------------------------
 # opt freq B3LYP/6-31G(d) empiricaldispersion=gd3bj scf=xqc
 -----------------------------------------------------------

 ------------------------------
 CID_76996930_JID_4131_neutraal
 ------------------------------
 Symbolic Z-matrix:
 Charge =  0 Multiplicity = 1

 SCF Done:  E(RB3LYP) =  -561.619523062     A.U. after   14 cycles
 SCF Done:  E(RB3LYP) =  -561.622402023     A.U. after   12 cycles
 SCF Done:  E(RB3LYP) =  -561.622857069     A.U. after   11 cycles
 SCF Done:  E(RB3LYP) =  -561.623133003     A.U. after   11 cycles
 SCF Done:  E(RB3LYP) =  -561.623250687     A.U. after   11 cycles
 SCF Done:  E(RB3LYP) =  -561.623311757     A.U. after   11 cycles
 SCF Done:  E(RB3LYP) =  -561.623340836     A.U. after   11 cycles
 SCF Done:  E(RB3LYP) =  -561.623349019     A.U. after   10 cycles
 SCF Done:  E(RB3LYP) =  -561.623351107     A.U. after    9 cycles
 SCF Done:  E(RB3LYP) =  -561.623351922     A.U. after    8 cycles
 SCF Done:  E(RB3LYP) =  -561.623352080     A.U. after    7 cycles
 SCF Done:  E(RB3LYP) =  -561.623352131     A.U. after    6 cycles
 Optimization completed.
    -- Stationary point found.
 Normal termination of Gaussian 16 at Thu Dec 10 09:18:22 2020.

 --------------------------------------------------------------------
 #N Geom=AllCheck Guess=TCheck SCRF=Check GenChk RB3LYP/6-31G(d) Freq
 --------------------------------------------------------------------

 Structure from the checkpoint file:  "JID_4131.chk"
 ------------------------------
 CID_76996930_JID_4131_neutraal
 ------------------------------
 Charge =  0 Multiplicity = 1

 SCF Done:  E(RB3LYP) =  -561.623352131     A.U. after    1 cycles

  Exact polarizability: 241.366  -4.742 132.745  -4.761   3.638  87.610
 Approx polarizability: 309.736 -15.789 226.226 -10.170   9.737 126.373

                      1                      2                      3
                      A                      A                      A
 Frequencies --     24.2416                49.8520                63.3056
 Red. masses --      3.3067                 3.1515                 3.2444
 Frc consts  --      0.0011                 0.0046                 0.0077
 IR Inten    --      0.5679                 1.1783                 1.2552

                      4                      5                      6
                      A                      A                      A
 Frequencies --     92.9058               100.2887               145.9498
 Red. masses --      2.9178                 2.9979                 3.0192
 Frc consts  --      0.0148                 0.0178                 0.0379
 IR Inten    --      1.1136                 2.5250                 1.3132

                      7                      8                      9
                      A                      A                      A
 Frequencies --    218.0451               231.3095               251.4910
 Red. masses --      2.5016                 1.2103                 2.8673
 Frc consts  --      0.0701                 0.0382                 0.1068
 IR Inten    --      3.6746                 1.3513                 3.7267

                     10                     11                     12
                      A                      A                      A
 Frequencies --    272.5508               280.6148               297.9755
 Red. masses --      1.7378                 1.2708                 1.3837
 Frc consts  --      0.0761                 0.0590                 0.0724
 IR Inten    --      1.3961                 1.4111                50.8257

                     13                     14                     15
                      A                      A                      A
 Frequencies --    329.6582               334.5343               358.8060
 Red. masses --      2.1387                 1.0470                 2.6349
 Frc consts  --      0.1369                 0.0690                 0.1999
 IR Inten    --      8.7338                 0.0048                 2.5371

                     16                     17                     18
                      A                      A                      A
 Frequencies --    380.4607               398.9150               415.7337
 Red. masses --      2.6501                 2.9965                 3.0044
 Frc consts  --      0.2260                 0.2809                 0.3059
 IR Inten    --      0.0452                 7.4531                 0.0140

                     19                     20                     21
                      A                      A                      A
 Frequencies --    440.3594               469.4374               503.7882
 Red. masses --      2.9861                 3.0880                 3.1839
 Frc consts  --      0.3412                 0.4009                 0.4761
 IR Inten    --      2.3373                 1.5132                 7.3373

                     22                     23                     24
                      A                      A                      A
 Frequencies --    556.7951               578.3160               659.8404
 Red. masses --      3.0644                 2.4754                 7.0154
 Frc consts  --      0.5597                 0.4878                 1.7996
 IR Inten    --      1.1573                11.6075                 0.0682

                     25                     26                     27
                      A                      A                      A
 Frequencies --    700.6108               749.7314               820.9505
 Red. masses --      4.4311                 3.4339                 1.6056
 Frc consts  --      1.2815                 1.1372                 0.6375
 IR Inten    --      3.6213                 2.5690                13.2038

                     28                     29                     30
                      A                      A                      A
 Frequencies --    839.4573               847.9821               862.4947
 Red. masses --      2.6782                 1.2922                 1.7093
 Frc consts  --      1.1119                 0.5475                 0.7492
 IR Inten    --      2.5320                 1.6986                62.0319

                     31                     32                     33
                      A                      A                      A
 Frequencies --    873.3846               886.9779               940.5020
 Red. masses --      2.8115                 1.5713                 1.7710
 Frc consts  --      1.2636                 0.7283                 0.9230
 IR Inten    --     44.2770                56.4401                 0.6725

                     34                     35                     36
                      A                      A                      A
 Frequencies --    948.0693               952.9784               960.3874
 Red. masses --      1.6919                 1.6981                 1.3467
 Frc consts  --      0.8960                 0.9086                 0.7318
 IR Inten    --      7.5583                 0.9774                 0.0941

                     37                     38                     39
                      A                      A                      A
 Frequencies --    967.1353               976.4399              1017.3502
 Red. masses --      1.2856                 1.2086                 1.1125
 Frc consts  --      0.7085                 0.6789                 0.6784
 IR Inten    --      0.9566                 0.5713                29.0809

                     40                     41                     42
                      A                      A                      A
 Frequencies --   1038.9177              1049.6233              1057.5339
 Red. masses --      2.9783                 3.2489                 1.4589
 Frc consts  --      1.8940                 2.1089                 0.9613
 IR Inten    --      2.7418                 8.3472                 1.6572

                     43                     44                     45
                      A                      A                      A
 Frequencies --   1063.7959              1143.5430              1148.9779
 Red. masses --      1.3913                 2.2996                 2.4109
 Frc consts  --      0.9277                 1.7718                 1.8752
 IR Inten    --      0.0008                25.1987                 2.6835

                     46                     47                     48
                      A                      A                      A
 Frequencies --   1162.7439              1180.4631              1229.6403
 Red. masses --      1.4870                 1.1794                 1.2258
 Frc consts  --      1.1845                 0.9683                 1.0920
 IR Inten    --      0.8856                12.7720                 0.9541

                     49                     50                     51
                      A                      A                      A
 Frequencies --   1243.0160              1246.7961              1259.2141
 Red. masses --      2.7009                 2.4378                 1.6900
 Frc consts  --      2.4587                 2.2328                 1.5788
 IR Inten    --      3.3570                 0.2486                 2.7190

                     52                     53                     54
                      A                      A                      A
 Frequencies --   1292.1264              1309.4903              1338.7688
 Red. masses --      1.6396                 2.9355                 1.2539
 Frc consts  --      1.6129                 2.9658                 1.3241
 IR Inten    --      4.3562                30.0177                 1.0591

                     55                     56                     57
                      A                      A                      A
 Frequencies --   1345.0706              1355.9473              1386.3668
 Red. masses --      2.8560                 1.5630                 1.4830
 Frc consts  --      3.0444                 1.6931                 1.6794
 IR Inten    --      5.3621                 0.4287                 4.2334

                     58                     59                     60
                      A                      A                      A
 Frequencies --   1426.2821              1426.5323              1438.2236
 Red. masses --      1.2656                 1.2160                 1.4733
 Frc consts  --      1.5169                 1.4579                 1.7955
 IR Inten    --      3.2117                 3.5260                58.0885

                     61                     62                     63
                      A                      A                      A
 Frequencies --   1458.7406              1465.2172              1512.5787
 Red. masses --      1.2180                 2.5320                 1.0496
 Frc consts  --      1.5271                 3.2027                 1.4149
 IR Inten    --      2.1598                 9.0058                 0.0078

                     64                     65                     66
                      A                      A                      A
 Frequencies --   1516.8185              1520.7473              1530.1533
 Red. masses --      1.0456                 1.0550                 1.0898
 Frc consts  --      1.4174                 1.4376                 1.5034
 IR Inten    --      0.1659                 0.9857                 0.0858

                     67                     68                     69
                      A                      A                      A
 Frequencies --   1533.6695              1538.3022              1550.5649
 Red. masses --      1.0685                 1.0504                 1.0714
 Frc consts  --      1.4808                 1.4645                 1.5177
 IR Inten    --      6.9064                 5.0020                 4.5225

                     70                     71                     72
                      A                      A                      A
 Frequencies --   1568.0601              1618.3813              1674.5204
 Red. masses --      2.2470                 5.8265                 5.6438
 Frc consts  --      3.2552                 8.9913                 9.3239
 IR Inten    --     25.0429                 2.4388                 2.0594

                     73                     74                     75
                      A                      A                      A
 Frequencies --   1691.6089              1735.9765              2960.1330
 Red. masses --      1.1011                 5.4942                 1.0709
 Frc consts  --      1.8564                 9.7553                 5.5288
 IR Inten    --     26.4918                 1.7131                76.7465

                     76                     77                     78
                      A                      A                      A
 Frequencies --   3032.6726              3044.8109              3045.0902
 Red. masses --      1.0893                 1.0354                 1.0349
 Frc consts  --      5.9028                 5.6553                 5.6537
 IR Inten    --     43.8444                27.5397                24.9607

                     79                     80                     81
                      A                      A                      A
 Frequencies --   3052.8278              3110.8710              3111.5466
 Red. masses --      1.0363                 1.1019                 1.1023
 Frc consts  --      5.6904                 6.2827                 6.2876
 IR Inten    --     32.5647                 5.3721                 4.8240

                     82                     83                     84
                      A                      A                      A
 Frequencies --   3117.9087              3119.4633              3124.7283
 Red. masses --      1.1028                 1.1014                 1.1022
 Frc consts  --      6.3164                 6.3149                 6.3408
 IR Inten    --     25.5599               104.7151                19.0645

                     85                     86                     87
                      A                      A                      A
 Frequencies --   3127.1807              3136.2466              3173.9285
 Red. masses --      1.1014                 1.0882                 1.0884
 Frc consts  --      6.3457                 6.3064                 6.4603
 IR Inten    --     44.2800                22.0226                11.7894

                     88                     89                     90
                      A                      A                      A
 Frequencies --   3176.8145              3187.3127              3206.1674
 Red. masses --      1.0887                 1.0862                 1.0929
 Frc consts  --      6.4734                 6.5014                 6.6192
 IR Inten    --     28.3089                 7.7297                22.1373

                     91                     92                     93
                      A                      A                      A
 Frequencies --   3223.1749              3462.1651              3551.1476
 Red. masses --      1.0905                 1.0494                 1.0929
 Frc consts  --      6.6752                 7.4112                 8.1204
 IR Inten    --     15.1128                10.0517                 2.2894

 - Thermochemistry -
 -------------------
 Temperature   298.150 Kelvin.  Pressure   1.00000 Atm.
 Atom     1 has atomic number  6 and mass  12.00000

 Molecular mass:   189.15175 amu.
 Principal axes and moments of inertia in atomic units:
                           1         2         3
     Eigenvalues --   851.310277390.647037724.71181
           X            1.00000   0.00314  -0.00017
           Y           -0.00314   0.99993   0.01168
           Z            0.00021  -0.01168   0.99993
 This molecule is an asymmetric top.
 Rotational symmetry number  1.
 Warning -- assumption of classical behavior for rotation
           may cause significant error
 Rotational temperatures (Kelvin)      0.10174     0.01172     0.01121
 Rotational constants (GHZ):           2.11996     0.24419     0.23363
 Zero-point vibrational energy     770528.0 (Joules/Mol)
                                  184.16062 (Kcal/Mol)
 Warning -- explicit consideration of  23 degrees of freedom as
           vibrations may cause significant error
 Vibrational temperatures:     34.88    71.73    91.08   133.67   144.29
          (Kelvin)            209.99   313.72   332.80   361.84   392.14
                              403.74   428.72   474.30   481.32   516.24
                              547.40   573.95   598.15   633.58   675.42
                              724.84   801.10   832.07   949.36  1008.02
                             1078.70  1181.16  1207.79  1220.06  1240.94
                             1256.61  1276.16  1353.17  1364.06  1371.12
                             1381.78  1391.49  1404.88  1463.74  1494.77
                             1510.17  1521.56  1530.57  1645.30  1653.12
                             1672.93  1698.42  1769.18  1788.42  1793.86
                             1811.73  1859.08  1884.06  1926.19  1935.26
                             1950.91  1994.67  2052.10  2052.46  2069.28
                             2098.80  2108.12  2176.26  2182.36  2188.02
                             2201.55  2206.61  2213.27  2230.92  2256.09
                             2328.49  2409.26  2433.85  2497.68  4258.97
                             4363.34  4380.80  4381.21  4392.34  4475.85
                             4476.82  4485.98  4488.21  4495.79  4499.32
                             4512.36  4566.58  4570.73  4585.83  4612.96
                             4637.43  4981.28  5109.31

 Zero-point correction=                           0.293479 (Hartree/Particle)
 Thermal correction to Energy=                    0.308382
 Thermal correction to Enthalpy=                  0.309326
 Thermal correction to Gibbs Free Energy=         0.251089
 Sum of electronic and zero-point Energies=           -561.329873
 Sum of electronic and thermal Energies=              -561.314970
 Sum of electronic and thermal Enthalpies=            -561.314026
 Sum of electronic and thermal Free Energies=         -561.372263

                     E (Thermal)             CV                S
                      KCal/Mol        Cal/Mol-Kelvin    Cal/Mol-Kelvin
 Total                  193.512             57.182            122.570
 Electronic               0.000              0.000              0.000
 Translational            0.889              2.981             41.618
 Rotational               0.889              2.981             32.252
 Vibrational            191.735             51.220             48.700
 Vibration     1          0.593              1.985              6.252
 Vibration     2          0.595              1.978              4.823
 Vibration     3          0.597              1.972              4.351
 Vibration     4          0.602              1.954              3.598
 Vibration     5          0.604              1.949              3.449
 Vibration     6          0.617              1.907              2.724
 Vibration     7          0.646              1.814              1.975
 Vibration     8          0.653              1.793              1.869
 Vibration     9          0.663              1.760              1.720
 Vibration    10          0.676              1.724              1.580
 Vibration    11          0.680              1.709              1.530
 Vibration    12          0.691              1.677              1.428
 Vibration    13          0.712              1.616              1.262
 Vibration    14          0.716              1.607              1.238
 Vibration    15          0.734              1.557              1.127
 Vibration    16          0.750              1.512              1.037
 Vibration    17          0.765              1.472              0.967
 Vibration    18          0.779              1.436              0.907
 Vibration    19          0.800              1.382              0.825
 Vibration    20          0.827              1.318              0.739
 Vibration    21          0.859              1.242              0.649
 Vibration    22          0.912              1.125              0.530
 Vibration    23          0.935              1.078              0.488

                           ! Non-Optimized Parameters !
 Normal termination of Gaussian 16 at Thu Dec 10 09:26:36 2020.

 ----------------------------------------------------------------------
 # B3LYP/6-311++G(d,p) empiricaldispersion=gd3bj scf=xqc pop=npa geom=c
 heck
 ----------------------------------------------------------------------

 --------------------------------------
 CID_76996930_JID_4131_Energie_neutraal
 --------------------------------------
 Structure from the checkpoint file:  "JID_4131.chk"
 Charge =  0 Multiplicity = 1

 SCF Done:  E(RB3LYP) =  -561.781373916     A.U. after   14 cycles
 Normal termination of Gaussian 16 at Thu Dec 10 09:30:22 2020.

 ----------------------------------------------------------------------
 # B3LYP/6-311++G(d,p) empiricaldispersion=gd3bj scf=xqc pop=npa geom=c
 heck
 ----------------------------------------------------------------------

 ------------------------------------
 CID_76996930_JID_4131_Energie_kation
 ------------------------------------
 Structure from the checkpoint file:  "JID_4131.chk"
 Charge =  1 Multiplicity = 2

 SCF Done:  E(UB3LYP) =  -561.500032794     A.U. after   19 cycles
 Normal termination of Gaussian 16 at Thu Dec 10 09:36:47 2020.
 Gaussian 16:  ES64L-G16RevA.03 25-Dec-2016

 ----------------------------------------------------------------------
 # B3LYP/6-311++G(d,p) empiricaldispersion=gd3bj scf=xqc pop=npa geom=c
 heck
 ----------------------------------------------------------------------

 -----------------------------------
 CID_76996930_JID_4131_Energie_anion
 -----------------------------------
 Structure from the checkpoint file:  "JID_4131.chk"
 Charge = -1 Multiplicity = 2

                         Standard orientation:
 ---------------------------------------------------------------------
 Center     Atomic      Atomic             Coordinates (Angstroms)
 Number     Number       Type             X           Y           Z
 ---------------------------------------------------------------------
      1          6           0       -4.028374    1.144180    0.254391
      2          6           0       -3.243067   -0.163790    0.064753
      3          6           0       -3.564329   -1.096753    1.252810
      4          6           0       -3.715494   -0.825001   -1.248502
      5          6           0       -1.729264    0.070914   -0.001181
      6          6           0       -0.857390   -1.019931   -0.170538
      7          6           0        0.518399   -0.855842   -0.237031
      8          6           0        1.102082    0.420002   -0.133906
      9          6           0        0.235311    1.508237    0.032067
     10          6           0       -1.147358    1.338720    0.097501
     11          6           0        2.549406    0.654793   -0.189859
     12          6           0        3.520975   -0.262463   -0.296835
     13          6           0        4.983300    0.067457   -0.348369
     14          7           0        5.703040   -0.679936    0.693509
     15          1           0       -5.101263    0.927165    0.296653
     16          1           0       -3.862682    1.840303   -0.575185
     17          1           0       -3.754595    1.649686    1.187004
     18          1           0       -4.643827   -1.280234    1.312468
     19          1           0       -3.064815   -2.065611    1.153791
     20          1           0       -3.240111   -0.647744    2.198040
     21          1           0       -3.500418   -0.179907   -2.107436
     22          1           0       -3.220059   -1.785953   -1.419226
     23          1           0       -4.796664   -1.005628   -1.217087
     24          1           0       -1.263904   -2.023688   -0.254910
     25          1           0        1.148635   -1.729369   -0.373704
     26          1           0        0.653007    2.509250    0.113070
     27          1           0       -1.769696    2.216657    0.227388
     28          1           0        2.843254    1.704273   -0.136154
     29          1           0        3.289895   -1.325720   -0.330346
     30          1           0        5.396925   -0.255388   -1.314999
     31          1           0        5.112160    1.163739   -0.300474
     32          1           0        6.701884   -0.490633    0.625968
     33          1           0        5.405809   -0.344770    1.608776
 ---------------------------------------------------------------------

 SCF Done:  E(UB3LYP) =  -561.773200999     A.U. after   33 cycles
 SCF Done:  E(UB3LYP) =  -561.773200999     a.u. after    1 cycles

 The electronic state is 2-A.
 Alpha  occ. eigenvalues --  -14.16286 -10.09054 -10.06977 -10.06722 -10.06650
 Alpha  occ. eigenvalues --  -10.06378 -10.04673 -10.04385 -10.04332 -10.04002
 Alpha  occ. eigenvalues --  -10.03823 -10.03673 -10.02448 -10.01851  -0.75261
 Alpha  occ. eigenvalues --   -0.74384  -0.71013  -0.65106  -0.62108  -0.60237
 Alpha  occ. eigenvalues --   -0.59467  -0.59430  -0.53219  -0.48720  -0.47838
 Alpha  occ. eigenvalues --   -0.44020  -0.41919  -0.39025  -0.36395  -0.35075
 Alpha  occ. eigenvalues --   -0.34937  -0.34932  -0.32534  -0.32068  -0.30806
 Alpha  occ. eigenvalues --   -0.30401  -0.29916  -0.28641  -0.27742  -0.27381
 Alpha  occ. eigenvalues --   -0.26818  -0.25118  -0.24844  -0.23795  -0.23504
 Alpha  occ. eigenvalues --   -0.21894  -0.20602  -0.20107  -0.16418  -0.13077
 Alpha  occ. eigenvalues --   -0.11874  -0.09053   0.05147
 Alpha virt. eigenvalues --    0.06211   0.07989   0.08294   0.08734   0.09026
 Alpha virt. eigenvalues --    0.10111   0.10536   0.10771   0.10856   0.11388
 Alpha virt. eigenvalues --    0.11517   0.11797   0.12708   0.13034   0.13792

  Beta  occ. eigenvalues --  -14.16197 -10.09072 -10.06976 -10.06705 -10.06630
  Beta  occ. eigenvalues --  -10.06387 -10.04731 -10.04362 -10.04098 -10.03957
  Beta  occ. eigenvalues --  -10.03680 -10.03557 -10.02361 -10.01612  -0.75083
  Beta  occ. eigenvalues --   -0.74192  -0.70851  -0.64737  -0.61966  -0.59881
  Beta  occ. eigenvalues --   -0.59427  -0.59389  -0.52930  -0.48566  -0.47773
  Beta  occ. eigenvalues --   -0.43835  -0.41638  -0.38946  -0.36267  -0.35008
  Beta  occ. eigenvalues --   -0.34877  -0.34797  -0.32414  -0.31974  -0.30687
  Beta  occ. eigenvalues --   -0.30316  -0.29880  -0.28560  -0.27732  -0.27259
  Beta  occ. eigenvalues --   -0.26679  -0.24834  -0.24725  -0.23687  -0.23096
  Beta  occ. eigenvalues --   -0.21765  -0.20485  -0.19977  -0.15348  -0.12596
  Beta  occ. eigenvalues --   -0.11759  -0.07842
  Beta virt. eigenvalues --    0.06151   0.08201   0.08480   0.08695   0.08950
  Beta virt. eigenvalues --    0.09819   0.10186   0.10727   0.10873   0.11087
  Beta virt. eigenvalues --    0.11487   0.11606   0.11781   0.12699   0.13379

 Mulliken charges and spin densities:
               1          2
     1  C   -0.539035   0.015929
     2  C    0.565004  -0.007912
     3  C   -0.594686  -0.071877
     4  C   -0.679135   0.008964
     5  C    0.301546   0.167206
     6  C   -0.745951  -0.066921
     7  C   -1.117864   0.114797
     8  C    1.171169   0.088394
     9  C   -0.196614   0.121724
    10  C   -0.382112   0.067313
    11  C   -0.014836   0.269832
    12  C   -0.248212   0.348802
    13  C    0.666710  -1.314681
    14  N   -0.316526  -0.009319
    15  H    0.135963   0.002756
    16  H    0.123829   0.002203
    17  H    0.128575  -0.001542
    18  H    0.087100   0.037591
    19  H    0.130841   0.004886
    20  H    0.139056  -0.000363
    21  H    0.135736   0.001485
    22  H    0.134126   0.000779
    23  H    0.122727   0.002143
    24  H    0.116764   0.001872
    25  H    0.053942  -0.012482
    26  H    0.117237   0.019862
    27  H    0.107295  -0.001870
    28  H    0.087326  -0.068075
    29  H    0.109235  -0.014038
    30  H   -0.094650   0.232859
    31  H   -0.122423   0.251661
    32  H   -0.369049   0.597966
    33  H   -0.013084   0.210058
 Sum of Mulliken charges =  -1.00000   1.00000

 Dipole moment (field-independent basis, Debye):
    X=            -13.9226    Y=              1.1223    Z=             -0.8741  Tot=             13.9951
 Quadrupole moment (field-independent basis, Debye-Ang):
   XX=           -210.0537   YY=           -100.8879   ZZ=           -104.9845
   XY=              7.8134   XZ=             -6.0546   YZ=              2.6838

 Summary of Natural Population Analysis:

                                       Natural Population
                Natural  -----------------------------------------------
    Atom  No    Charge         Core      Valence    Rydberg      Total
 -----------------------------------------------------------------------
      C    1   -0.28469      0.99964     2.27920    0.00585     3.28469
      C    2   -0.05175      0.99957     2.04333    0.00885     3.05175
      C    3   -0.27692      0.99964     2.27189    0.00538     3.27692
      C    4   -0.27668      0.99964     2.27166    0.00538     3.27668
      C    5    0.00824      0.99950     1.97818    0.01408     2.99176
      C    6   -0.11666      0.99953     2.10970    0.00743     3.11666
      C    7   -0.06744      0.99954     2.05998    0.00793     3.06744
      C    8   -0.01458      0.99950     2.00391    0.01117     3.01458
      C    9   -0.09130      0.99956     2.08054    0.01120     3.09130
      C   10   -0.08952      0.99952     2.08545    0.00454     3.08952
      C   11   -0.09545      0.99950     2.08604    0.00990     3.09545
      C   12   -0.04060      0.99953     2.03126    0.00981     3.04060
      C   13   -0.10452      0.99962     2.09161    0.01330     3.10452
      N   14   -0.42091      0.99977     2.90933    0.01181     3.92091
      H   15    0.09397      0.00000     0.40522    0.00082     0.40603
      H   16    0.09987      0.00000     0.39928    0.00086     0.40013
      H   17    0.10018      0.00000     0.39897    0.00085     0.39982
      H   18    0.09051      0.00000     0.40855    0.00094     0.40949
      H   19    0.09929      0.00000     0.39996    0.00075     0.40071
      H   20    0.10062      0.00000     0.39869    0.00069     0.39938
      H   21    0.10019      0.00000     0.39911    0.00070     0.39981
      H   22    0.09918      0.00000     0.40006    0.00075     0.40082
      H   23    0.09017      0.00000     0.40891    0.00092     0.40983
      H   24    0.09043      0.00000     0.40828    0.00129     0.40957
      H   25    0.09490      0.00000     0.40383    0.00126     0.40510
      H   26    0.09012      0.00000     0.40807    0.00181     0.40988
      H   27    0.08986      0.00000     0.40860    0.00154     0.41014
      H   28    0.08308      0.00000     0.41453    0.00238     0.41692
      H   29    0.08684      0.00000     0.41193    0.00124     0.41316
      H   30    0.09148      0.00000     0.40706    0.00146     0.40852
      H   31    0.07554      0.00000     0.42276    0.00170     0.42446
      H   32    0.17559      0.00000     0.31517    0.00924     0.32441
      H   33    0.17100      0.00000     0.32692    0.00208     0.32900
 =======================================================================
   * Total *    0.00003     13.99407    37.84796    0.15794    51.99997

 Normal termination of Gaussian 16 at Thu Dec 10 09:48:20 2020.
