 Gaussian 16, Revision A.03,

 -----------------------------------------------------------
 # opt freq B3LYP/6-31G(d) empiricaldispersion=gd3bj scf=xqc
 -----------------------------------------------------------

 ------------------------------
 CID_65315154_JID_6108_neutraal
 ------------------------------
 Symbolic Z-matrix:
 Charge =  0 Multiplicity = 1

 SCF Done:  E(RB3LYP) =  -749.161871904     A.U. after   14 cycles
 SCF Done:  E(RB3LYP) =  -749.166439374     A.U. after   12 cycles
 SCF Done:  E(RB3LYP) =  -749.165188084     A.U. after   12 cycles
 SCF Done:  E(RB3LYP) =  -749.166330532     A.U. after   11 cycles
 SCF Done:  E(RB3LYP) =  -749.167236386     A.U. after    9 cycles
 SCF Done:  E(RB3LYP) =  -749.168184991     A.U. after   12 cycles
 SCF Done:  E(RB3LYP) =  -749.168336606     A.U. after   11 cycles
 SCF Done:  E(RB3LYP) =  -749.168429518     A.U. after   10 cycles
 SCF Done:  E(RB3LYP) =  -749.168449179     A.U. after    9 cycles
 SCF Done:  E(RB3LYP) =  -749.168441685     A.U. after   10 cycles
 SCF Done:  E(RB3LYP) =  -749.168491709     A.U. after    9 cycles
 SCF Done:  E(RB3LYP) =  -749.168497374     A.U. after    9 cycles
 SCF Done:  E(RB3LYP) =  -749.168500311     A.U. after    9 cycles
 SCF Done:  E(RB3LYP) =  -749.168500601     A.U. after    7 cycles
 SCF Done:  E(RB3LYP) =  -749.168500722     A.U. after    7 cycles
 Optimization completed.
    -- Stationary point found.
 Normal termination of Gaussian 16 at Thu Dec 10 21:19:45 2020.

 --------------------------------------------------------------------
 #N Geom=AllCheck Guess=TCheck SCRF=Check GenChk RB3LYP/6-31G(d) Freq
 --------------------------------------------------------------------

 Structure from the checkpoint file:  "JID_6108.chk"
 ------------------------------
 CID_65315154_JID_6108_neutraal
 ------------------------------
 Charge =  0 Multiplicity = 1

 SCF Done:  E(RB3LYP) =  -749.168500722     A.U. after    1 cycles

  Exact polarizability: 180.375 -12.998 153.734 -13.083  -9.556  96.893
 Approx polarizability: 238.139 -15.962 230.447 -26.148 -21.702 151.689

                      1                      2                      3
                      A                      A                      A
 Frequencies --     24.9155                28.1238                44.2980
 Red. masses --      3.3319                 1.1626                 4.3004
 Frc consts  --      0.0012                 0.0005                 0.0050
 IR Inten    --      0.5733                 0.3730                 1.5149

                      4                      5                      6
                      A                      A                      A
 Frequencies --     77.9869                82.9821               113.8607
 Red. masses --      3.9963                 3.3382                 4.6485
 Frc consts  --      0.0143                 0.0135                 0.0355
 IR Inten    --      0.8927                 2.9328                 0.5233

                      7                      8                      9
                      A                      A                      A
 Frequencies --    138.7069               143.8413               174.4786
 Red. masses --      4.2450                 2.9271                 4.2654
 Frc consts  --      0.0481                 0.0357                 0.0765
 IR Inten    --      5.6095                 5.9627                 1.0716

                     10                     11                     12
                      A                      A                      A
 Frequencies --    202.7875               210.1602               234.1250
 Red. masses --      3.2933                 2.9861                 3.0993
 Frc consts  --      0.0798                 0.0777                 0.1001
 IR Inten    --      0.3978                 0.3977                 4.4566

                     13                     14                     15
                      A                      A                      A
 Frequencies --    261.6740               295.0219               303.7278
 Red. masses --      1.1655                 2.3641                 3.9140
 Frc consts  --      0.0470                 0.1212                 0.2127
 IR Inten    --      0.1585                 1.0138                 3.0277

                     16                     17                     18
                      A                      A                      A
 Frequencies --    320.5767               358.7249               377.6027
 Red. masses --      3.3702                 3.1207                 3.7962
 Frc consts  --      0.2041                 0.2366                 0.3189
 IR Inten    --      5.5077                 1.0325                 1.4394

                     19                     20                     21
                      A                      A                      A
 Frequencies --    395.3223               454.8606               473.4147
 Red. masses --      2.9142                 3.3875                 3.9067
 Frc consts  --      0.2683                 0.4129                 0.5159
 IR Inten    --      1.9013                 1.8207                 5.0399

                     22                     23                     24
                      A                      A                      A
 Frequencies --    515.4222               536.9197               571.7126
 Red. masses --      2.8189                 2.7541                 1.8192
 Frc consts  --      0.4412                 0.4678                 0.3503
 IR Inten    --      2.6133                14.4011                15.6870

                     25                     26                     27
                      A                      A                      A
 Frequencies --    587.2007               601.9951               637.0259
 Red. masses --      2.1763                 1.1760                 4.0825
 Frc consts  --      0.4421                 0.2511                 0.9761
 IR Inten    --     37.5239               120.2420                17.2980

                     28                     29                     30
                      A                      A                      A
 Frequencies --    688.8578               727.3608               743.4024
 Red. masses --      2.9825                 4.6145                 3.6651
 Frc consts  --      0.8339                 1.4384                 1.1934
 IR Inten    --     29.4466                 8.8837                 3.3259

                     31                     32                     33
                      A                      A                      A
 Frequencies --    782.6177               811.2540               820.2362
 Red. masses --      4.5121                 1.9303                 1.4550
 Frc consts  --      1.6283                 0.7485                 0.5768
 IR Inten    --     12.5034                39.0578                34.6721

                     34                     35                     36
                      A                      A                      A
 Frequencies --    905.3855               915.1437               935.6198
 Red. masses --      1.5170                 1.5950                 1.4412
 Frc consts  --      0.7327                 0.7870                 0.7433
 IR Inten    --     10.7223                 6.7213                 3.2953

                     37                     38                     39
                      A                      A                      A
 Frequencies --    938.7100               945.4830               963.6016
 Red. masses --      1.6511                 1.8672                 2.3932
 Frc consts  --      0.8572                 0.9834                 1.3092
 IR Inten    --      6.5353                15.7047                10.4143

                     40                     41                     42
                      A                      A                      A
 Frequencies --   1003.2202              1040.2455              1070.1659
 Red. masses --      1.6744                 1.7041                 5.6676
 Frc consts  --      0.9929                 1.0865                 3.8243
 IR Inten    --      2.0512                15.1127                46.3543

                     43                     44                     45
                      A                      A                      A
 Frequencies --   1077.5808              1091.7688              1103.9914
 Red. masses --      1.4968                 5.1166                 4.5874
 Frc consts  --      1.0241                 3.5933                 3.2942
 IR Inten    --      3.5546                54.8492                69.7512

                     46                     47                     48
                      A                      A                      A
 Frequencies --   1106.7587              1142.2142              1153.0591
 Red. masses --      2.2557                 2.7174                 2.1557
 Frc consts  --      1.6279                 2.0888                 1.6887
 IR Inten    --     29.0086                27.0850                48.8456

                     49                     50                     51
                      A                      A                      A
 Frequencies --   1173.9918              1187.0756              1194.3910
 Red. masses --      1.9689                 1.2799                 1.5377
 Frc consts  --      1.5988                 1.0626                 1.2924
 IR Inten    --     25.3664                 1.8080                 4.2216

                     52                     53                     54
                      A                      A                      A
 Frequencies --   1221.8533              1237.4453              1251.3838
 Red. masses --      1.4041                 1.1618                 1.1892
 Frc consts  --      1.2350                 1.0481                 1.0972
 IR Inten    --      9.4239                11.3755                 5.3577

                     55                     56                     57
                      A                      A                      A
 Frequencies --   1258.3557              1267.8955              1291.2453
 Red. masses --      1.3566                 2.0785                 4.1939
 Frc consts  --      1.2657                 1.9687                 4.1199
 IR Inten    --     31.4063                87.3397                96.3810

                     58                     59                     60
                      A                      A                      A
 Frequencies --   1321.3040              1333.1182              1353.1889
 Red. masses --      1.4110                 1.4586                 1.3847
 Frc consts  --      1.4514                 1.5273                 1.4939
 IR Inten    --      0.8933                 4.9693                 5.1646

                     61                     62                     63
                      A                      A                      A
 Frequencies --   1370.8334              1386.1827              1413.6099
 Red. masses --      3.9205                 1.2695                 1.2914
 Frc consts  --      4.3408                 1.4372                 1.5204
 IR Inten    --     14.1638                34.7749                23.3426

                     64                     65                     66
                      A                      A                      A
 Frequencies --   1425.8090              1444.8449              1457.3852
 Red. masses --      1.3621                 1.2465                 1.1820
 Frc consts  --      1.6315                 1.5331                 1.4792
 IR Inten    --      5.0300                 0.2061                30.7294

                     67                     68                     69
                      A                      A                      A
 Frequencies --   1469.4028              1478.6898              1498.6533
 Red. masses --      3.0522                 1.2713                 1.1986
 Frc consts  --      3.8828                 1.6378                 1.5860
 IR Inten    --      1.7235                91.0431                 3.7197

                     70                     71                     72
                      A                      A                      A
 Frequencies --   1509.9036              1515.2262              1520.6786
 Red. masses --      1.1869                 1.0440                 1.0531
 Frc consts  --      1.5943                 1.4123                 1.4348
 IR Inten    --     49.6316                 5.9470                11.5270

                     73                     74                     75
                      A                      A                      A
 Frequencies --   1528.4236              1529.7677              1536.3094
 Red. masses --      1.1196                 1.1021                 1.1208
 Frc consts  --      1.5410                 1.5196                 1.5586
 IR Inten    --      5.5712                 1.4315                66.7767

                     76                     77                     78
                      A                      A                      A
 Frequencies --   1548.7985              1552.4166              1557.1305
 Red. masses --      1.2800                 1.1220                 1.7070
 Frc consts  --      1.8090                 1.5932                 2.4386
 IR Inten    --     34.2723                 1.6382                51.5615

                     79                     80                     81
                      A                      A                      A
 Frequencies --   1648.1686              1676.4554              2985.6928
 Red. masses --      6.3446                 6.0653                 1.0710
 Frc consts  --     10.1544                10.0435                 5.6251
 IR Inten    --      6.3729                 8.1957                50.3055

                     82                     83                     84
                      A                      A                      A
 Frequencies --   3007.3953              3019.2056              3042.4652
 Red. masses --      1.0687                 1.0671                 1.0330
 Frc consts  --      5.6950                 5.7313                 5.6337
 IR Inten    --      3.2391                68.5938                51.6899

                     85                     86                     87
                      A                      A                      A
 Frequencies --   3044.6741              3050.2153              3072.1119
 Red. masses --      1.0373                 1.0831                 1.0954
 Frc consts  --      5.6654                 5.9374                 6.0910
 IR Inten    --     31.8484                44.5890                28.6560

                     88                     89                     90
                      A                      A                      A
 Frequencies --   3082.7059              3091.1436              3096.5260
 Red. masses --      1.0949                 1.0945                 1.1011
 Frc consts  --      6.1304                 6.1620                 6.2206
 IR Inten    --     15.7938               103.5820                19.6095

                     91                     92                     93
                      A                      A                      A
 Frequencies --   3109.3882              3126.3938              3168.5657
 Red. masses --      1.1073                 1.1010                 1.1024
 Frc consts  --      6.3077                 6.3403                 6.5212
 IR Inten    --     31.0406                17.1442                12.3455

                     94                     95                     96
                      A                      A                      A
 Frequencies --   3177.5806              3187.2551              3229.6405
 Red. masses --      1.0901                 1.0894                 1.0914
 Frc consts  --      6.4850                 6.5206                 6.7069
 IR Inten    --     13.2275                16.4625                10.1211

                     97                     98                     99
                      A                      A                      A
 Frequencies --   3487.9578              3609.0621              3673.9989
 Red. masses --      1.0732                 1.0643                 1.0659
 Frc consts  --      7.6927                 8.1680                 8.4768
 IR Inten    --      0.7968                97.9998               320.1369

 - Thermochemistry -
 -------------------
 Temperature   298.150 Kelvin.  Pressure   1.00000 Atm.
 Atom     1 has atomic number  6 and mass  12.00000

 Molecular mass:   225.13649 amu.
 Principal axes and moments of inertia in atomic units:
                           1         2         3
     Eigenvalues --  2386.176725586.997977424.94405
           X            0.99984  -0.01665  -0.00691
           Y            0.01659   0.99983  -0.00770
           Z            0.00704   0.00759   0.99995
 This molecule is an asymmetric top.
 Rotational symmetry number  1.
 Warning -- assumption of classical behavior for rotation
           may cause significant error
 Rotational temperatures (Kelvin)      0.03630     0.01550     0.01167
 Rotational constants (GHZ):           0.75633     0.32303     0.24306
 Zero-point vibrational energy     798842.7 (Joules/Mol)
                                  190.92798 (Kcal/Mol)
 Warning -- explicit consideration of  26 degrees of freedom as
           vibrations may cause significant error
 Vibrational temperatures:     35.85    40.46    63.74   112.21   119.39
          (Kelvin)            163.82   199.57   206.96   251.04   291.77
                              302.37   336.85   376.49   424.47   437.00
                              461.24   516.13   543.29   568.78   654.44
                              681.14   741.58   772.51   822.57   844.85
                              866.14   916.54   991.11  1046.51  1069.59
                             1126.01  1167.21  1180.14  1302.65  1316.69
                             1346.15  1350.59  1360.34  1386.41  1443.41
                             1496.68  1539.73  1550.40  1570.81  1588.40
                             1592.38  1643.39  1658.99  1689.11  1707.94
                             1718.46  1757.97  1780.41  1800.46  1810.49
                             1824.22  1857.81  1901.06  1918.06  1946.94
                             1972.32  1994.41  2033.87  2051.42  2078.81
                             2096.85  2114.14  2127.50  2156.23  2172.41
                             2180.07  2187.92  2199.06  2200.99  2210.41
                             2228.38  2233.58  2240.36  2371.35  2412.05
                             4295.75  4326.97  4343.96  4377.43  4380.61
                             4388.58  4420.08  4435.33  4447.47  4455.21
                             4473.72  4498.18  4558.86  4571.83  4585.75
                             4646.73  5018.39  5192.64  5286.06

 Zero-point correction=                           0.304263 (Hartree/Particle)
 Thermal correction to Energy=                    0.321096
 Thermal correction to Enthalpy=                  0.322040
 Thermal correction to Gibbs Free Energy=         0.258307
 Sum of electronic and zero-point Energies=           -748.864238
 Sum of electronic and thermal Energies=              -748.847405
 Sum of electronic and thermal Enthalpies=            -748.846461
 Sum of electronic and thermal Free Energies=         -748.910194

                     E (Thermal)             CV                S
                      KCal/Mol        Cal/Mol-Kelvin    Cal/Mol-Kelvin
 Total                  201.491             62.660            134.138
 Electronic               0.000              0.000              0.000
 Translational            0.889              2.981             42.137
 Rotational               0.889              2.981             32.959
 Vibrational            199.713             56.698             59.042
 Vibration     1          0.593              1.985              6.198
 Vibration     2          0.593              1.984              5.958
 Vibration     3          0.595              1.980              5.057
 Vibration     4          0.599              1.964              3.941
 Vibration     5          0.600              1.961              3.819
 Vibration     6          0.607              1.938              3.202
 Vibration     7          0.614              1.915              2.822
 Vibration     8          0.616              1.909              2.752
 Vibration     9          0.627              1.874              2.387
 Vibration    10          0.639              1.836              2.108
 Vibration    11          0.642              1.825              2.042
 Vibration    12          0.654              1.789              1.847
 Vibration    13          0.669              1.743              1.651
 Vibration    14          0.689              1.683              1.445
 Vibration    15          0.695              1.667              1.396
 Vibration    16          0.706              1.634              1.307
 Vibration    17          0.734              1.557              1.128
 Vibration    18          0.748              1.518              1.049
 Vibration    19          0.762              1.480              0.980
 Vibration    20          0.813              1.350              0.781
 Vibration    21          0.830              1.309              0.728
 Vibration    22          0.870              1.216              0.621
 Vibration    23          0.892              1.168              0.572
 Vibration    24          0.928              1.092              0.501
 Vibration    25          0.944              1.059              0.472
 Vibration    26          0.960              1.028              0.446

                           ! Non-Optimized Parameters !
 Normal termination of Gaussian 16 at Thu Dec 10 21:31:25 2020.

 ----------------------------------------------------------------------
 # B3LYP/6-311++G(d,p) empiricaldispersion=gd3bj scf=xqc pop=npa geom=c
 heck
 ----------------------------------------------------------------------

 --------------------------------------
 CID_65315154_JID_6108_Energie_neutraal
 --------------------------------------
 Structure from the checkpoint file:  "JID_6108.chk"
 Charge =  0 Multiplicity = 1

 SCF Done:  E(RB3LYP) =  -749.399806585     A.U. after   14 cycles
 Normal termination of Gaussian 16 at Thu Dec 10 21:36:55 2020.

 ----------------------------------------------------------------------
 # B3LYP/6-311++G(d,p) empiricaldispersion=gd3bj scf=xqc pop=npa geom=c
 heck
 ----------------------------------------------------------------------

 ------------------------------------
 CID_65315154_JID_6108_Energie_kation
 ------------------------------------
 Structure from the checkpoint file:  "JID_6108.chk"
 Charge =  1 Multiplicity = 2

 SCF Done:  E(UB3LYP) =  -749.105655439     A.U. after   25 cycles
 Normal termination of Gaussian 16 at Thu Dec 10 21:50:07 2020.
 Gaussian 16:  ES64L-G16RevA.03 25-Dec-2016

 ----------------------------------------------------------------------
 # B3LYP/6-311++G(d,p) empiricaldispersion=gd3bj scf=xqc pop=npa geom=c
 heck
 ----------------------------------------------------------------------

 -----------------------------------
 CID_65315154_JID_6108_Energie_anion
 -----------------------------------
 Structure from the checkpoint file:  "JID_6108.chk"
 Charge = -1 Multiplicity = 2

                         Standard orientation:
 ---------------------------------------------------------------------
 Center     Atomic      Atomic             Coordinates (Angstroms)
 Number     Number       Type             X           Y           Z
 ---------------------------------------------------------------------
      1          6           0        4.283716   -2.150588   -0.135627
      2          6           0        3.251146   -1.052363   -0.064634
      3          6           0        1.982719   -1.296094    0.481704
      4          6           0        1.003476   -0.311146    0.566859
      5          6           0        1.302070    0.972520    0.068091
      6          6           0        2.555764    1.246156   -0.473201
      7          6           0        3.517096    0.232802   -0.534446
      8          8           0        0.290084    1.906488    0.157468
      9          6           0        0.579250    3.255139   -0.197148
     10          6           0       -0.356695   -0.601138    1.148526
     11          7           0       -1.342329   -0.855887    0.082857
     12          6           0       -2.739396   -0.565677    0.439208
     13          6           0       -3.029651    0.939980    0.595841
     14          8           0       -2.519506    1.698766   -0.492664
     15          6           0       -3.610428   -1.217148   -0.642179
     16          8           0       -3.255916   -2.574373   -0.819248
     17          1           0        4.512081   -2.551207    0.859553
     18          1           0        3.932808   -2.990442   -0.747683
     19          1           0        5.219524   -1.788564   -0.572262
     20          1           0        1.746541   -2.288513    0.859620
     21          1           0        2.797671    2.232400   -0.850806
     22          1           0        4.491296    0.458032   -0.960614
     23          1           0        1.386015    3.658476    0.425495
     24          1           0        0.854459    3.339255   -1.255215
     25          1           0       -0.343188    3.809179   -0.017595
     26          1           0       -0.302679   -1.487986    1.790211
     27          1           0       -0.652268    0.242997    1.788613
     28          1           0       -1.108660   -0.294022   -0.734707
     29          1           0       -2.943075   -1.071487    1.392706
     30          1           0       -4.112596    1.105945    0.618934
     31          1           0       -2.625232    1.309289    1.550124
     32          1           0       -1.554373    1.734128   -0.368292
     33          1           0       -4.665787   -1.179429   -0.349005
     34          1           0       -3.504132   -0.640112   -1.576876
     35          1           0       -2.283796   -2.568432   -0.714616
 ---------------------------------------------------------------------

 SCF Done:  E(UB3LYP) =  -749.388967327     A.U. after   33 cycles
 SCF Done:  E(UB3LYP) =  -749.388967327     a.u. after    1 cycles

 The electronic state is 2-A.
 Alpha  occ. eigenvalues --  -19.07578 -19.03046 -19.02651 -14.22334 -10.14666
 Alpha  occ. eigenvalues --  -10.13134 -10.13105 -10.12740 -10.11700 -10.11467
 Alpha  occ. eigenvalues --  -10.09268 -10.08892 -10.08381 -10.08265 -10.08186
 Alpha  occ. eigenvalues --  -10.07755  -0.98669  -0.93741  -0.93149  -0.82874
 Alpha  occ. eigenvalues --   -0.77072  -0.69986  -0.67946  -0.65688  -0.63133
 Alpha  occ. eigenvalues --   -0.59230  -0.58092  -0.57460  -0.51743  -0.51119
 Alpha  occ. eigenvalues --   -0.48708  -0.45107  -0.43542  -0.42067  -0.40574
 Alpha  occ. eigenvalues --   -0.39715  -0.38385  -0.37902  -0.37217  -0.35711
 Alpha  occ. eigenvalues --   -0.35490  -0.34138  -0.33530  -0.33468  -0.32958
 Alpha  occ. eigenvalues --   -0.31782  -0.30894  -0.29711  -0.28990  -0.28367
 Alpha  occ. eigenvalues --   -0.27570  -0.26676  -0.25364  -0.24476  -0.23768
 Alpha  occ. eigenvalues --   -0.23022  -0.20244  -0.18238  -0.16597  -0.15530
 Alpha  occ. eigenvalues --   -0.13518   0.04073
 Alpha virt. eigenvalues --    0.05987   0.06133   0.07108   0.07570   0.07898
 Alpha virt. eigenvalues --    0.08131   0.08302   0.09325   0.09646   0.09879
 Alpha virt. eigenvalues --    0.10193   0.10356   0.11433   0.11744   0.11992

  Beta  occ. eigenvalues --  -19.07568 -19.03041 -19.02650 -14.22331 -10.14668
  Beta  occ. eigenvalues --  -10.13093 -10.13073 -10.12738 -10.11695 -10.11458
  Beta  occ. eigenvalues --  -10.09258 -10.08895 -10.08363 -10.08242 -10.08160
  Beta  occ. eigenvalues --  -10.07727  -0.98647  -0.93734  -0.93144  -0.82864
  Beta  occ. eigenvalues --   -0.77049  -0.69959  -0.67919  -0.65658  -0.63071
  Beta  occ. eigenvalues --   -0.59194  -0.58060  -0.57410  -0.51690  -0.51104
  Beta  occ. eigenvalues --   -0.48669  -0.45071  -0.43510  -0.42050  -0.40546
  Beta  occ. eigenvalues --   -0.39695  -0.38358  -0.37867  -0.37189  -0.35672
  Beta  occ. eigenvalues --   -0.35454  -0.34087  -0.33514  -0.33443  -0.32930
  Beta  occ. eigenvalues --   -0.31759  -0.30874  -0.29672  -0.28967  -0.28330
  Beta  occ. eigenvalues --   -0.27529  -0.26643  -0.25344  -0.24463  -0.23738
  Beta  occ. eigenvalues --   -0.22986  -0.20236  -0.18231  -0.16535  -0.15518
  Beta  occ. eigenvalues --   -0.13487
  Beta virt. eigenvalues --    0.06093   0.06534   0.07055   0.07361   0.07802
  Beta virt. eigenvalues --    0.08030   0.08454   0.08687   0.09616   0.10129
  Beta virt. eigenvalues --    0.10255   0.10559   0.10696   0.11505   0.12046

 Mulliken charges and spin densities:
               1          2
     1  C    2.445798  -2.902214
     2  C    0.011637   0.505608
     3  C   -0.803195   1.199370
     4  C    0.583159   0.783528
     5  C   -0.477277  -0.165271
     6  C    0.453180  -0.397907
     7  C    0.250527  -1.616105
     8  O   -0.275717   0.067749
     9  C    1.151949  -1.429853
    10  C   -1.344459   0.179071
    11  N   -0.111288  -0.038259
    12  C   -0.434242   0.393279
    13  C    0.287604  -0.665953
    14  O   -0.281652   0.020803
    15  C   -0.405765  -0.105814
    16  O   -0.270302   0.004116
    17  H   -0.135720   0.289280
    18  H   -0.008785   0.166466
    19  H   -0.242547   0.397961
    20  H    0.006654   0.121525
    21  H   -0.482772   0.682745
    22  H   -0.757612   0.897361
    23  H   -0.542992   0.706186
    24  H   -0.304350   0.474982
    25  H   -0.390004   0.568956
    26  H   -0.138346   0.314317
    27  H    0.088568   0.077739
    28  H    0.265388  -0.051908
    29  H    0.024746   0.143619
    30  H    0.050324   0.108570
    31  H   -0.127179   0.282440
    32  H    0.415490  -0.102537
    33  H    0.117404   0.028065
    34  H    0.113450   0.050275
    35  H    0.268325   0.011810
 Sum of Mulliken charges =  -1.00000   1.00000

 Dipole moment (field-independent basis, Debye):
    X=             -5.5318    Y=             -3.9829    Z=              1.3859  Tot=              6.9559
 Quadrupole moment (field-independent basis, Debye-Ang):
   XX=           -181.0994   YY=           -167.1959   ZZ=           -130.3539
   XY=             -9.3058   XZ=              0.7529   YZ=             -0.3809

 Summary of Natural Population Analysis:

                                       Natural Population
                Natural  -----------------------------------------------
    Atom  No    Charge         Core      Valence    Rydberg      Total
 -----------------------------------------------------------------------
      C    1   -0.28954      0.99964     2.28487    0.00504     3.28954
      C    2   -0.02833      0.99951     2.01833    0.01049     3.02833
      C    3   -0.08360      0.99947     2.07586    0.00827     3.08360
      C    4   -0.04056      0.99947     2.02988    0.01121     3.04056
      C    5    0.15972      0.99932     1.82753    0.01344     2.84028
      C    6   -0.13134      0.99951     2.12226    0.00956     3.13134
      C    7   -0.08646      0.99952     2.07659    0.01036     3.08646
      O    8   -0.29370      0.99986     3.28284    0.01100     4.29370
      C    9   -0.10179      0.99960     2.09293    0.00926     3.10179
      C   10   -0.09441      0.99958     2.08286    0.01196     3.09441
      N   11   -0.35404      0.99973     2.84217    0.01214     3.85404
      C   12   -0.03540      0.99960     2.02308    0.01271     3.03540
      C   13   -0.02147      0.99958     2.00735    0.01454     3.02147
      O   14   -0.38078      0.99990     3.37384    0.00704     4.38078
      C   15   -0.01078      0.99957     1.99894    0.01227     3.01078
      O   16   -0.37699      0.99990     3.37026    0.00683     4.37699
      H   17    0.10302      0.00000     0.39573    0.00125     0.39698
      H   18    0.10215      0.00000     0.39670    0.00115     0.39785
      H   19    0.10383      0.00000     0.39492    0.00125     0.39617
      H   20    0.09893      0.00000     0.40001    0.00106     0.40107
      H   21    0.11089      0.00000     0.38680    0.00230     0.38911
      H   22    0.10245      0.00000     0.39585    0.00170     0.39755
      H   23    0.09275      0.00000     0.40431    0.00294     0.40725
      H   24    0.08773      0.00000     0.41033    0.00195     0.41227
      H   25    0.09761      0.00000     0.40096    0.00143     0.40239
      H   26    0.09524      0.00000     0.40339    0.00137     0.40476
      H   27    0.09361      0.00000     0.40432    0.00207     0.40639
      H   28    0.17821      0.00000     0.31844    0.00335     0.32179
      H   29    0.09533      0.00000     0.40347    0.00120     0.40467
      H   30    0.08623      0.00000     0.41275    0.00102     0.41377
      H   31    0.08247      0.00000     0.41636    0.00117     0.41753
      H   32    0.23880      0.00000     0.25741    0.00378     0.26120
      H   33    0.08344      0.00000     0.41543    0.00113     0.41656
      H   34    0.07933      0.00000     0.41920    0.00147     0.42067
      H   35    0.23745      0.00000     0.25921    0.00334     0.26255
 =======================================================================
   * Total *    0.00000     15.99377    44.80518    0.20105    61.00000

 Normal termination of Gaussian 16 at Thu Dec 10 22:05:07 2020.
