 Gaussian 16, Revision A.03,

 -----------------------------------------------------------
 # opt freq B3LYP/6-31G(d) empiricaldispersion=gd3bj scf=xqc
 -----------------------------------------------------------

 ------------------------------
 CID_91539807_JID_7992_neutraal
 ------------------------------
 Symbolic Z-matrix:
 Charge =  0 Multiplicity = 1

 SCF Done:  E(RB3LYP) =  -882.588512455     A.U. after   14 cycles
 SCF Done:  E(RB3LYP) =  -882.595175652     A.U. after   12 cycles
 SCF Done:  E(RB3LYP) =  -882.594298795     A.U. after   13 cycles
 SCF Done:  E(RB3LYP) =  -882.595303401     A.U. after   13 cycles
 SCF Done:  E(RB3LYP) =  -882.597244330     A.U. after   13 cycles
 SCF Done:  E(RB3LYP) =  -882.596787097     A.U. after   12 cycles
 SCF Done:  E(RB3LYP) =  -882.598444550     A.U. after   13 cycles
 SCF Done:  E(RB3LYP) =  -882.599902999     A.U. after   11 cycles
 SCF Done:  E(RB3LYP) =  -882.601162358     A.U. after   12 cycles
 SCF Done:  E(RB3LYP) =  -882.601566766     A.U. after   11 cycles
 SCF Done:  E(RB3LYP) =  -882.602550906     A.U. after    9 cycles
 SCF Done:  E(RB3LYP) =  -882.602555318     A.U. after   10 cycles
 SCF Done:  E(RB3LYP) =  -882.602557337     A.U. after    8 cycles
 SCF Done:  E(RB3LYP) =  -882.602557634     A.U. after    8 cycles
 SCF Done:  E(RB3LYP) =  -882.602557719     A.U. after    7 cycles
 SCF Done:  E(RB3LYP) =  -882.602557738     A.U. after    6 cycles
 Optimization completed.
    -- Stationary point found.
 Normal termination of Gaussian 16 at Mon Dec 14 14:11:31 2020.

 --------------------------------------------------------------------
 #N Geom=AllCheck Guess=TCheck SCRF=Check GenChk RB3LYP/6-31G(d) Freq
 --------------------------------------------------------------------

 Structure from the checkpoint file:  "JID_7992.chk"
 ------------------------------
 CID_91539807_JID_7992_neutraal
 ------------------------------
 Charge =  0 Multiplicity = 1

 SCF Done:  E(RB3LYP) =  -882.602557738     A.U. after    1 cycles

  Exact polarizability: 125.710  -1.673 145.857   3.242   0.432 127.071
 Approx polarizability: 167.033 -10.756 203.166   9.475  -4.445 180.070

                      1                      2                      3
                      A                      A                      A
 Frequencies --     28.6088                34.9253                46.7424
 Red. masses --      3.0456                 2.7501                 3.4731
 Frc consts  --      0.0015                 0.0020                 0.0045
 IR Inten    --      0.1223                 0.4816                 0.1059

                      4                      5                      6
                      A                      A                      A
 Frequencies --     53.9428                57.0265                66.6877
 Red. masses --      2.9053                 4.5257                 2.8181
 Frc consts  --      0.0050                 0.0087                 0.0074
 IR Inten    --      0.3936                 1.3071                 0.0931

                      7                      8                      9
                      A                      A                      A
 Frequencies --     93.7765               105.8947               115.3060
 Red. masses --      2.4761                 2.7532                 2.6386
 Frc consts  --      0.0128                 0.0182                 0.0207
 IR Inten    --      2.4708                 0.5964                 1.8137

                     10                     11                     12
                      A                      A                      A
 Frequencies --    129.8593               148.5878               158.6378
 Red. masses --      4.5472                 3.1851                 3.3380
 Frc consts  --      0.0452                 0.0414                 0.0495
 IR Inten    --      0.5062                 4.3979                 0.2152

                     13                     14                     15
                      A                      A                      A
 Frequencies --    188.7223               202.2963               206.1454
 Red. masses --      1.8692                 2.0461                 2.0839
 Frc consts  --      0.0392                 0.0493                 0.0522
 IR Inten    --      0.9209                 2.7546                 1.4916

                     16                     17                     18
                      A                      A                      A
 Frequencies --    227.9749               245.3450               251.1025
 Red. masses --      1.6367                 1.8525                 1.8150
 Frc consts  --      0.0501                 0.0657                 0.0674
 IR Inten    --      0.2298                 4.8632                 1.8234

                     19                     20                     21
                      A                      A                      A
 Frequencies --    265.1325               288.4892               321.4954
 Red. masses --      1.5934                 5.9138                 3.3035
 Frc consts  --      0.0660                 0.2900                 0.2012
 IR Inten    --      0.3488                 8.5559                 2.6618

                     22                     23                     24
                      A                      A                      A
 Frequencies --    335.0137               345.6723               372.7362
 Red. masses --      3.0123                 3.4090                 5.9704
 Frc consts  --      0.1992                 0.2400                 0.4887
 IR Inten    --     12.9599                14.0176                 2.1429

                     25                     26                     27
                      A                      A                      A
 Frequencies --    388.2218               450.6893               460.4171
 Red. masses --      4.3191                 3.6338                 3.8184
 Frc consts  --      0.3835                 0.4349                 0.4769
 IR Inten    --      6.2276                 5.6220                23.8145

                     28                     29                     30
                      A                      A                      A
 Frequencies --    515.0810               595.5554               695.3906
 Red. masses --      4.3273                 4.1669                 6.8025
 Frc consts  --      0.6764                 0.8708                 1.9381
 IR Inten    --      2.0534                18.9561                 4.9001

                     31                     32                     33
                      A                      A                      A
 Frequencies --    750.2506               778.7385               793.3563
 Red. masses --      4.1253                 2.6866                 1.4833
 Frc consts  --      1.3681                 0.9599                 0.5501
 IR Inten    --      1.3968                15.3846                 6.4950

                     34                     35                     36
                      A                      A                      A
 Frequencies --    806.7764               831.8807               836.4715
 Red. masses --      3.3422                 1.1811                 1.7143
 Frc consts  --      1.2817                 0.4816                 0.7067
 IR Inten    --     11.5794                 1.7261                14.0803

                     37                     38                     39
                      A                      A                      A
 Frequencies --    860.7847               876.9419               893.0940
 Red. masses --      2.5610                 2.6842                 2.8114
 Frc consts  --      1.1180                 1.2162                 1.3212
 IR Inten    --      5.1352                 8.2549                 5.1093

                     40                     41                     42
                      A                      A                      A
 Frequencies --    911.5190               942.0466               966.6842
 Red. masses --      3.1598                 4.9911                 3.0146
 Frc consts  --      1.5468                 2.6097                 1.6598
 IR Inten    --     16.3902                16.7109                 0.8175

                     43                     44                     45
                      A                      A                      A
 Frequencies --   1018.5758              1034.3423              1053.4254
 Red. masses --      3.3913                 2.7554                 3.4877
 Frc consts  --      2.0730                 1.7369                 2.2803
 IR Inten    --      2.7759                 3.6962                22.5334

                     46                     47                     48
                      A                      A                      A
 Frequencies --   1069.3256              1131.5462              1133.8652
 Red. masses --      4.5057                 1.9576                 2.0151
 Frc consts  --      3.0355                 1.4768                 1.5264
 IR Inten    --     99.9419                15.9304                49.4092

                     49                     50                     51
                      A                      A                      A
 Frequencies --   1136.1624              1140.2917              1162.4541
 Red. masses --      4.6308                 2.4016                 4.2654
 Frc consts  --      3.5220                 1.8399                 3.3960
 IR Inten    --    202.2042                67.7572                94.4335

                     52                     53                     54
                      A                      A                      A
 Frequencies --   1194.4901              1197.7539              1202.3051
 Red. masses --      1.3337                 2.0760                 1.7305
 Frc consts  --      1.1212                 1.7547                 1.4738
 IR Inten    --     12.9587                73.4770                18.9450

                     55                     56                     57
                      A                      A                      A
 Frequencies --   1211.5166              1212.8439              1237.6841
 Red. masses --      1.8300                 1.8635                 1.4620
 Frc consts  --      1.5826                 1.6151                 1.3195
 IR Inten    --      5.8165                44.0657                 7.7374

                     58                     59                     60
                      A                      A                      A
 Frequencies --   1268.7871              1300.3478              1324.4814
 Red. masses --      2.1446                 2.3406                 1.1555
 Frc consts  --      2.0341                 2.3318                 1.1943
 IR Inten    --    242.7484               191.7158                13.8120

                     61                     62                     63
                      A                      A                      A
 Frequencies --   1339.9294              1342.5652              1375.4783
 Red. masses --      1.1265                 1.1454                 1.4010
 Frc consts  --      1.1916                 1.2165                 1.5617
 IR Inten    --     11.2579                24.1998                11.4636

                     64                     65                     66
                      A                      A                      A
 Frequencies --   1400.4684              1414.0845              1419.6204
 Red. masses --      1.2376                 1.2302                 1.2854
 Frc consts  --      1.4301                 1.4493                 1.5262
 IR Inten    --     10.0324                 2.9954                 2.9118

                     67                     68                     69
                      A                      A                      A
 Frequencies --   1424.8693              1433.0748              1444.1652
 Red. masses --      1.2434                 1.3313                 1.3376
 Frc consts  --      1.4874                 1.6108                 1.6437
 IR Inten    --      6.5963                17.6942                 3.8763

                     70                     71                     72
                      A                      A                      A
 Frequencies --   1445.0985              1455.2046              1506.0200
 Red. masses --      1.3503                 1.3675                 1.1270
 Frc consts  --      1.6614                 1.7061                 1.5061
 IR Inten    --     15.2350                22.5720                 1.7220

                     73                     74                     75
                      A                      A                      A
 Frequencies --   1513.6004              1515.0044              1515.5913
 Red. masses --      1.0409                 1.0527                 1.0467
 Frc consts  --      1.4051                 1.4235                 1.4166
 IR Inten    --      4.1247                 8.1496                 4.0209

                     76                     77                     78
                      A                      A                      A
 Frequencies --   1518.6659              1520.4216              1522.8047
 Red. masses --      1.0710                 1.0847                 1.0591
 Frc consts  --      1.4554                 1.4773                 1.4471
 IR Inten    --      3.8866                 0.8268                 5.4504

                     79                     80                     81
                      A                      A                      A
 Frequencies --   1531.2712              1533.4026              1538.4185
 Red. masses --      1.0499                 1.0591                 1.0582
 Frc consts  --      1.4505                 1.4672                 1.4755
 IR Inten    --      2.2979                 9.7258                 5.9251

                     82                     83                     84
                      A                      A                      A
 Frequencies --   1549.6998              1565.4841              1809.7420
 Red. masses --      1.0534                 1.0853                10.7210
 Frc consts  --      1.4905                 1.5670                20.6881
 IR Inten    --     16.3135                 4.3156                79.3665

                     85                     86                     87
                      A                      A                      A
 Frequencies --   1816.7307              3057.8763              3062.3471
 Red. masses --     10.8747                 1.0351                 1.0366
 Frc consts  --     21.1471                 5.7028                 5.7276
 IR Inten    --    296.0832                24.0062                19.6119

                     88                     89                     90
                      A                      A                      A
 Frequencies --   3062.6853              3064.1805              3065.4733
 Red. masses --      1.0295                 1.0458                 1.0467
 Frc consts  --      5.6894                 5.7852                 5.7950
 IR Inten    --     37.1633                 2.9237                28.3757

                     91                     92                     93
                      A                      A                      A
 Frequencies --   3098.8020              3101.7395              3103.4271
 Red. masses --      1.0598                 1.0593                 1.1067
 Frc consts  --      5.9959                 6.0048                 6.2799
 IR Inten    --     22.2141                25.3066                 9.2791

                     94                     95                     96
                      A                      A                      A
 Frequencies --   3119.2823              3122.0397              3127.2716
 Red. masses --      1.0858                 1.0864                 1.1019
 Frc consts  --      6.2248                 6.2392                 6.3490
 IR Inten    --     10.8407                 5.9217                22.0708

                     97                     98                     99
                      A                      A                      A
 Frequencies --   3128.5843              3130.6222              3138.2282
 Red. masses --      1.1016                 1.1013                 1.1064
 Frc consts  --      6.3530                 6.3596                 6.4201
 IR Inten    --     31.7700                24.4417                16.4476

                    100                    101                    102
                      A                      A                      A
 Frequencies --   3138.6775              3146.3079              3147.2523
 Red. masses --      1.1047                 1.1029                 1.1036
 Frc consts  --      6.4121                 6.4327                 6.4405
 IR Inten    --     37.8712                 5.0598                 7.6347

                    103                    104                    105
                      A                      A                      A
 Frequencies --   3153.0813              3164.5181              3166.1173
 Red. masses --      1.1066                 1.1075                 1.1076
 Frc consts  --      6.4821                 6.5342                 6.5418
 IR Inten    --     26.4911                24.9782                22.6658

 - Thermochemistry -
 -------------------
 Temperature   298.150 Kelvin.  Pressure   1.00000 Atm.
 Atom     1 has atomic number  6 and mass  12.00000

 Molecular mass:   248.12599 amu.
 Principal axes and moments of inertia in atomic units:
                           1         2         3
     Eigenvalues --  4131.985774602.794074872.01396
           X            0.99953   0.02028   0.02298
           Y           -0.01935   0.99901  -0.03993
           Z           -0.02377   0.03947   0.99894
 This molecule is an asymmetric top.
 Rotational symmetry number  1.
 Warning -- assumption of classical behavior for rotation
           may cause significant error
 Rotational temperatures (Kelvin)      0.02096     0.01882     0.01778
 Rotational constants (GHZ):           0.43677     0.39210     0.37043
 Zero-point vibrational energy     827960.3 (Joules/Mol)
                                  197.88726 (Kcal/Mol)
 Warning -- explicit consideration of  29 degrees of freedom as
           vibrations may cause significant error
 Vibrational temperatures:     41.16    50.25    67.25    77.61    82.05
          (Kelvin)             95.95   134.92   152.36   165.90   186.84
                              213.78   228.24   271.53   291.06   296.60
                              328.01   353.00   361.28   381.47   415.07
                              462.56   482.01   497.35   536.28   558.56
                              648.44   662.44   741.09   856.87  1000.51
                             1079.44  1120.43  1141.46  1160.77  1196.89
                             1203.50  1238.48  1261.72  1284.96  1311.47
                             1355.39  1390.84  1465.50  1488.19  1515.64
                             1538.52  1628.04  1631.38  1634.68  1640.63
                             1672.51  1718.60  1723.30  1729.85  1743.10
                             1745.01  1780.75  1825.50  1870.91  1905.63
                             1927.86  1931.65  1979.01  2014.96  2034.55
                             2042.52  2050.07  2061.88  2077.83  2079.17
                             2093.71  2166.83  2177.73  2179.75  2180.60
                             2185.02  2187.55  2190.98  2203.16  2206.22
                             2213.44  2229.67  2252.38  2603.82  2613.87
                             4399.60  4406.03  4406.52  4408.67  4410.53
                             4458.48  4462.71  4465.14  4487.95  4491.92
                             4499.45  4501.34  4504.27  4515.21  4515.86
                             4526.84  4528.19  4536.58  4553.04  4555.34

 Zero-point correction=                           0.315353 (Hartree/Particle)
 Thermal correction to Energy=                    0.335527
 Thermal correction to Enthalpy=                  0.336471
 Thermal correction to Gibbs Free Energy=         0.264978
 Sum of electronic and zero-point Energies=           -882.287204
 Sum of electronic and thermal Energies=              -882.267031
 Sum of electronic and thermal Enthalpies=            -882.266087
 Sum of electronic and thermal Free Energies=         -882.337580

                     E (Thermal)             CV                S
                      KCal/Mol        Cal/Mol-Kelvin    Cal/Mol-Kelvin
 Total                  210.546             70.378            150.469
 Electronic               0.000              0.000              0.000
 Translational            0.889              2.981             42.427
 Rotational               0.889              2.981             32.894
 Vibrational            208.769             64.416             75.149
 Vibration     1          0.593              1.984              5.924
 Vibration     2          0.594              1.983              5.528
 Vibration     3          0.595              1.979              4.951
 Vibration     4          0.596              1.976              4.667
 Vibration     5          0.596              1.975              4.558
 Vibration     6          0.598              1.970              4.249
 Vibration     7          0.603              1.954              3.580
 Vibration     8          0.605              1.945              3.343
 Vibration     9          0.608              1.937              3.178
 Vibration    10          0.612              1.923              2.948
 Vibration    11          0.618              1.904              2.690
 Vibration    12          0.621              1.893              2.566
 Vibration    13          0.633              1.855              2.240
 Vibration    14          0.639              1.837              2.112
 Vibration    15          0.641              1.831              2.078
 Vibration    16          0.651              1.798              1.895
 Vibration    17          0.660              1.770              1.764
 Vibration    18          0.663              1.761              1.723
 Vibration    19          0.671              1.737              1.628
 Vibration    20          0.685              1.695              1.483
 Vibration    21          0.707              1.632              1.302
 Vibration    22          0.716              1.606              1.236
 Vibration    23          0.724              1.584              1.186
 Vibration    24          0.744              1.528              1.069
 Vibration    25          0.756              1.495              1.007
 Vibration    26          0.809              1.359              0.794
 Vibration    27          0.818              1.338              0.765
 Vibration    28          0.870              1.217              0.621
 Vibration    29          0.953              1.041              0.457

 Optimization completed.
    -- Stationary point found.
 Normal termination of Gaussian 16 at Mon Dec 14 14:26:30 2020.

 ----------------------------------------------------------------------
 # B3LYP/6-311++G(d,p) empiricaldispersion=gd3bj scf=xqc pop=npa geom=c
 heck
 ----------------------------------------------------------------------

 --------------------------------------
 CID_91539807_JID_7992_Energie_neutraal
 --------------------------------------
 Structure from the checkpoint file:  "JID_7992.chk"
 Charge =  0 Multiplicity = 1

 SCF Done:  E(RB3LYP) =  -882.864701038     A.U. after   15 cycles
 Normal termination of Gaussian 16 at Mon Dec 14 14:33:52 2020.

 ----------------------------------------------------------------------
 # B3LYP/6-311++G(d,p) empiricaldispersion=gd3bj scf=xqc pop=npa geom=c
 heck
 ----------------------------------------------------------------------

 ------------------------------------
 CID_91539807_JID_7992_Energie_kation
 ------------------------------------
 Structure from the checkpoint file:  "JID_7992.chk"
 Charge =  1 Multiplicity = 2

 SCF Done:  E(UB3LYP) =  -882.544224311     A.U. after   24 cycles
 Normal termination of Gaussian 16 at Mon Dec 14 14:49:54 2020.
 Gaussian 16:  ES64L-G16RevA.03 25-Dec-2016

 ----------------------------------------------------------------------
 # B3LYP/6-311++G(d,p) empiricaldispersion=gd3bj scf=xqc pop=npa geom=c
 heck
 ----------------------------------------------------------------------

 -----------------------------------
 CID_91539807_JID_7992_Energie_anion
 -----------------------------------
 Structure from the checkpoint file:  "JID_7992.chk"
 Charge = -1 Multiplicity = 2

                         Standard orientation:
 ---------------------------------------------------------------------
 Center     Atomic      Atomic             Coordinates (Angstroms)
 Number     Number       Type             X           Y           Z
 ---------------------------------------------------------------------
      1          6           0       -0.308266   -2.260689    3.185999
      2          6           0       -0.321572   -1.508335    1.866757
      3          8           0       -0.609465   -0.138697    2.175379
      4          6           0       -0.331464    0.873936    1.229099
      5          6           0        1.179493    0.928087    0.810004
      6          6           0        1.474849    0.246578   -0.527210
      7          8           0        1.106824    0.662377   -1.606566
      8          8           0        2.212306   -0.868126   -0.357441
      9          6           0        2.485870   -1.643827   -1.551202
     10          6           0        1.312441   -2.551813   -1.881315
     11          8           0        1.711948    2.237819    0.834393
     12          6           0        1.167078    3.210629   -0.062482
     13          6           0       -1.309038    0.897285    0.047424
     14          8           0       -1.860881    1.901508   -0.346928
     15          8           0       -1.472597   -0.321327   -0.499525
     16          6           0       -2.300529   -0.384134   -1.687977
     17          6           0       -3.775534   -0.449113   -1.330779
     18          1           0        0.479807   -1.878424    3.842556
     19          1           0       -0.132382   -3.328102    3.011747
     20          1           0       -1.267728   -2.146826    3.700688
     21          1           0        0.647896   -1.597987    1.363877
     22          1           0       -1.084560   -1.909993    1.192163
     23          1           0       -0.506897    1.804994    1.772639
     24          1           0        1.721703    0.402268    1.598493
     25          1           0        2.703375   -0.956408   -2.371400
     26          1           0        3.383854   -2.212904   -1.302584
     27          1           0        0.424025   -1.956935   -2.107420
     28          1           0        1.551457   -3.167661   -2.755343
     29          1           0        1.086643   -3.216120   -1.041143
     30          1           0        1.406675    2.979201   -1.104032
     31          1           0        0.080587    3.298440    0.039096
     32          1           0        1.637658    4.153673    0.224818
     33          1           0       -2.070992    0.483059   -2.310403
     34          1           0       -1.967005   -1.292673   -2.194349
     35          1           0       -4.089528    0.472490   -0.834734
     36          1           0       -4.372479   -0.573477   -2.241337
     37          1           0       -3.977153   -1.296672   -0.667729
 ---------------------------------------------------------------------

 SCF Done:  E(UB3LYP) =  -882.854087858     A.U. after   31 cycles

 The electronic state is 2-A.
 Alpha  occ. eigenvalues --  -19.07325 -19.07284 -19.04566 -19.03990 -19.01916
 Alpha  occ. eigenvalues --  -19.01564 -10.20579 -10.20104 -10.15151 -10.15100
 Alpha  occ. eigenvalues --  -10.13156 -10.12866 -10.11774 -10.11759 -10.07188
 Alpha  occ. eigenvalues --  -10.06868 -10.06128  -1.01755  -1.01205  -0.95693
 Alpha  occ. eigenvalues --   -0.94643  -0.92930  -0.92506  -0.70797  -0.68240
 Alpha  occ. eigenvalues --   -0.67366  -0.65265  -0.61178  -0.58074  -0.56467
 Alpha  occ. eigenvalues --   -0.53704  -0.51202  -0.47455  -0.45923  -0.44207
 Alpha  occ. eigenvalues --   -0.42948  -0.41892  -0.40412  -0.39667  -0.38304
 Alpha  occ. eigenvalues --   -0.37261  -0.36604  -0.36487  -0.35912  -0.35348
 Alpha  occ. eigenvalues --   -0.34891  -0.33274  -0.31869  -0.30771  -0.30047
 Alpha  occ. eigenvalues --   -0.29846  -0.29348  -0.29037  -0.28467  -0.28166
 Alpha  occ. eigenvalues --   -0.27837  -0.26859  -0.25218  -0.24781  -0.24445
 Alpha  occ. eigenvalues --   -0.22655  -0.21723  -0.20995  -0.20736  -0.20116
 Alpha  occ. eigenvalues --   -0.17352  -0.15700   0.04318
 Alpha virt. eigenvalues --    0.06617   0.06914   0.07308   0.07616   0.08587
 Alpha virt. eigenvalues --    0.09074   0.09335   0.09434   0.09995   0.10241
 Alpha virt. eigenvalues --    0.10871   0.11239   0.11603   0.12201   0.12789

  Beta  occ. eigenvalues --  -19.07331 -19.07273 -19.04541 -19.03965 -19.01870
  Beta  occ. eigenvalues --  -19.01505 -10.20523 -10.19997 -10.15151 -10.15100
  Beta  occ. eigenvalues --  -10.13134 -10.12847 -10.11773 -10.11749 -10.07160
  Beta  occ. eigenvalues --  -10.06849 -10.06077  -1.01696  -1.01127  -0.95646
  Beta  occ. eigenvalues --   -0.94591  -0.92873  -0.92421  -0.70737  -0.68171
  Beta  occ. eigenvalues --   -0.67329  -0.65225  -0.61125  -0.57974  -0.56401
  Beta  occ. eigenvalues --   -0.53640  -0.51139  -0.47373  -0.45857  -0.44171
  Beta  occ. eigenvalues --   -0.42902  -0.41780  -0.40366  -0.39602  -0.38220
  Beta  occ. eigenvalues --   -0.37215  -0.36525  -0.36415  -0.35801  -0.35314
  Beta  occ. eigenvalues --   -0.34840  -0.33241  -0.31804  -0.30679  -0.30000
  Beta  occ. eigenvalues --   -0.29784  -0.29236  -0.28946  -0.28414  -0.28060
  Beta  occ. eigenvalues --   -0.27800  -0.26815  -0.25186  -0.24740  -0.24414
  Beta  occ. eigenvalues --   -0.22587  -0.21620  -0.20897  -0.20661  -0.20079
  Beta  occ. eigenvalues --   -0.17293  -0.15648
  Beta virt. eigenvalues --    0.06646   0.07357   0.07507   0.07637   0.08160
  Beta virt. eigenvalues --    0.09081   0.09612   0.09698   0.09903   0.10094
  Beta virt. eigenvalues --    0.10474   0.11070   0.11506   0.11815   0.12306

 Mulliken charges and spin densities:
               1          2
     1  C    0.331146  -0.940384
     2  C   -0.552660   0.463034
     3  O   -0.022023   0.003123
     4  C    0.102070  -0.083821
     5  C   -0.098219  -0.247211
     6  C   -0.580797   0.151106
     7  O   -0.176796   0.012520
     8  O    0.060197   0.008339
     9  C    0.161008  -0.259458
    10  C    0.678093  -1.151608
    11  O   -0.005425  -0.007698
    12  C   -0.197055  -0.014561
    13  C   -0.460568   0.001664
    14  O   -0.185056   0.014247
    15  O    0.078655   0.009024
    16  C   -0.082223   0.017987
    17  C    0.481122  -0.934813
    18  H    0.030879   0.108992
    19  H   -0.142732   0.290502
    20  H    0.004697   0.139862
    21  H    0.378639  -0.206726
    22  H    0.128005   0.037698
    23  H    0.259657   0.007864
    24  H    0.147840   0.151190
    25  H    0.127424   0.027265
    26  H   -0.474885   0.666507
    27  H    0.203358  -0.033341
    28  H   -0.814497   0.982267
    29  H   -0.186481   0.341649
    30  H    0.142897   0.009306
    31  H    0.142203   0.006932
    32  H    0.129637   0.021442
    33  H    0.160538   0.028670
    34  H   -0.422315   0.577185
    35  H    0.038558   0.127070
    36  H   -0.252839   0.396818
    37  H   -0.132051   0.277357
 Sum of Mulliken charges =  -1.00000   1.00000

 Dipole moment (field-independent basis, Debye):
    X=              0.2101    Y=              6.8522    Z=              3.5124  Tot=              7.7028
 Quadrupole moment (field-independent basis, Debye-Ang):
   XX=           -155.5174   YY=           -160.6873   ZZ=           -151.0883
   XY=              7.5697   XZ=             -1.2343   YZ=            -11.0477

 Summary of Natural Population Analysis:

                                       Natural Population
                Natural  -----------------------------------------------
    Atom  No    Charge         Core      Valence    Rydberg      Total
 -----------------------------------------------------------------------
      C    1   -0.29147      0.99966     2.28617    0.00564     3.29147
      C    2   -0.01963      0.99957     2.00806    0.01200     3.01963
      O    3   -0.29842      0.99988     3.28916    0.00938     4.29842
      C    4    0.02265      0.99948     1.96304    0.01484     2.97735
      C    5    0.02054      0.99949     1.96475    0.01521     2.97946
      C    6    0.40934      0.99967     1.56345    0.02754     2.59066
      O    7   -0.30573      0.99987     3.30047    0.00539     4.30573
      O    8   -0.27917      0.99986     3.27017    0.00914     4.27917
      C    9   -0.01604      0.99957     2.00443    0.01204     3.01604
      C   10   -0.29860      0.99966     2.29329    0.00565     3.29860
      O   11   -0.29226      0.99989     3.28341    0.00897     4.29226
      C   12   -0.10799      0.99959     2.10014    0.00826     3.10799
      C   13    0.40760      0.99967     1.56520    0.02753     2.59240
      O   14   -0.30452      0.99987     3.29957    0.00508     4.30452
      O   15   -0.28402      0.99986     3.27365    0.01051     4.28402
      C   16   -0.01600      0.99957     2.00442    0.01201     3.01600
      C   17   -0.29931      0.99966     2.29483    0.00482     3.29931
      H   18    0.09682      0.00000     0.40215    0.00103     0.40318
      H   19    0.10210      0.00000     0.39707    0.00083     0.39790
      H   20    0.09851      0.00000     0.40042    0.00107     0.40149
      H   21    0.08697      0.00000     0.41052    0.00251     0.41303
      H   22    0.08903      0.00000     0.40891    0.00206     0.41097
      H   23    0.10654      0.00000     0.39217    0.00129     0.39346
      H   24    0.10890      0.00000     0.38913    0.00197     0.39110
      H   25    0.09379      0.00000     0.40495    0.00126     0.40621
      H   26    0.09217      0.00000     0.40623    0.00160     0.40783
      H   27    0.10415      0.00000     0.39392    0.00193     0.39585
      H   28    0.10557      0.00000     0.39175    0.00267     0.39443
      H   29    0.10242      0.00000     0.39548    0.00210     0.39758
      H   30    0.09188      0.00000     0.40695    0.00117     0.40812
      H   31    0.09074      0.00000     0.40801    0.00125     0.40926
      H   32    0.08404      0.00000     0.41513    0.00083     0.41596
      H   33    0.09643      0.00000     0.40238    0.00119     0.40357
      H   34    0.09411      0.00000     0.40410    0.00179     0.40589
      H   35    0.10465      0.00000     0.39444    0.00091     0.39535
      H   36    0.10271      0.00000     0.39621    0.00108     0.39729
      H   37    0.10152      0.00000     0.39737    0.00111     0.39848
 =======================================================================
   * Total *   -0.00000     16.99482    49.78151    0.22367    67.00000

 Normal termination of Gaussian 16 at Mon Dec 14 15:09:35 2020.
