 Gaussian 16, Revision A.03,

 -----------------------------------------------------------
 # opt freq B3LYP/6-31G(d) empiricaldispersion=gd3bj scf=xqc
 -----------------------------------------------------------

 ------------------------------
 CID_62198397_JID_8699_neutraal
 ------------------------------
 Symbolic Z-matrix:
 Charge =  0 Multiplicity = 1

 SCF Done:  E(RB3LYP) =  -780.847521296     A.U. after   16 cycles
 SCF Done:  E(RB3LYP) =  -780.852864793     A.U. after   13 cycles
 SCF Done:  E(RB3LYP) =  -780.855347492     A.U. after   13 cycles
 SCF Done:  E(RB3LYP) =  -780.856595323     A.U. after   13 cycles
 SCF Done:  E(RB3LYP) =  -780.856849567     A.U. after   12 cycles
 SCF Done:  E(RB3LYP) =  -780.857028369     A.U. after   11 cycles
 SCF Done:  E(RB3LYP) =  -780.857050265     A.U. after   10 cycles
 SCF Done:  E(RB3LYP) =  -780.857056935     A.U. after    9 cycles
 SCF Done:  E(RB3LYP) =  -780.857058975     A.U. after    9 cycles
 SCF Done:  E(RB3LYP) =  -780.857059397     A.U. after    8 cycles
 SCF Done:  E(RB3LYP) =  -780.857059523     A.U. after    8 cycles
 Optimization completed.
    -- Stationary point found.
 Normal termination of Gaussian 16 at Fri Dec 11 21:35:45 2020.

 --------------------------------------------------------------------
 #N Geom=AllCheck Guess=TCheck SCRF=Check GenChk RB3LYP/6-31G(d) Freq
 --------------------------------------------------------------------

 Structure from the checkpoint file:  "JID_8699.chk"
 ------------------------------
 CID_62198397_JID_8699_neutraal
 ------------------------------
 Charge =  0 Multiplicity = 1

 SCF Done:  E(RB3LYP) =  -780.857059523     A.U. after    1 cycles

  Exact polarizability: 314.261  -4.091 160.292  -0.078  -8.332  80.329
 Approx polarizability: 449.019  -3.161 274.386  -2.309 -22.822 128.605

                      1                      2                      3
                      A                      A                      A
 Frequencies --     36.3363                52.6493                58.9619
 Red. masses --      5.8821                 4.0144                 4.8453
 Frc consts  --      0.0046                 0.0066                 0.0099
 IR Inten    --      0.2857                 1.3004                 1.4982

                      4                      5                      6
                      A                      A                      A
 Frequencies --    104.5267               122.0401               143.6529
 Red. masses --      4.4373                 4.7630                 6.4324
 Frc consts  --      0.0286                 0.0418                 0.0782
 IR Inten    --      5.5356                 0.7323                 2.9916

                      7                      8                      9
                      A                      A                      A
 Frequencies --    145.8655               201.7204               218.2434
 Red. masses --      4.3186                 3.0105                 4.1098
 Frc consts  --      0.0541                 0.0722                 0.1153
 IR Inten    --      1.3058                 5.5496                 0.6053

                     10                     11                     12
                      A                      A                      A
 Frequencies --    223.6514               255.8775               267.3457
 Red. masses --      1.0516                 2.3176                 1.9150
 Frc consts  --      0.0310                 0.0894                 0.0806
 IR Inten    --      0.7009                 3.9721                 0.7460

                     13                     14                     15
                      A                      A                      A
 Frequencies --    316.6734               330.1771               339.7890
 Red. masses --      3.7605                 3.3051                 4.7134
 Frc consts  --      0.2222                 0.2123                 0.3206
 IR Inten    --      3.9428                 2.6293                 4.7054

                     16                     17                     18
                      A                      A                      A
 Frequencies --    367.1092               395.3732               429.1737
 Red. masses --      4.1957                 1.3065                 3.1817
 Frc consts  --      0.3332                 0.1203                 0.3453
 IR Inten    --      4.2325               286.3193                 0.9267

                     19                     20                     21
                      A                      A                      A
 Frequencies --    451.4087               458.2009               469.3913
 Red. masses --      3.5796                 2.1458                 1.9323
 Frc consts  --      0.4298                 0.2654                 0.2508
 IR Inten    --      4.6681                 7.3704                32.4288

                     22                     23                     24
                      A                      A                      A
 Frequencies --    479.3428               506.6729               533.8099
 Red. masses --      4.4601                 4.5719                 3.9039
 Frc consts  --      0.6038                 0.6915                 0.6554
 IR Inten    --      7.6669                 2.5371                 8.0282

                     25                     26                     27
                      A                      A                      A
 Frequencies --    546.3018               562.8146               625.6946
 Red. masses --      3.7820                 4.5932                 4.6881
 Frc consts  --      0.6650                 0.8572                 1.0814
 IR Inten    --      4.6958                 4.6183                 7.8959

                     28                     29                     30
                      A                      A                      A
 Frequencies --    647.0952               654.4397               705.7165
 Red. masses --      6.0508                 5.5613                 5.5851
 Frc consts  --      1.4928                 1.4033                 1.6389
 IR Inten    --      8.8623                 8.9964                 0.5036

                     31                     32                     33
                      A                      A                      A
 Frequencies --    721.6219               746.9034               781.7640
 Red. masses --      7.9035                 5.6898                 6.6075
 Frc consts  --      2.4249                 1.8702                 2.3792
 IR Inten    --      2.3689                 1.7090                22.1261

                     34                     35                     36
                      A                      A                      A
 Frequencies --    821.0356               824.2958               844.5574
 Red. masses --      5.4965                 1.3115                 2.8978
 Frc consts  --      2.1831                 0.5250                 1.2178
 IR Inten    --      2.5726                10.1137                17.1860

                     37                     38                     39
                      A                      A                      A
 Frequencies --    860.3766               936.5048               951.8063
 Red. masses --      2.0709                 1.3335                 1.3036
 Frc consts  --      0.9032                 0.6891                 0.6958
 IR Inten    --     21.8224                 7.1715                 2.6346

                     40                     41                     42
                      A                      A                      A
 Frequencies --    974.2352              1008.6070              1036.0715
 Red. masses --      1.3048                 5.3495                 1.5818
 Frc consts  --      0.7297                 3.2063                 1.0004
 IR Inten    --      1.6869                18.7083                18.5829

                     43                     44                     45
                      A                      A                      A
 Frequencies --   1040.2206              1077.6673              1081.9348
 Red. masses --      2.6084                 1.4696                 5.4889
 Frc consts  --      1.6629                 1.0056                 3.7856
 IR Inten    --      1.2558                 6.8491                60.1453

                     46                     47                     48
                      A                      A                      A
 Frequencies --   1111.2059              1149.5989              1181.9776
 Red. masses --      1.6766                 1.3313                 3.2258
 Frc consts  --      1.2198                 1.0366                 2.6552
 IR Inten    --     11.9565                 8.3307                 8.7006

                     49                     50                     51
                      A                      A                      A
 Frequencies --   1186.2277              1214.6713              1220.1609
 Red. masses --      1.2714                 1.2041                 1.3629
 Frc consts  --      1.0541                 1.0467                 1.1955
 IR Inten    --      0.7392                80.7335                24.3850

                     52                     53                     54
                      A                      A                      A
 Frequencies --   1252.9928              1290.5528              1306.6098
 Red. masses --      4.1995                 1.9555                 4.3409
 Frc consts  --      3.8846                 1.9189                 4.3664
 IR Inten    --      5.7599                10.5270               323.1361

                     55                     56                     57
                      A                      A                      A
 Frequencies --   1334.3839              1346.8060              1364.7936
 Red. masses --      3.6836                 1.5042                 7.3108
 Frc consts  --      3.8644                 1.6076                 8.0232
 IR Inten    --     82.8771                30.9260                75.8046

                     58                     59                     60
                      A                      A                      A
 Frequencies --   1370.4740              1446.7520              1460.5758
 Red. masses --      4.9543                 1.3546                 3.0602
 Frc consts  --      5.4825                 1.6706                 3.8464
 IR Inten    --     50.2317                 4.2896                92.6201

                     61                     62                     63
                      A                      A                      A
 Frequencies --   1469.2200              1500.7206              1503.9312
 Red. masses --      3.3986                 1.2108                 3.4908
 Frc consts  --      4.3225                 1.6066                 4.6519
 IR Inten    --     35.0727                12.1781               176.9487

                     64                     65                     66
                      A                      A                      A
 Frequencies --   1519.2539              1521.4440              1531.1716
 Red. masses --      1.0891                 1.0476                 1.1617
 Frc consts  --      1.4811                 1.4288                 1.6047
 IR Inten    --     20.5461                 6.2050                22.3925

                     67                     68                     69
                      A                      A                      A
 Frequencies --   1534.9459              1566.0326              1587.8341
 Red. masses --      1.0682                 2.7558                 4.1252
 Frc consts  --      1.4828                 3.9819                 6.1279
 IR Inten    --     39.4249                78.9234                63.8679

                     70                     71                     72
                      A                      A                      A
 Frequencies --   1628.1445              1652.2718              1671.3628
 Red. masses --      6.4133                 3.1384                 2.5914
 Frc consts  --     10.0166                 5.0481                 4.2651
 IR Inten    --     86.1551               160.2281               346.0269

                     73                     74                     75
                      A                      A                      A
 Frequencies --   1680.7372              2328.9850              3028.7374
 Red. masses --      2.7890                12.6630                 1.0347
 Frc consts  --      4.6419                40.4688                 5.5921
 IR Inten    --    156.3112               120.6246                64.7120

                     76                     77                     78
                      A                      A                      A
 Frequencies --   3044.3606              3088.6691              3101.8654
 Red. masses --      1.0428                 1.1068                 1.0946
 Frc consts  --      5.6941                 6.2208                 6.2052
 IR Inten    --     31.8903                41.0340                21.6742

                     79                     80                     81
                      A                      A                      A
 Frequencies --   3137.2812              3162.9747              3200.7982
 Red. masses --      1.1015                 1.1000                 1.0915
 Frc consts  --      6.3875                 6.4837                 6.5889
 IR Inten    --     12.6504                28.9427                 7.2287

                     82                     83                     84
                      A                      A                      A
 Frequencies --   3211.9776              3219.3976              3230.3507
 Red. masses --      1.0884                 1.0869                 1.0936
 Frc consts  --      6.6161                 6.6370                 6.7236
 IR Inten    --      8.3800                 7.3475                 6.3350

                     85                     86                     87
                      A                      A                      A
 Frequencies --   3235.2330              3587.4355              3705.2873
 Red. masses --      1.0932                 1.0457                 1.1032
 Frc consts  --      6.7415                 7.9291                 8.9240
 IR Inten    --     11.9386                64.6778                35.1363

 - Thermochemistry -
 -------------------
 Temperature   298.150 Kelvin.  Pressure   1.00000 Atm.
 Atom     1 has atomic number  6 and mass  12.00000

 Molecular mass:   239.10586 amu.
 Principal axes and moments of inertia in atomic units:
                           1         2         3
     Eigenvalues --  1409.354939778.37784**********
           X            0.99998  -0.00546   0.00334
           Y            0.00546   0.99999   0.00029
           Z           -0.00334  -0.00027   0.99999
 This molecule is an asymmetric top.
 Rotational symmetry number  1.
 Warning -- assumption of classical behavior for rotation
           may cause significant error
 Rotational temperatures (Kelvin)      0.06146     0.00886     0.00792
 Rotational constants (GHZ):           1.28054     0.18456     0.16509
 Zero-point vibrational energy     647454.0 (Joules/Mol)
                                  154.74523 (Kcal/Mol)
 Warning -- explicit consideration of  26 degrees of freedom as
           vibrations may cause significant error
 Vibrational temperatures:     52.28    75.75    84.83   150.39   175.59
          (Kelvin)            206.68   209.87   290.23   314.00   321.78
                              368.15   384.65   455.62   475.05   488.88
                              528.19   568.85   617.49   649.48   659.25
                              675.35   689.67   728.99   768.03   786.01
                              809.76   900.24   931.03   941.59  1015.37
                             1038.25  1074.63  1124.78  1181.29  1185.98
                             1215.13  1237.89  1347.42  1369.44  1401.71
                             1451.16  1490.68  1496.65  1550.52  1556.66
                             1598.78  1654.02  1700.60  1706.72  1747.64
                             1755.54  1802.78  1856.82  1879.92  1919.88
                             1937.75  1963.63  1971.81  2081.55  2101.44
                             2113.88  2159.20  2163.82  2185.87  2189.02
                             2203.01  2208.44  2253.17  2284.54  2342.54
                             2377.25  2404.72  2418.21  3350.89  4357.68
                             4380.16  4443.91  4462.89  4513.85  4550.82
                             4605.23  4621.32  4632.00  4647.75  4654.78
                             5161.52  5331.08

 Zero-point correction=                           0.246602 (Hartree/Particle)
 Thermal correction to Energy=                    0.262732
 Thermal correction to Enthalpy=                  0.263676
 Thermal correction to Gibbs Free Energy=         0.202920
 Sum of electronic and zero-point Energies=           -780.610457
 Sum of electronic and thermal Energies=              -780.594327
 Sum of electronic and thermal Enthalpies=            -780.593383
 Sum of electronic and thermal Free Energies=         -780.654140

                     E (Thermal)             CV                S
                      KCal/Mol        Cal/Mol-Kelvin    Cal/Mol-Kelvin
 Total                  164.867             62.213            127.873
 Electronic               0.000              0.000              0.000
 Translational            0.889              2.981             42.316
 Rotational               0.889              2.981             33.376
 Vibrational            163.089             56.251             52.180
 Vibration     1          0.594              1.982              5.449
 Vibration     2          0.596              1.977              4.715
 Vibration     3          0.596              1.974              4.492
 Vibration     4          0.605              1.946              3.368
 Vibration     5          0.610              1.931              3.068
 Vibration     6          0.616              1.909              2.755
 Vibration     7          0.617              1.907              2.725
 Vibration     8          0.639              1.837              2.117
 Vibration     9          0.646              1.813              1.974
 Vibration    10          0.649              1.805              1.929
 Vibration    11          0.666              1.753              1.690
 Vibration    12          0.672              1.733              1.613
 Vibration    13          0.704              1.642              1.327
 Vibration    14          0.713              1.615              1.259
 Vibration    15          0.720              1.596              1.213
 Vibration    16          0.740              1.540              1.092
 Vibration    17          0.762              1.480              0.980
 Vibration    18          0.791              1.407              0.861
 Vibration    19          0.810              1.358              0.792
 Vibration    20          0.816              1.343              0.771
 Vibration    21          0.826              1.318              0.739
 Vibration    22          0.836              1.296              0.712
 Vibration    23          0.862              1.235              0.642
 Vibration    24          0.889              1.175              0.579
 Vibration    25          0.901              1.148              0.552
 Vibration    26          0.919              1.112              0.518

                           ! Non-Optimized Parameters !
 Normal termination of Gaussian 16 at Fri Dec 11 21:47:38 2020.

 ----------------------------------------------------------------------
 # B3LYP/6-311++G(d,p) empiricaldispersion=gd3bj scf=xqc pop=npa geom=c
 heck
 ----------------------------------------------------------------------

 --------------------------------------
 CID_62198397_JID_8699_Energie_neutraal
 --------------------------------------
 Structure from the checkpoint file:  "JID_8699.chk"
 Charge =  0 Multiplicity = 1

 SCF Done:  E(RB3LYP) =  -781.067151571     A.U. after   17 cycles
 Normal termination of Gaussian 16 at Fri Dec 11 21:54:07 2020.

 ----------------------------------------------------------------------
 # B3LYP/6-311++G(d,p) empiricaldispersion=gd3bj scf=xqc pop=npa geom=c
 heck
 ----------------------------------------------------------------------

 ------------------------------------
 CID_62198397_JID_8699_Energie_kation
 ------------------------------------
 Structure from the checkpoint file:  "JID_8699.chk"
 Charge =  1 Multiplicity = 2

 SCF Done:  E(UB3LYP) =  -780.789617423     A.U. after   23 cycles
 Normal termination of Gaussian 16 at Fri Dec 11 22:06:53 2020.
 Gaussian 16:  ES64L-G16RevA.03 25-Dec-2016

 ----------------------------------------------------------------------
 # B3LYP/6-311++G(d,p) empiricaldispersion=gd3bj scf=xqc pop=npa geom=c
 heck
 ----------------------------------------------------------------------

 -----------------------------------
 CID_62198397_JID_8699_Energie_anion
 -----------------------------------
 Structure from the checkpoint file:  "JID_8699.chk"
 Charge = -1 Multiplicity = 2

                         Standard orientation:
 ---------------------------------------------------------------------
 Center     Atomic      Atomic             Coordinates (Angstroms)
 Number     Number       Type             X           Y           Z
 ---------------------------------------------------------------------
      1          6           0        0.602493    2.679816    0.498414
      2          6           0        1.306766    1.374450    0.212140
      3          6           0        2.698107    1.353756    0.158167
      4          6           0        3.403942    0.164455   -0.036305
      5          6           0        2.651511   -1.036054   -0.145258
      6          7           0        1.318330   -1.026128   -0.112871
      7          6           0        0.648214    0.130158    0.041570
      8          6           0       -0.826498   -0.020949    0.056227
      9          6           0       -1.391695   -1.169665    0.643371
     10          6           0       -2.761593   -1.363885    0.666701
     11          6           0       -3.617889   -0.419811    0.078445
     12          6           0       -3.076236    0.714883   -0.534362
     13          6           0       -1.693685    0.903944   -0.535872
     14          8           0       -4.947874   -0.700120    0.151223
     15          6           0       -5.856130    0.220688   -0.432035
     16          7           0        3.263104   -2.254664   -0.252983
     17          6           0        4.823680    0.123371   -0.112704
     18          7           0        5.982105    0.023601   -0.193155
     19          1           0        1.270774    3.355972    1.041315
     20          1           0       -0.295301    2.529930    1.104211
     21          1           0        0.294405    3.200699   -0.416953
     22          1           0        3.256511    2.277150    0.282567
     23          1           0       -0.728420   -1.907054    1.081298
     24          1           0       -3.200197   -2.240727    1.131782
     25          1           0       -3.711720    1.447611   -1.016913
     26          1           0       -1.294167    1.774373   -1.043002
     27          1           0       -5.781019    1.210166    0.037318
     28          1           0       -5.688413    0.320395   -1.512267
     29          1           0       -6.851948   -0.189029   -0.256588
     30          1           0        4.232366   -2.291489   -0.535195
     31          1           0        2.669439   -3.017640   -0.545291
 ---------------------------------------------------------------------

 SCF Done:  E(UB3LYP) =  -781.084467836     A.U. after   24 cycles

 The electronic state is 2-A.
 Alpha  occ. eigenvalues --  -19.05300 -14.20075 -14.15876 -14.14720 -10.14053
 Alpha  occ. eigenvalues --  -10.11119 -10.11085 -10.06235 -10.05821 -10.05197
 Alpha  occ. eigenvalues --  -10.05168 -10.04968 -10.04923 -10.04663 -10.04381
 Alpha  occ. eigenvalues --  -10.04336 -10.04026 -10.03437  -0.97049  -0.83207
 Alpha  occ. eigenvalues --   -0.76485  -0.76034  -0.73261  -0.67581  -0.66036
 Alpha  occ. eigenvalues --   -0.63806  -0.62907  -0.59713  -0.56036  -0.52145
 Alpha  occ. eigenvalues --   -0.49831  -0.47793  -0.47042  -0.43113  -0.41842
 Alpha  occ. eigenvalues --   -0.40234  -0.38351  -0.38180  -0.37813  -0.34242
 Alpha  occ. eigenvalues --   -0.34119  -0.32808  -0.31252  -0.30997  -0.29774
 Alpha  occ. eigenvalues --   -0.28580  -0.27881  -0.27525  -0.27247  -0.25783
 Alpha  occ. eigenvalues --   -0.25658  -0.23101  -0.22581  -0.22434  -0.21800
 Alpha  occ. eigenvalues --   -0.21442  -0.19475  -0.18560  -0.14601  -0.14063
 Alpha  occ. eigenvalues --   -0.12160  -0.10921  -0.08088   0.03681
 Alpha virt. eigenvalues --    0.06048   0.08335   0.08928   0.09339   0.09869
 Alpha virt. eigenvalues --    0.09890   0.10326   0.10891   0.11714   0.11776
 Alpha virt. eigenvalues --    0.11931   0.12850   0.13275   0.13692   0.13991

  Beta  occ. eigenvalues --  -19.05252 -14.20077 -14.15617 -14.14525 -10.14054
  Beta  occ. eigenvalues --  -10.11103 -10.10918 -10.06240 -10.05885 -10.05250
  Beta  occ. eigenvalues --  -10.04961 -10.04768 -10.04725 -10.04564 -10.04342
  Beta  occ. eigenvalues --  -10.04161 -10.04154 -10.03135  -0.96924  -0.82972
  Beta  occ. eigenvalues --   -0.76150  -0.75676  -0.73089  -0.67169  -0.65777
  Beta  occ. eigenvalues --   -0.63602  -0.62733  -0.59545  -0.55770  -0.51508
  Beta  occ. eigenvalues --   -0.49700  -0.47664  -0.46839  -0.43031  -0.41690
  Beta  occ. eigenvalues --   -0.40077  -0.38113  -0.38037  -0.37739  -0.34138
  Beta  occ. eigenvalues --   -0.34013  -0.32662  -0.31190  -0.30783  -0.29689
  Beta  occ. eigenvalues --   -0.28275  -0.27501  -0.27086  -0.27077  -0.25631
  Beta  occ. eigenvalues --   -0.25532  -0.22777  -0.22127  -0.21882  -0.21503
  Beta  occ. eigenvalues --   -0.20783  -0.19311  -0.17779  -0.13799  -0.12858
  Beta  occ. eigenvalues --   -0.11873  -0.10182  -0.07140
  Beta virt. eigenvalues --    0.06033   0.08305   0.08907   0.09145   0.09337
  Beta virt. eigenvalues --    0.09868   0.09934   0.10546   0.10951   0.11767
  Beta virt. eigenvalues --    0.11862   0.12507   0.13097   0.13353   0.13867

 Mulliken charges and spin densities:
               1          2
     1  C   -0.868511   0.014549
     2  C    0.188849  -0.105475
     3  C   -0.542353   0.303557
     4  C    2.391371   0.165965
     5  C   -0.706196  -0.015193
     6  N   -0.007715   0.086442
     7  C   -0.447141   0.252795
     8  C    0.806961  -0.019719
     9  C    0.202819   0.073209
    10  C   -0.701965  -0.022537
    11  C   -0.490980   0.113666
    12  C    0.326507  -0.039424
    13  C   -0.696999   0.121029
    14  O   -0.163572   0.008073
    15  C   -0.301444  -0.005215
    16  N   -0.291856   0.007835
    17  C   -1.442001  -0.056806
    18  N   -0.320959   0.133937
    19  H    0.109290   0.005338
    20  H    0.146937  -0.003692
    21  H    0.130840  -0.003221
    22  H    0.133374  -0.018886
    23  H    0.181535  -0.004752
    24  H    0.148498   0.002290
    25  H    0.146690   0.003687
    26  H    0.137673  -0.008552
    27  H    0.131571   0.007941
    28  H    0.139293   0.000790
    29  H    0.150474  -0.000005
    30  H    0.264903   0.002201
    31  H    0.244105   0.000174
 Sum of Mulliken charges =  -1.00000   1.00000

 Dipole moment (field-independent basis, Debye):
    X=            -10.1114    Y=              0.8445    Z=             -0.8679  Tot=             10.1836
 Quadrupole moment (field-independent basis, Debye-Ang):
   XX=           -194.1395   YY=           -110.3561   ZZ=           -114.4511
   XY=             -9.8069   XZ=              3.2785   YZ=              0.6785

 Summary of Natural Population Analysis:

                                       Natural Population
                Natural  -----------------------------------------------
    Atom  No    Charge         Core      Valence    Rydberg      Total
 -----------------------------------------------------------------------
      C    1   -0.28813      0.99965     2.28352    0.00497     3.28813
      C    2   -0.07775      0.99948     2.07031    0.00795     3.07775
      C    3    0.00151      0.99951     1.99128    0.00770     2.99849
      C    4   -0.10936      0.99938     2.09993    0.01005     3.10936
      C    5    0.21670      0.99954     1.76925    0.01451     2.78330
      N    6   -0.25131      0.99964     2.73793    0.01374     3.75131
      C    7    0.17152      0.99952     1.81054    0.01843     2.82848
      C    8    0.01477      0.99950     1.97881    0.00692     2.98523
      C    9   -0.07637      0.99960     2.06224    0.01453     3.07637
      C   10   -0.13585      0.99943     2.12667    0.00975     3.13585
      C   11    0.18175      0.99941     1.80679    0.01205     2.81825
      C   12   -0.16554      0.99946     2.15802    0.00806     3.16554
      C   13   -0.07719      0.99960     2.06343    0.01415     3.07719
      O   14   -0.27413      0.99985     3.26373    0.01055     4.27413
      C   15   -0.10037      0.99962     2.09251    0.00824     3.10037
      N   16   -0.40085      0.99970     2.89240    0.00874     3.90085
      C   17    0.14550      0.99965     1.83586    0.01898     2.85450
      N   18   -0.18218      0.99979     2.67083    0.01156     3.68218
      H   19    0.09508      0.00000     0.40384    0.00108     0.40492
      H   20    0.10350      0.00000     0.39530    0.00120     0.39650
      H   21    0.09177      0.00000     0.40702    0.00121     0.40823
      H   22    0.08993      0.00000     0.40911    0.00095     0.41007
      H   23    0.10608      0.00000     0.39281    0.00111     0.39392
      H   24    0.09844      0.00000     0.40032    0.00124     0.40156
      H   25    0.09554      0.00000     0.40316    0.00130     0.40446
      H   26    0.09591      0.00000     0.40273    0.00136     0.40409
      H   27    0.08098      0.00000     0.41734    0.00168     0.41902
      H   28    0.08075      0.00000     0.41760    0.00166     0.41925
      H   29    0.08726      0.00000     0.41192    0.00082     0.41274
      H   30    0.19233      0.00000     0.30654    0.00113     0.30767
      H   31    0.18981      0.00000     0.30868    0.00151     0.31019
 =======================================================================
   * Total *    0.00010     17.99233    44.79042    0.21715    62.99990

 Normal termination of Gaussian 16 at Fri Dec 11 22:20:07 2020.
