 Gaussian 16, Revision A.03,

 -----------------------------------------------------------
 # opt freq B3LYP/6-31G(d) empiricaldispersion=gd3bj scf=xqc
 -----------------------------------------------------------

 -------------------------------
 CID_71943653_JID_10249_neutraal
 -------------------------------
 Symbolic Z-matrix:
 Charge =  0 Multiplicity = 1

 SCF Done:  E(RB3LYP) =  -1312.19480333     A.U. after   15 cycles
 SCF Done:  E(RB3LYP) =  -1312.03675788     A.U. after   15 cycles
 SCF Done:  E(RB3LYP) =  -1312.20007351     A.U. after   13 cycles
 SCF Done:  E(RB3LYP) =  -1312.20280719     A.U. after   12 cycles
 SCF Done:  E(RB3LYP) =  -1312.20209667     A.U. after   13 cycles
 SCF Done:  E(RB3LYP) =  -1312.20355262     A.U. after   12 cycles
 SCF Done:  E(RB3LYP) =  -1312.20380867     A.U. after   12 cycles
 SCF Done:  E(RB3LYP) =  -1312.20411215     A.U. after   11 cycles
 SCF Done:  E(RB3LYP) =  -1312.20435875     A.U. after   12 cycles
 SCF Done:  E(RB3LYP) =  -1312.20442550     A.U. after   11 cycles
 SCF Done:  E(RB3LYP) =  -1312.20456863     A.U. after   10 cycles
 SCF Done:  E(RB3LYP) =  -1312.20456941     A.U. after    8 cycles
 SCF Done:  E(RB3LYP) =  -1312.20457013     A.U. after    8 cycles
 SCF Done:  E(RB3LYP) =  -1312.20457038     A.U. after    8 cycles
 SCF Done:  E(RB3LYP) =  -1312.20457050     A.U. after    7 cycles
 Optimization completed.
    -- Stationary point found.
 Normal termination of Gaussian 16 at Sun Dec 13 21:02:35 2020.

 --------------------------------------------------------------------
 #N Geom=AllCheck Guess=TCheck SCRF=Check GenChk RB3LYP/6-31G(d) Freq
 --------------------------------------------------------------------

 Structure from the checkpoint file:  "JID_10249.chk"
 -------------------------------
 CID_71943653_JID_10249_neutraal
 -------------------------------
 Charge =  0 Multiplicity = 1

 SCF Done:  E(RB3LYP) =  -1312.20457050     A.U. after    1 cycles

  Exact polarizability: 178.975   0.559 174.091   9.752   3.498 142.979
 Approx polarizability: 249.451  -5.058 257.023  28.363  12.683 238.749

                      1                      2                      3
                      A                      A                      A
 Frequencies --     17.5761                35.6466                43.5491
 Red. masses --      4.7505                 5.3032                 3.2643
 Frc consts  --      0.0009                 0.0040                 0.0036
 IR Inten    --      1.3513                 1.9584                 0.4480

                      4                      5                      6
                      A                      A                      A
 Frequencies --     54.7643                72.1289                89.4616
 Red. masses --      5.6768                 5.6657                 5.5331
 Frc consts  --      0.0100                 0.0174                 0.0261
 IR Inten    --      1.6614                 6.5259                 1.5981

                      7                      8                      9
                      A                      A                      A
 Frequencies --     99.8445               105.8598               125.6622
 Red. masses --      5.1010                 4.5864                 3.8861
 Frc consts  --      0.0300                 0.0303                 0.0362
 IR Inten    --      1.3747                 2.9343                 0.6956

                     10                     11                     12
                      A                      A                      A
 Frequencies --    137.4455               164.6067               167.7485
 Red. masses --      3.9257                 4.9785                 2.9659
 Frc consts  --      0.0437                 0.0795                 0.0492
 IR Inten    --      1.9954                 6.3582                 2.4723

                     13                     14                     15
                      A                      A                      A
 Frequencies --    203.9508               226.8622               235.7622
 Red. masses --      3.3660                 1.0666                 2.5880
 Frc consts  --      0.0825                 0.0323                 0.0848
 IR Inten    --      2.7176                 1.9193                 1.8167

                     16                     17                     18
                      A                      A                      A
 Frequencies --    239.9641               281.6092               294.2906
 Red. masses --      2.6698                 4.1365                 3.7605
 Frc consts  --      0.0906                 0.1933                 0.1919
 IR Inten    --      5.1103                 0.0603                 1.1650

                     19                     20                     21
                      A                      A                      A
 Frequencies --    320.9530               347.2302               364.6643
 Red. masses --      3.9628                 4.3869                 2.3226
 Frc consts  --      0.2405                 0.3116                 0.1820
 IR Inten    --      2.5074                 0.7285                 1.9561

                     22                     23                     24
                      A                      A                      A
 Frequencies --    393.0745               451.4188               472.9749
 Red. masses --      3.3376                 4.2796                 4.2955
 Frc consts  --      0.3038                 0.5138                 0.5662
 IR Inten    --      1.5720                16.5174                 6.6328

                     25                     26                     27
                      A                      A                      A
 Frequencies --    493.1042               525.8795               532.4336
 Red. masses --      3.7319                 3.9660                 5.1873
 Frc consts  --      0.5346                 0.6462                 0.8664
 IR Inten    --     10.7409                36.7783                71.2282

                     28                     29                     30
                      A                      A                      A
 Frequencies --    544.8148               604.8154               629.5772
 Red. masses --      1.4659                 3.3119                 2.4520
 Frc consts  --      0.2564                 0.7138                 0.5726
 IR Inten    --     43.7520                11.5985                 5.2179

                     31                     32                     33
                      A                      A                      A
 Frequencies --    639.9870               673.0957               681.0299
 Red. masses --      4.0617                 3.2673                 3.4298
 Frc consts  --      0.9802                 0.8722                 0.9373
 IR Inten    --      5.1125                 6.7888                15.8830

                     34                     35                     36
                      A                      A                      A
 Frequencies --    743.6827               753.2991               771.6609
 Red. masses --      5.5128                 6.4356                 1.3124
 Frc consts  --      1.7964                 2.1517                 0.4604
 IR Inten    --     11.3036                50.0425                13.2394

                     37                     38                     39
                      A                      A                      A
 Frequencies --    776.9026               810.3323               826.8761
 Red. masses --      2.3230                 1.2154                 1.6519
 Frc consts  --      0.8261                 0.4702                 0.6654
 IR Inten    --     19.2422                70.4744                16.6530

                     40                     41                     42
                      A                      A                      A
 Frequencies --    855.2018               866.9972               878.0693
 Red. masses --      2.7479                 1.3064                 2.0691
 Frc consts  --      1.1841                 0.5786                 0.9399
 IR Inten    --     42.8148                 4.3611                 4.9883

                     43                     44                     45
                      A                      A                      A
 Frequencies --    890.7509               924.7988               933.6334
 Red. masses --      2.7889                 6.1139                 2.3502
 Frc consts  --      1.3037                 3.0808                 1.2070
 IR Inten    --      7.5275                13.7666                 3.9626

                     46                     47                     48
                      A                      A                      A
 Frequencies --    949.9343               979.9699               992.8742
 Red. masses --      2.3696                 3.0680                 1.7218
 Frc consts  --      1.2598                 1.7359                 1.0001
 IR Inten    --      1.7100                76.6656                 1.7118

                     49                     50                     51
                      A                      A                      A
 Frequencies --   1005.6402              1007.3572              1012.5396
 Red. masses --      1.4797                 1.7656                 1.9519
 Frc consts  --      0.8817                 1.0556                 1.1790
 IR Inten    --     19.0148                22.8531                 4.7874

                     52                     53                     54
                      A                      A                      A
 Frequencies --   1048.3334              1068.1000              1081.9793
 Red. masses --      2.5583                 2.0659                 2.3163
 Frc consts  --      1.6565                 1.3887                 1.5976
 IR Inten    --     13.0304                10.9993                13.8254

                     55                     56                     57
                      A                      A                      A
 Frequencies --   1101.9357              1114.2914              1118.8224
 Red. masses --      2.6389                 2.0633                 1.8043
 Frc consts  --      1.8879                 1.5094                 1.3307
 IR Inten    --     13.3991                 8.3398                31.8809

                     58                     59                     60
                      A                      A                      A
 Frequencies --   1124.8743              1145.1958              1151.3778
 Red. masses --      3.3791                 3.2096                 2.1025
 Frc consts  --      2.5192                 2.4800                 1.6422
 IR Inten    --     55.5534                89.3876                28.7566

                     61                     62                     63
                      A                      A                      A
 Frequencies --   1153.3509              1210.0476              1223.6506
 Red. masses --      2.6411                 1.3149                 1.6239
 Frc consts  --      2.0699                 1.1343                 1.4326
 IR Inten    --      5.2197                20.3403                 3.2577

                     64                     65                     66
                      A                      A                      A
 Frequencies --   1238.0606              1253.2170              1270.2292
 Red. masses --      1.3620                 1.2831                 1.6837
 Frc consts  --      1.2300                 1.1873                 1.6006
 IR Inten    --      7.9859                 9.6028                19.4681

                     67                     68                     69
                      A                      A                      A
 Frequencies --   1280.8050              1314.4846              1320.4140
 Red. masses --      1.2322                 1.5607                 6.3974
 Frc consts  --      1.1910                 1.5888                 6.5716
 IR Inten    --      2.8436                35.5908               205.0973

                     70                     71                     72
                      A                      A                      A
 Frequencies --   1331.6978              1337.0578              1349.9714
 Red. masses --      1.4982                 1.2975                 1.3041
 Frc consts  --      1.5654                 1.3666                 1.4003
 IR Inten    --     14.5494                 1.2990                 4.1306

                     73                     74                     75
                      A                      A                      A
 Frequencies --   1359.9727              1369.3837              1377.3945
 Red. masses --      1.2911                 1.3352                 1.3774
 Frc consts  --      1.4070                 1.4752                 1.5397
 IR Inten    --      1.5548                25.5642                26.6941

                     76                     77                     78
                      A                      A                      A
 Frequencies --   1387.0691              1395.6336              1403.1145
 Red. masses --      1.2183                 2.2121                 1.6141
 Frc consts  --      1.3810                 2.5387                 1.8722
 IR Inten    --      2.5371                22.5700                19.7779

                     79                     80                     81
                      A                      A                      A
 Frequencies --   1406.3947              1420.8830              1425.2945
 Red. masses --      2.5171                 1.5502                 2.8870
 Frc consts  --      2.9333                 1.8440                 3.4555
 IR Inten    --      7.3778                24.5460               142.7402

                     82                     83                     84
                      A                      A                      A
 Frequencies --   1435.6363              1486.3888              1490.0556
 Red. masses --      1.7997                 1.0480                 1.1130
 Frc consts  --      2.1854                 1.3642                 1.4560
 IR Inten    --      7.0665                 5.5419                 8.3297

                     85                     86                     87
                      A                      A                      A
 Frequencies --   1492.0159              1506.9976              1514.0170
 Red. masses --      1.4114                 1.1941                 1.2174
 Frc consts  --      1.8512                 1.5978                 1.6441
 IR Inten    --     47.8671                18.2906                 4.1390

                     88                     89                     90
                      A                      A                      A
 Frequencies --   1518.4620              1533.7207              1543.0677
 Red. masses --      1.0852                 1.0935                 2.5662
 Frc consts  --      1.4742                 1.5155                 3.6000
 IR Inten    --      1.2050                 8.2218                14.4970

                     91                     92                     93
                      A                      A                      A
 Frequencies --   1551.8272              1553.7521              1557.5879
 Red. masses --      1.1148                 2.6116                 1.1669
 Frc consts  --      1.5817                 3.7146                 1.6679
 IR Inten    --      2.0537                37.7089                16.8233

                     94                     95                     96
                      A                      A                      A
 Frequencies --   1788.5778              3026.8796              3040.8774
 Red. masses --      7.7871                 1.0730                 1.0663
 Frc consts  --     14.6771                 5.7922                 5.8093
 IR Inten    --    343.3066                34.7681                23.8138

                     97                     98                     99
                      A                      A                      A
 Frequencies --   3043.9776              3080.0519              3082.5117
 Red. masses --      1.0667                 1.0625                 1.0620
 Frc consts  --      5.8236                 5.9386                 5.9454
 IR Inten    --     34.4041                19.1755                23.5895

                    100                    101                    102
                      A                      A                      A
 Frequencies --   3085.8012              3089.6788              3094.4634
 Red. masses --      1.0834                 1.0303                 1.0643
 Frc consts  --      6.0781                 5.7949                 6.0047
 IR Inten    --      2.6114                 9.5093                23.9112

                    103                    104                    105
                      A                      A                      A
 Frequencies --   3096.4940              3118.2460              3125.5293
 Red. masses --      1.0972                 1.0965                 1.1054
 Frc consts  --      6.1985                 6.2815                 6.3626
 IR Inten    --     18.8266                20.3675                 7.1874

                    106                    107                    108
                      A                      A                      A
 Frequencies --   3129.6882              3142.1066              3143.2965
 Red. masses --      1.1050                 1.1056                 1.0901
 Frc consts  --      6.3771                 6.4311                 6.3457
 IR Inten    --     17.7946                39.3449                13.7646

                    109                    110                    111
                      A                      A                      A
 Frequencies --   3186.7429              3203.2690              3253.2424
 Red. masses --      1.1052                 1.1089                 1.0949
 Frc consts  --      6.6128                 6.7037                 6.8275
 IR Inten    --      5.3503                 7.3669                 6.1431

                    112                    113                    114
                      A                      A                      A
 Frequencies --   3257.8796              3287.9058              3580.6793
 Red. masses --      1.0936                 1.1043                 1.0753
 Frc consts  --      6.8388                 7.0333                 8.1228
 IR Inten    --     10.8551                12.2699                14.1592

 - Thermochemistry -
 -------------------
 Temperature   298.150 Kelvin.  Pressure   1.00000 Atm.
 Atom     1 has atomic number  6 and mass  12.00000

 Molecular mass:   300.12561 amu.
 Principal axes and moments of inertia in atomic units:
                           1         2         3
     Eigenvalues --  4138.218867137.867268902.48392
           X            0.99982  -0.00799  -0.01714
           Y            0.00786   0.99994  -0.00770
           Z            0.01720   0.00756   0.99982
 This molecule is an asymmetric top.
 Rotational symmetry number  1.
 Warning -- assumption of classical behavior for rotation
           may cause significant error
 Rotational temperatures (Kelvin)      0.02093     0.01213     0.00973
 Rotational constants (GHZ):           0.43612     0.25284     0.20272
 Zero-point vibrational energy     879714.5 (Joules/Mol)
                                  210.25680 (Kcal/Mol)
 Warning -- explicit consideration of  29 degrees of freedom as
           vibrations may cause significant error
 Vibrational temperatures:     25.29    51.29    62.66    78.79   103.78
          (Kelvin)            128.72   143.65   152.31   180.80   197.75
                              236.83   241.35   293.44   326.40   339.21
                              345.25   405.17   423.42   461.78   499.59
                              524.67   565.55   649.49   680.51   709.47
                              756.62   766.05   783.87   870.19   905.82
                              920.80   968.43   979.85  1069.99  1083.83
                             1110.25  1117.79  1165.89  1189.69  1230.44
                             1247.42  1263.35  1281.59  1330.58  1343.29
                             1366.74  1409.96  1428.52  1446.89  1449.36
                             1456.82  1508.32  1536.76  1556.73  1585.44
                             1603.22  1609.74  1618.44  1647.68  1656.58
                             1659.41  1740.99  1760.56  1781.29  1803.10
                             1827.58  1842.79  1891.25  1899.78  1916.02
                             1923.73  1942.31  1956.70  1970.24  1981.76
                             1995.68  2008.01  2018.77  2023.49  2044.33
                             2050.68  2065.56  2138.58  2143.86  2146.68
                             2168.23  2178.33  2184.73  2206.68  2220.13
                             2232.73  2235.50  2241.02  2573.36  4355.00
                             4375.14  4379.60  4431.51  4435.05  4439.78
                             4445.36  4452.24  4455.16  4486.46  4496.94
                             4502.92  4520.79  4522.50  4585.01  4608.79
                             4680.69  4687.36  4730.56  5151.80

 Zero-point correction=                           0.335066 (Hartree/Particle)
 Thermal correction to Energy=                    0.354897
 Thermal correction to Enthalpy=                  0.355842
 Thermal correction to Gibbs Free Energy=         0.284830
 Sum of electronic and zero-point Energies=          -1311.869505
 Sum of electronic and thermal Energies=             -1311.849673
 Sum of electronic and thermal Enthalpies=           -1311.848729
 Sum of electronic and thermal Free Energies=        -1311.919741

                     E (Thermal)             CV                S
                      KCal/Mol        Cal/Mol-Kelvin    Cal/Mol-Kelvin
 Total                  222.701             74.117            149.457
 Electronic               0.000              0.000              0.000
 Translational            0.889              2.981             42.994
 Rotational               0.889              2.981             33.930
 Vibrational            220.924             68.155             72.533
 Vibration     1          0.593              1.986              6.891
 Vibration     2          0.594              1.982              5.487
 Vibration     3          0.595              1.980              5.091
 Vibration     4          0.596              1.976              4.637
 Vibration     5          0.598              1.967              4.094
 Vibration     6          0.602              1.957              3.672
 Vibration     7          0.604              1.949              3.457
 Vibration     8          0.605              1.945              3.343
 Vibration     9          0.611              1.927              3.011
 Vibration    10          0.614              1.916              2.839
 Vibration    11          0.623              1.886              2.496
 Vibration    12          0.624              1.882              2.461
 Vibration    13          0.640              1.834              2.097
 Vibration    14          0.651              1.800              1.904
 Vibration    15          0.655              1.786              1.835
 Vibration    16          0.657              1.779              1.803
 Vibration    17          0.681              1.708              1.524
 Vibration    18          0.689              1.684              1.449
 Vibration    19          0.706              1.633              1.305
 Vibration    20          0.725              1.581              1.179
 Vibration    21          0.738              1.545              1.102
 Vibration    22          0.760              1.485              0.988
 Vibration    23          0.810              1.358              0.791
 Vibration    24          0.830              1.310              0.729
 Vibration    25          0.849              1.265              0.676
 Vibration    26          0.881              1.193              0.596
 Vibration    27          0.887              1.178              0.582
 Vibration    28          0.900              1.151              0.555
 Vibration    29          0.963              1.022              0.441

                           ! Non-Optimized Parameters !
 Normal termination of Gaussian 16 at Sun Dec 13 21:27:20 2020.

 ----------------------------------------------------------------------
 # B3LYP/6-311++G(d,p) empiricaldispersion=gd3bj scf=xqc pop=npa geom=c
 heck
 ----------------------------------------------------------------------

 ---------------------------------------
 CID_71943653_JID_10249_Energie_neutraal
 ---------------------------------------
 Structure from the checkpoint file:  "JID_10249.chk"
 Charge =  0 Multiplicity = 1

 SCF Done:  E(RB3LYP) =  -1312.49194752     A.U. after   15 cycles
 Normal termination of Gaussian 16 at Sun Dec 13 21:37:26 2020.

 ----------------------------------------------------------------------
 # B3LYP/6-311++G(d,p) empiricaldispersion=gd3bj scf=xqc pop=npa geom=c
 heck
 ----------------------------------------------------------------------

 -------------------------------------
 CID_71943653_JID_10249_Energie_kation
 -------------------------------------
 Structure from the checkpoint file:  "JID_10249.chk"
 Charge =  1 Multiplicity = 2

 SCF Done:  E(UB3LYP) =  -1312.18476163     A.U. after   29 cycles
 Normal termination of Gaussian 16 at Sun Dec 13 22:04:27 2020.
 Gaussian 16:  ES64L-G16RevA.03 25-Dec-2016

 ----------------------------------------------------------------------
 # B3LYP/6-311++G(d,p) empiricaldispersion=gd3bj scf=xqc pop=npa geom=c
 heck
 ----------------------------------------------------------------------

 ------------------------------------
 CID_71943653_JID_10249_Energie_anion
 ------------------------------------
 Structure from the checkpoint file:  "JID_10249.chk"
 Charge = -1 Multiplicity = 2

                         Standard orientation:
 ---------------------------------------------------------------------
 Center     Atomic      Atomic             Coordinates (Angstroms)
 Number     Number       Type             X           Y           Z
 ---------------------------------------------------------------------
      1          6           0       -0.332472    2.715129    0.564719
      2         16           0       -1.383654    1.709077   -0.487883
      3          8           0       -2.656722    2.417670   -0.675777
      4          8           0       -0.612950    1.267546   -1.655138
      5          7           0       -1.599804    0.321610    0.477490
      6          6           0       -2.421584    0.522702    1.693506
      7          6           0       -2.701173   -0.913437    2.128433
      8          6           0       -2.923500   -1.658482    0.797577
      9          6           0       -2.206475   -0.802556   -0.291187
     10          6           0       -1.254705   -1.648566   -1.135472
     11          8           0       -1.658801   -2.101399   -2.198011
     12          7           0       -0.013531   -1.977666   -0.660243
     13          6           0        0.591796   -1.752176    0.647668
     14          6           0        2.000747   -2.346036    0.676138
     15          6           0        2.969179   -1.730811   -0.344267
     16          7           0        3.212017   -0.314093   -0.123017
     17          6           0        2.493238    0.744345   -0.648885
     18          6           0        3.072127    1.873200   -0.116717
     19          7           0        4.116527    1.542159    0.721401
     20          6           0        4.169336    0.227323    0.694582
     21          1           0       -0.117236    3.618964   -0.009701
     22          1           0        0.589594    2.171476    0.772854
     23          1           0       -0.869548    2.978552    1.476517
     24          1           0       -3.350914    1.059483    1.458577
     25          1           0       -1.860618    1.094288    2.437667
     26          1           0       -1.830869   -1.314611    2.656864
     27          1           0       -3.562249   -0.978529    2.798971
     28          1           0       -2.532516   -2.678834    0.828296
     29          1           0       -3.986604   -1.727202    0.555364
     30          1           0       -2.946443   -0.430168   -1.005888
     31          1           0        0.428149   -2.665580   -1.258872
     32          1           0        0.625870   -0.682157    0.857206
     33          1           0       -0.001620   -2.220160    1.445412
     34          1           0        2.412273   -2.214243    1.683117
     35          1           0        1.949656   -3.428273    0.492192
     36          1           0        3.931939   -2.248677   -0.294280
     37          1           0        2.592068   -1.847601   -1.363932
     38          1           0        1.659607    0.596204   -1.320257
     39          1           0        2.812260    2.905572   -0.308011
     40          1           0        4.877889   -0.392174    1.229446
 ---------------------------------------------------------------------

 SCF Done:  E(UB3LYP) =  -1312.49141599     A.U. after   33 cycles
 SCF Done:  E(UB3LYP) =  -1312.49141599     a.u. after    1 cycles

 The electronic state is 2-A.
 Alpha  occ. eigenvalues --  -88.98426 -19.03952 -19.03940 -19.00164 -14.28838
 Alpha  occ. eigenvalues --  -14.26854 -14.25036 -14.21120 -10.18890 -10.14252
 Alpha  occ. eigenvalues --  -10.13933 -10.13732 -10.13150 -10.13003 -10.12253
 Alpha  occ. eigenvalues --  -10.11078 -10.10233 -10.10013 -10.09836 -10.09586
 Alpha  occ. eigenvalues --   -8.04677  -6.00939  -6.00901  -6.00776  -1.04137
 Alpha  occ. eigenvalues --   -0.95522  -0.93603  -0.93050  -0.87342  -0.83839
 Alpha  occ. eigenvalues --   -0.80656  -0.72600  -0.70505  -0.69006  -0.67414
 Alpha  occ. eigenvalues --   -0.66246  -0.62280  -0.57962  -0.54562  -0.53445
 Alpha  occ. eigenvalues --   -0.51725  -0.51616  -0.49292  -0.49063  -0.46281
 Alpha  occ. eigenvalues --   -0.45071  -0.42878  -0.40806  -0.40400  -0.39943
 Alpha  occ. eigenvalues --   -0.39501  -0.38415  -0.37296  -0.37161  -0.36431
 Alpha  occ. eigenvalues --   -0.35655  -0.35539  -0.34604  -0.34245  -0.33862
 Alpha  occ. eigenvalues --   -0.32878  -0.32729  -0.32493  -0.31560  -0.29046
 Alpha  occ. eigenvalues --   -0.28916  -0.28117  -0.27982  -0.26960  -0.26466
 Alpha  occ. eigenvalues --   -0.25749  -0.24765  -0.23606  -0.22734  -0.19303
 Alpha  occ. eigenvalues --   -0.19149  -0.18925  -0.17161  -0.16868  -0.15007
 Alpha  occ. eigenvalues --    0.03173
 Alpha virt. eigenvalues --    0.05090   0.06255   0.06742   0.07350   0.07851
 Alpha virt. eigenvalues --    0.08544   0.08836   0.09373   0.09576   0.09960
 Alpha virt. eigenvalues --    0.10281   0.10451   0.10664   0.11406   0.11578

  Beta  occ. eigenvalues --  -88.98423 -19.03948 -19.03936 -19.00162 -14.28840
  Beta  occ. eigenvalues --  -14.26852 -14.25027 -14.21120 -10.18887 -10.14251
  Beta  occ. eigenvalues --  -10.13911 -10.13716 -10.13127 -10.12979 -10.12230
  Beta  occ. eigenvalues --  -10.11071 -10.10216 -10.10012 -10.09797 -10.09546
  Beta  occ. eigenvalues --   -8.04672  -6.00935  -6.00898  -6.00772  -1.04125
  Beta  occ. eigenvalues --   -0.95516  -0.93597  -0.93039  -0.87328  -0.83818
  Beta  occ. eigenvalues --   -0.80646  -0.72569  -0.70458  -0.68967  -0.67380
  Beta  occ. eigenvalues --   -0.66224  -0.62238  -0.57924  -0.54494  -0.53396
  Beta  occ. eigenvalues --   -0.51691  -0.51575  -0.49269  -0.49029  -0.46255
  Beta  occ. eigenvalues --   -0.45034  -0.42851  -0.40773  -0.40365  -0.39920
  Beta  occ. eigenvalues --   -0.39463  -0.38387  -0.37260  -0.37137  -0.36409
  Beta  occ. eigenvalues --   -0.35639  -0.35516  -0.34582  -0.34217  -0.33835
  Beta  occ. eigenvalues --   -0.32845  -0.32702  -0.32478  -0.31538  -0.29001
  Beta  occ. eigenvalues --   -0.28875  -0.28056  -0.27926  -0.26938  -0.26444
  Beta  occ. eigenvalues --   -0.25714  -0.24758  -0.23597  -0.22722  -0.19296
  Beta  occ. eigenvalues --   -0.19143  -0.18915  -0.17150  -0.16857  -0.14982
  Beta virt. eigenvalues --    0.05589   0.06142   0.06744   0.07365   0.07987
  Beta virt. eigenvalues --    0.08207   0.08845   0.09084   0.09570   0.09763
  Beta virt. eigenvalues --    0.10243   0.10470   0.10690   0.10811   0.11611

 Mulliken charges and spin densities:
               1          2
     1  C   -0.188803  -0.394224
     2  S   -0.254108   0.167730
     3  O   -0.021390  -0.002293
     4  O   -0.102788  -0.001176
     5  N    0.133124   0.044454
     6  C    0.013846  -0.275123
     7  C    0.547721  -0.922576
     8  C    0.233167  -0.532430
     9  C   -0.574240   0.377833
    10  C    0.069241  -0.194676
    11  O   -0.278849   0.003083
    12  N   -0.165299   0.013753
    13  C   -0.542931   0.419448
    14  C    1.527289  -2.220081
    15  C   -0.653726   0.255146
    16  N    0.247274  -0.027536
    17  C   -0.585619   0.324399
    18  C    0.066014  -0.501469
    19  N   -0.138985   0.036233
    20  C    0.270424  -0.361480
    21  H    0.170667   0.055932
    22  H    0.059457   0.221535
    23  H   -0.007374   0.224532
    24  H    0.187831   0.026821
    25  H   -0.247215   0.377753
    26  H   -0.271510   0.436134
    27  H   -0.562345   0.775757
    28  H   -0.108762   0.325942
    29  H    0.094064   0.063501
    30  H    0.243485   0.047159
    31  H    0.341210  -0.012360
    32  H    0.457149  -0.179703
    33  H   -0.003798   0.208545
    34  H   -0.314353   0.518873
    35  H   -0.519847   0.696235
    36  H   -0.406624   0.624863
    37  H    0.088519   0.067393
    38  H    0.179391   0.042785
    39  H    0.147376  -0.012505
    40  H   -0.128683   0.281796
 Sum of Mulliken charges =  -1.00000   1.00000

 Dipole moment (field-independent basis, Debye):
    X=             -0.8776    Y=              3.7038    Z=             -2.3892  Tot=              4.4940
 Quadrupole moment (field-independent basis, Debye-Ang):
   XX=           -203.4709   YY=           -182.4874   ZZ=           -184.1251
   XY=              2.1736   XZ=             -7.7365   YZ=              5.0617

 Summary of Natural Population Analysis:

                                       Natural Population
                Natural  -----------------------------------------------
    Atom  No    Charge         Core      Valence    Rydberg      Total
 -----------------------------------------------------------------------
      C    1   -0.39356      0.99960     2.38606    0.00791     3.39356
      S    2    1.09920      4.99928     1.80345    0.09807     6.90080
      O    3   -0.46403      0.99991     3.45880    0.00532     4.46403
      O    4   -0.46080      0.99990     3.45480    0.00610     4.46080
      N    5   -0.37667      0.99973     2.86258    0.01437     3.87667
      C    6   -0.09017      0.99961     2.07885    0.01172     3.09017
      C    7   -0.19382      0.99962     2.18509    0.00911     3.19382
      C    8   -0.18730      0.99961     2.17910    0.00859     3.18730
      C    9   -0.04923      0.99954     2.03557    0.01412     3.04923
      C   10    0.34901      0.99963     1.62805    0.02331     2.65099
      O   11   -0.31989      0.99988     3.31467    0.00534     4.31989
      N   12   -0.32047      0.99966     2.81094    0.00987     3.82047
      C   13   -0.09329      0.99960     2.08230    0.01140     3.09329
      C   14   -0.19559      0.99962     2.18656    0.00942     3.19559
      C   15   -0.08276      0.99960     2.07154    0.01162     3.08276
      N   16   -0.20849      0.99965     2.69840    0.01044     3.70849
      C   17   -0.04015      0.99955     2.03017    0.01044     3.04015
      C   18   -0.04625      0.99959     2.03312    0.01354     3.04625
      N   19   -0.25663      0.99973     2.74631    0.01059     3.75663
      C   20    0.10477      0.99963     1.87823    0.01737     2.89523
      H   21    0.11756      0.00000     0.38161    0.00082     0.38244
      H   22    0.12587      0.00000     0.37250    0.00163     0.37413
      H   23    0.11752      0.00000     0.38144    0.00104     0.38248
      H   24    0.09753      0.00000     0.40121    0.00126     0.40247
      H   25    0.10372      0.00000     0.39475    0.00153     0.39628
      H   26    0.10493      0.00000     0.39244    0.00263     0.39507
      H   27    0.10782      0.00000     0.39064    0.00155     0.39218
      H   28    0.10874      0.00000     0.39003    0.00123     0.39126
      H   29    0.10466      0.00000     0.39443    0.00091     0.39534
      H   30    0.11289      0.00000     0.38586    0.00125     0.38711
      H   31    0.19186      0.00000     0.30581    0.00233     0.30814
      H   32    0.10423      0.00000     0.39287    0.00290     0.39577
      H   33    0.09803      0.00000     0.39974    0.00222     0.40197
      H   34    0.10875      0.00000     0.38918    0.00207     0.39125
      H   35    0.10419      0.00000     0.39297    0.00284     0.39581
      H   36    0.10630      0.00000     0.39211    0.00159     0.39370
      H   37    0.10033      0.00000     0.39831    0.00136     0.39967
      H   38    0.12081      0.00000     0.37773    0.00145     0.37919
      H   39    0.09594      0.00000     0.40304    0.00102     0.40406
      H   40    0.09444      0.00000     0.40415    0.00141     0.40556
 =======================================================================
   * Total *    0.00000     23.99293    55.66541    0.34166    80.00000

 Normal termination of Gaussian 16 at Sun Dec 13 22:34:54 2020.
