 Gaussian 16, Revision A.03,

 -----------------------------------------------------------
 # opt freq B3LYP/6-31G(d) empiricaldispersion=gd3bj scf=xqc
 -----------------------------------------------------------

 -------------------------------
 CID_143329966_JID_4659_neutraal
 -------------------------------
 Symbolic Z-matrix:
 Charge =  0 Multiplicity = 1

 SCF Done:  E(RB3LYP) =  -906.829010224     A.U. after   14 cycles
 SCF Done:  E(RB3LYP) =  -906.833783471     A.U. after   12 cycles
 SCF Done:  E(RB3LYP) =  -906.835901744     A.U. after   13 cycles
 SCF Done:  E(RB3LYP) =  -906.835919963     A.U. after   13 cycles
 SCF Done:  E(RB3LYP) =  -906.836351292     A.U. after   12 cycles
 SCF Done:  E(RB3LYP) =  -906.835892559     A.U. after   12 cycles
 SCF Done:  E(RB3LYP) =  -906.836663114     A.U. after   12 cycles
 SCF Done:  E(RB3LYP) =  -906.836688108     A.U. after   11 cycles
 SCF Done:  E(RB3LYP) =  -906.836715142     A.U. after   11 cycles
 SCF Done:  E(RB3LYP) =  -906.836716924     A.U. after    8 cycles
 SCF Done:  E(RB3LYP) =  -906.836717114     A.U. after    8 cycles
 SCF Done:  E(RB3LYP) =  -906.836717259     A.U. after    7 cycles
 Optimization completed.
    -- Stationary point found.
 Normal termination of Gaussian 16 at Thu Dec 10 10:23:56 2020.

 --------------------------------------------------------------------
 #N Geom=AllCheck Guess=TCheck SCRF=Check GenChk RB3LYP/6-31G(d) Freq
 --------------------------------------------------------------------

 Structure from the checkpoint file:  "JID_4659.chk"
 -------------------------------
 CID_143329966_JID_4659_neutraal
 -------------------------------
 Charge =  0 Multiplicity = 1

 SCF Done:  E(RB3LYP) =  -906.836717259     A.U. after    1 cycles

  Exact polarizability: 204.132  -1.560 157.459  21.012   2.885 118.162
 Approx polarizability: 274.848   0.584 233.935  42.648  10.338 195.211

                      1                      2                      3
                      A                      A                      A
 Frequencies --     25.3570                44.1232                64.7878
 Red. masses --      4.9515                 4.5979                 3.3116
 Frc consts  --      0.0019                 0.0053                 0.0082
 IR Inten    --      0.1397                 0.8342                 0.1919

                      4                      5                      6
                      A                      A                      A
 Frequencies --     77.4863                83.1193               109.0264
 Red. masses --      3.1479                 3.2844                 2.5942
 Frc consts  --      0.0111                 0.0134                 0.0182
 IR Inten    --      0.3526                 0.0295                 0.0186

                      7                      8                      9
                      A                      A                      A
 Frequencies --    124.5520               130.3962               188.2158
 Red. masses --      3.5674                 2.9429                 1.4782
 Frc consts  --      0.0326                 0.0295                 0.0309
 IR Inten    --      0.2086                 0.1808                 7.9337

                     10                     11                     12
                      A                      A                      A
 Frequencies --    202.1498               224.5331               228.4099
 Red. masses --      1.5051                 1.0769                 2.2318
 Frc consts  --      0.0362                 0.0320                 0.0686
 IR Inten    --      5.8286                 0.1903                 0.2951

                     13                     14                     15
                      A                      A                      A
 Frequencies --    247.5819               258.5598               271.7031
 Red. masses --      1.4493                 2.2549                 2.6443
 Frc consts  --      0.0523                 0.0888                 0.1150
 IR Inten    --      0.0603                 0.5416                 4.8695

                     16                     17                     18
                      A                      A                      A
 Frequencies --    288.4517               338.8643               344.6347
 Red. masses --      2.2938                 2.2185                 2.6074
 Frc consts  --      0.1124                 0.1501                 0.1825
 IR Inten    --      1.1083                 0.7304                 1.2420

                     19                     20                     21
                      A                      A                      A
 Frequencies --    389.1850               403.1132               417.7559
 Red. masses --      2.6825                 2.3875                 1.9075
 Frc consts  --      0.2394                 0.2286                 0.1961
 IR Inten    --      1.7113                 0.3307                 0.0877

                     22                     23                     24
                      A                      A                      A
 Frequencies --    456.0671               489.4418               501.3820
 Red. masses --      2.3538                 2.5288                 2.4333
 Frc consts  --      0.2885                 0.3569                 0.3604
 IR Inten    --      0.9406                 2.7748                 0.7652

                     25                     26                     27
                      A                      A                      A
 Frequencies --    549.0785               586.9409               662.9773
 Red. masses --      2.3523                 2.4624                 2.6845
 Frc consts  --      0.4178                 0.4998                 0.6952
 IR Inten    --      1.6194                 1.0861                 5.6673

                     28                     29                     30
                      A                      A                      A
 Frequencies --    684.1031               720.6735               768.2656
 Red. masses --      2.4284                 1.8400                 1.9834
 Frc consts  --      0.6696                 0.5630                 0.6897
 IR Inten    --      3.0342                 2.1978                 5.9695

                     31                     32                     33
                      A                      A                      A
 Frequencies --    801.0574               807.5158               840.9995
 Red. masses --      1.3875                 1.6853                 2.1448
 Frc consts  --      0.5246                 0.6475                 0.8938
 IR Inten    --      3.7490                12.6897                 4.0741

                     34                     35                     36
                      A                      A                      A
 Frequencies --    882.4692               897.4232               914.2775
 Red. masses --      1.8384                 1.2989                 1.3678
 Frc consts  --      0.8435                 0.6164                 0.6737
 IR Inten    --      0.6857                 4.5091                38.8978

                     37                     38                     39
                      A                      A                      A
 Frequencies --    923.9991               942.7311               958.1013
 Red. masses --      2.1509                 1.3795                 1.6339
 Frc consts  --      1.0820                 0.7223                 0.8837
 IR Inten    --      6.3949                40.0933                 1.4965

                     40                     41                     42
                      A                      A                      A
 Frequencies --    972.6331              1007.6923              1029.0494
 Red. masses --      1.7372                 1.6975                 1.1873
 Frc consts  --      0.9683                 1.0156                 0.7408
 IR Inten    --      4.2876                 2.8128                19.9550

                     43                     44                     45
                      A                      A                      A
 Frequencies --   1041.2450              1053.7509              1066.5697
 Red. masses --      1.6337                 1.1246                 1.8129
 Frc consts  --      1.0436                 0.7357                 1.2151
 IR Inten    --      4.1298                 3.2286                 2.3659

                     46                     47                     48
                      A                      A                      A
 Frequencies --   1085.1993              1089.1597              1101.1313
 Red. masses --      1.6891                 1.7364                 1.6566
 Frc consts  --      1.1720                 1.2136                 1.1834
 IR Inten    --      7.0649                 0.3120                 9.3541

                     49                     50                     51
                      A                      A                      A
 Frequencies --   1123.4626              1144.8698              1150.4107
 Red. masses --      1.9948                 2.0408                 2.0073
 Frc consts  --      1.4834                 1.5761                 1.5652
 IR Inten    --      1.9273                13.7806                 2.1359

                     52                     53                     54
                      A                      A                      A
 Frequencies --   1177.4612              1236.9079              1248.2491
 Red. masses --      1.9046                 1.4723                 1.4250
 Frc consts  --      1.5558                 1.3271                 1.3081
 IR Inten    --      2.4163                 3.8357                 1.1316

                     55                     56                     57
                      A                      A                      A
 Frequencies --   1283.8569              1302.7890              1325.5345
 Red. masses --      1.6151                 1.2144                 1.2299
 Frc consts  --      1.5685                 1.2144                 1.2732
 IR Inten    --      6.3913                 6.1421                 5.3912

                     58                     59                     60
                      A                      A                      A
 Frequencies --   1332.5233              1346.0892              1356.3620
 Red. masses --      1.4335                 1.3235                 1.3684
 Frc consts  --      1.4997                 1.4129                 1.4833
 IR Inten    --      1.3872                 4.3874                 0.6797

                     61                     62                     63
                      A                      A                      A
 Frequencies --   1364.1115              1373.2373              1376.1311
 Red. masses --      1.2792                 1.5242                 1.3794
 Frc consts  --      1.4024                 1.6935                 1.5391
 IR Inten    --      1.9141                 1.2322                 1.9048

                     64                     65                     66
                      A                      A                      A
 Frequencies --   1405.6494              1408.7418              1433.6916
 Red. masses --      1.3899                 1.3811                 1.2197
 Frc consts  --      1.6180                 1.6149                 1.4771
 IR Inten    --     15.0807                 1.5505                 3.2043

                     67                     68                     69
                      A                      A                      A
 Frequencies --   1439.6967              1470.4006              1478.7263
 Red. masses --      1.2408                 1.2297                 1.3074
 Frc consts  --      1.5153                 1.5665                 1.6843
 IR Inten    --      7.3947                 4.6663                 1.0081

                     70                     71                     72
                      A                      A                      A
 Frequencies --   1509.5109              1518.4327              1523.3301
 Red. masses --      1.0718                 1.0718                 1.0805
 Frc consts  --      1.4389                 1.4560                 1.4773
 IR Inten    --      2.9062                11.2463                 1.1484

                     73                     74                     75
                      A                      A                      A
 Frequencies --   1525.7422              1526.4676              1533.1833
 Red. masses --      1.0447                 1.0630                 1.0596
 Frc consts  --      1.4329                 1.4594                 1.4675
 IR Inten    --      5.6310                 3.8835                 3.6538

                     76                     77                     78
                      A                      A                      A
 Frequencies --   1539.1461              1558.3490              1649.8825
 Red. masses --      1.0591                 1.0929                 6.5699
 Frc consts  --      1.4782                 1.5637                10.5370
 IR Inten    --      5.2214                 2.4816                 5.2448

                     79                     80                     81
                      A                      A                      A
 Frequencies --   1695.3113              1705.3101              2662.0910
 Red. masses --      4.0172                 4.2979                 1.0383
 Frc consts  --      6.8026                 7.3640                 4.3354
 IR Inten    --      7.7137                 8.7067                23.2983

                     82                     83                     84
                      A                      A                      A
 Frequencies --   3034.7831              3042.9301              3045.9085
 Red. masses --      1.0683                 1.0516                 1.0580
 Frc consts  --      5.7968                 5.7370                 5.7832
 IR Inten    --     16.1827                17.7310                 8.0018

                     85                     86                     87
                      A                      A                      A
 Frequencies --   3050.3458              3051.9246              3063.9973
 Red. masses --      1.0555                 1.0362                 1.0711
 Frc consts  --      5.7861                 5.6865                 5.9244
 IR Inten    --     57.3540                37.0250                16.5509

                     88                     89                     90
                      A                      A                      A
 Frequencies --   3079.5851              3088.5601              3095.4761
 Red. masses --      1.0982                 1.0999                 1.0900
 Frc consts  --      6.1363                 6.1817                 6.1535
 IR Inten    --     32.1196                40.0028                 6.4044

                     91                     92                     93
                      A                      A                      A
 Frequencies --   3112.0597              3115.8428              3117.0144
 Red. masses --      1.0944                 1.0999                 1.0943
 Frc consts  --      6.2449                 6.2917                 6.2639
 IR Inten    --     25.5526                42.6675                46.8873

                     94                     95                     96
                      A                      A                      A
 Frequencies --   3118.2946              3122.1617              3139.4386
 Red. masses --      1.0860                 1.0958                 1.1004
 Frc consts  --      6.2219                 6.2936                 6.3900
 IR Inten    --     32.9368                 2.1872                18.0738

                     97                     98                     99
                      A                      A                      A
 Frequencies --   3141.1195              3171.0215              3172.1806
 Red. masses --      1.0984                 1.0606                 1.0582
 Frc consts  --      6.3853                 6.2835                 6.2739
 IR Inten    --     40.0833                 2.7893                 8.9762

                    100                    101                    102
                      A                      A                      A
 Frequencies --   3191.2202              3248.5091              3253.0330
 Red. masses --      1.0900                 1.1151                 1.1169
 Frc consts  --      6.5402                 6.9331                 6.9636
 IR Inten    --      4.8654                20.1758                 9.8405

 - Thermochemistry -
 -------------------
 Temperature   298.150 Kelvin.  Pressure   1.00000 Atm.
 Atom     1 has atomic number  6 and mass  12.00000

 Molecular mass:   210.14422 amu.
 Principal axes and moments of inertia in atomic units:
                           1         2         3
     Eigenvalues --  1732.668225988.606497014.77707
           X            0.99994   0.00934   0.00495
           Y           -0.00934   0.99996  -0.00036
           Z           -0.00496   0.00031   0.99999
 This molecule is an asymmetric top.
 Rotational symmetry number  1.
 Warning -- assumption of classical behavior for rotation
           may cause significant error
 Rotational temperatures (Kelvin)      0.04999     0.01446     0.01235
 Rotational constants (GHZ):           1.04160     0.30136     0.25728
 Zero-point vibrational energy     840239.1 (Joules/Mol)
                                  200.82196 (Kcal/Mol)
 Warning -- explicit consideration of  26 degrees of freedom as
           vibrations may cause significant error
 Vibrational temperatures:     36.48    63.48    93.22   111.49   119.59
          (Kelvin)            156.86   179.20   187.61   270.80   290.85
                              323.05   328.63   356.22   372.01   390.92
                              415.02   487.55   495.85   559.95   579.99
                              601.06   656.18   704.20   721.38   790.00
                              844.48   953.88   984.27  1036.89  1105.36
                             1152.54  1161.84  1210.01  1269.68  1291.19
                             1315.44  1329.43  1356.38  1378.49  1399.40
                             1449.84  1480.57  1498.12  1516.11  1534.56
                             1561.36  1567.06  1584.28  1616.41  1647.21
                             1655.18  1694.10  1779.63  1795.95  1847.18
                             1874.42  1907.15  1917.20  1936.72  1951.50
                             1962.65  1975.78  1979.95  2022.42  2026.87
                             2062.76  2071.40  2115.58  2127.56  2171.85
                             2184.69  2191.73  2195.20  2196.25  2205.91
                             2214.49  2242.12  2373.81  2439.17  2453.56
                             3830.16  4366.38  4378.10  4382.38  4388.77
                             4391.04  4408.41  4430.84  4443.75  4453.70
                             4477.56  4483.00  4484.69  4486.53  4492.09
                             4516.95  4519.37  4562.39  4564.06  4591.45
                             4673.88  4680.39

 Zero-point correction=                           0.320030 (Hartree/Particle)
 Thermal correction to Energy=                    0.337314
 Thermal correction to Enthalpy=                  0.338258
 Thermal correction to Gibbs Free Energy=         0.274528
 Sum of electronic and zero-point Energies=           -906.516687
 Sum of electronic and thermal Energies=              -906.499403
 Sum of electronic and thermal Enthalpies=            -906.498459
 Sum of electronic and thermal Free Energies=         -906.562189

                     E (Thermal)             CV                S
                      KCal/Mol        Cal/Mol-Kelvin    Cal/Mol-Kelvin
 Total                  211.668             64.125            134.132
 Electronic               0.000              0.000              0.000
 Translational            0.889              2.981             41.932
 Rotational               0.889              2.981             32.654
 Vibrational            209.890             58.164             59.547
 Vibration     1          0.593              1.985              6.163
 Vibration     2          0.595              1.980              5.065
 Vibration     3          0.597              1.971              4.306
 Vibration     4          0.599              1.964              3.954
 Vibration     5          0.600              1.961              3.816
 Vibration     6          0.606              1.942              3.286
 Vibration     7          0.610              1.928              3.028
 Vibration     8          0.612              1.923              2.940
 Vibration     9          0.633              1.856              2.245
 Vibration    10          0.639              1.837              2.113
 Vibration    11          0.649              1.804              1.922
 Vibration    12          0.651              1.798              1.891
 Vibration    13          0.661              1.767              1.748
 Vibration    14          0.667              1.748              1.671
 Vibration    15          0.675              1.725              1.585
 Vibration    16          0.685              1.695              1.483
 Vibration    17          0.719              1.598              1.217
 Vibration    18          0.723              1.586              1.191
 Vibration    19          0.757              1.493              1.003
 Vibration    20          0.769              1.463              0.951
 Vibration    21          0.781              1.432              0.900
 Vibration    22          0.814              1.347              0.778
 Vibration    23          0.845              1.273              0.685
 Vibration    24          0.857              1.247              0.655
 Vibration    25          0.904              1.142              0.546
 Vibration    26          0.944              1.060              0.473

 Optimization completed.
    -- Stationary point found.
 Normal termination of Gaussian 16 at Thu Dec 10 10:35:14 2020.

 ----------------------------------------------------------------------
 # B3LYP/6-311++G(d,p) empiricaldispersion=gd3bj scf=xqc pop=npa geom=c
 heck
 ----------------------------------------------------------------------

 ---------------------------------------
 CID_143329966_JID_4659_Energie_neutraal
 ---------------------------------------
 Structure from the checkpoint file:  "JID_4659.chk"
 Charge =  0 Multiplicity = 1

 SCF Done:  E(RB3LYP) =  -907.007254304     A.U. after   14 cycles
 Normal termination of Gaussian 16 at Thu Dec 10 10:43:11 2020.

 ----------------------------------------------------------------------
 # B3LYP/6-311++G(d,p) empiricaldispersion=gd3bj scf=xqc pop=npa geom=c
 heck
 ----------------------------------------------------------------------

 -------------------------------------
 CID_143329966_JID_4659_Energie_kation
 -------------------------------------
 Structure from the checkpoint file:  "JID_4659.chk"
 Charge =  1 Multiplicity = 2

 SCF Done:  E(UB3LYP) =  -906.729274117     A.U. after   24 cycles
 Normal termination of Gaussian 16 at Thu Dec 10 11:03:47 2020.
 Gaussian 16:  ES64L-G16RevA.03 25-Dec-2016

 ----------------------------------------------------------------------
 # B3LYP/6-311++G(d,p) empiricaldispersion=gd3bj scf=xqc pop=npa geom=c
 heck
 ----------------------------------------------------------------------

 ------------------------------------
 CID_143329966_JID_4659_Energie_anion
 ------------------------------------
 Structure from the checkpoint file:  "JID_4659.chk"
 Charge = -1 Multiplicity = 2

                         Standard orientation:
 ---------------------------------------------------------------------
 Center     Atomic      Atomic             Coordinates (Angstroms)
 Number     Number       Type             X           Y           Z
 ---------------------------------------------------------------------
      1          6           0        3.937454   -1.673563   -0.301049
      2          6           0        2.860332   -1.090071    0.628716
      3          6           0        2.172133    0.120405    0.027526
      4          6           0        0.958629    0.017950   -0.585058
      5          6           0        0.228498   -1.309128   -0.724028
      6          6           0       -0.629311   -1.690195    0.504293
      7          6           0       -1.663456   -0.639610    0.938116
      8          6           0       -2.711863   -0.281639   -0.123436
      9          6           0       -3.555748   -1.471639   -0.579204
     10         16           0       -3.771825    1.124137    0.450857
     11          6           0        0.239339    1.162038   -1.175541
     12          6           0        0.013521    2.353740   -0.607429
     13          6           0        2.925447    1.378842    0.036858
     14          6           0        4.033062    1.642417    0.747527
     15          1           0        3.490539   -2.026938   -1.237147
     16          1           0        4.449201   -2.518833    0.172638
     17          1           0        4.685204   -0.916187   -0.554118
     18          1           0        2.134886   -1.867895    0.874659
     19          1           0        3.321181   -0.806379    1.582174
     20          1           0       -0.419169   -1.261213   -1.608709
     21          1           0        0.934931   -2.123797   -0.915903
     22          1           0       -1.123879   -2.648051    0.298541
     23          1           0        0.035944   -1.868314    1.357671
     24          1           0       -2.185002   -1.012172    1.830765
     25          1           0       -1.145864    0.276110    1.237751
     26          1           0       -2.208191    0.157439   -0.989581
     27          1           0       -4.077275   -1.927849    0.271093
     28          1           0       -4.305864   -1.163576   -1.312299
     29          1           0       -2.925356   -2.243555   -1.036758
     30          1           0       -4.328645    0.471066    1.495676
     31          1           0       -0.201223    0.970870   -2.156761
     32          1           0       -0.555209    3.124473   -1.119329
     33          1           0        0.367242    2.586279    0.392621
     34          1           0        2.548751    2.156671   -0.621257
     35          1           0        4.533731    2.601568    0.656199
     36          1           0        4.475030    0.936813    1.444600
 ---------------------------------------------------------------------

 SCF Done:  E(UB3LYP) =  -907.005277080     A.U. after   30 cycles

 The electronic state is 2-A.
 Alpha  occ. eigenvalues --  -88.74128 -10.10484 -10.06899 -10.06102 -10.05492
 Alpha  occ. eigenvalues --  -10.04750 -10.04362 -10.04308 -10.04237 -10.03275
 Alpha  occ. eigenvalues --  -10.03236 -10.03107 -10.02884 -10.02034  -7.82819
 Alpha  occ. eigenvalues --   -5.79199  -5.78840  -5.78201  -0.72597  -0.70537
 Alpha  occ. eigenvalues --   -0.66265  -0.64493  -0.62075  -0.60543  -0.59637
 Alpha  occ. eigenvalues --   -0.56000  -0.52017  -0.49583  -0.47095  -0.44838
 Alpha  occ. eigenvalues --   -0.42726  -0.38204  -0.37145  -0.36223  -0.34594
 Alpha  occ. eigenvalues --   -0.33250  -0.32281  -0.31243  -0.30975  -0.30620
 Alpha  occ. eigenvalues --   -0.29829  -0.28712  -0.27872  -0.26459  -0.25992
 Alpha  occ. eigenvalues --   -0.25269  -0.24511  -0.24320  -0.23114  -0.22533
 Alpha  occ. eigenvalues --   -0.22343  -0.21285  -0.20482  -0.18851  -0.17060
 Alpha  occ. eigenvalues --   -0.14818  -0.14094  -0.08596   0.04475
 Alpha virt. eigenvalues --    0.06725   0.08033   0.08291   0.08615   0.09588
 Alpha virt. eigenvalues --    0.09726   0.09895   0.10430   0.10835   0.11632
 Alpha virt. eigenvalues --    0.11805   0.12186   0.12329   0.12684   0.12820

  Beta  occ. eigenvalues --  -88.74126 -10.10476 -10.06880 -10.06098 -10.05454
  Beta  occ. eigenvalues --  -10.04750 -10.04365 -10.04317 -10.04209 -10.03215
  Beta  occ. eigenvalues --  -10.03080 -10.02931 -10.02677 -10.01838  -7.82817
  Beta  occ. eigenvalues --   -5.79196  -5.78839  -5.78196  -0.72538  -0.70249
  Beta  occ. eigenvalues --   -0.66107  -0.64314  -0.61879  -0.60505  -0.59459
  Beta  occ. eigenvalues --   -0.55791  -0.51798  -0.49479  -0.46837  -0.44665
  Beta  occ. eigenvalues --   -0.42480  -0.38039  -0.37086  -0.36128  -0.34532
  Beta  occ. eigenvalues --   -0.33109  -0.32172  -0.31159  -0.30915  -0.30537
  Beta  occ. eigenvalues --   -0.29771  -0.28592  -0.27818  -0.26276  -0.25918
  Beta  occ. eigenvalues --   -0.25178  -0.24419  -0.24243  -0.23016  -0.22432
  Beta  occ. eigenvalues --   -0.22281  -0.21177  -0.20433  -0.18646  -0.16287
  Beta  occ. eigenvalues --   -0.14197  -0.13910  -0.07292
  Beta virt. eigenvalues --    0.06738   0.07777   0.08357   0.08705   0.09175
  Beta virt. eigenvalues --    0.09618   0.09880   0.10151   0.10509   0.10932
  Beta virt. eigenvalues --    0.11686   0.11833   0.12333   0.12449   0.12838

 Mulliken charges and spin densities:
               1          2
     1  C   -0.081531  -0.625667
     2  C   -0.691742   0.352884
     3  C    0.538278  -0.001211
     4  C    0.911084   0.079883
     5  C   -0.784051   0.210262
     6  C    0.392258  -0.805248
     7  C   -0.356428  -0.115406
     8  C    0.421872   0.266716
     9  C   -0.197766  -0.603315
    10  S   -0.221879  -0.007095
    11  C   -0.261242  -0.096591
    12  C   -0.627421   0.048606
    13  C   -0.054513  -0.046836
    14  C   -0.620366   0.083217
    15  H    0.083899   0.047956
    16  H   -0.130753   0.240920
    17  H    0.153027  -0.003817
    18  H   -0.163706   0.274617
    19  H    0.060571   0.066549
    20  H    0.006318   0.170789
    21  H   -0.136383   0.318297
    22  H   -0.365100   0.506243
    23  H    0.124315   0.010875
    24  H    0.116920   0.070119
    25  H    0.113975   0.001192
    26  H    0.214662  -0.018752
    27  H    0.032032   0.114724
    28  H    0.029532   0.103524
    29  H   -0.063218   0.206626
    30  H    0.000849   0.002388
    31  H    0.036061   0.121739
    32  H    0.065287   0.021048
    33  H    0.122979  -0.005043
    34  H    0.156354   0.012179
    35  H    0.095301  -0.007205
    36  H    0.080523   0.004831
 Sum of Mulliken charges =  -1.00000   1.00000

 Dipole moment (field-independent basis, Debye):
    X=             -3.6772    Y=              0.6631    Z=              0.6324  Tot=              3.7897
 Quadrupole moment (field-independent basis, Debye-Ang):
   XX=           -155.3763   YY=           -138.9749   ZZ=           -115.3309
   XY=             -0.2159   XZ=             -5.0885   YZ=             -1.8515

 Summary of Natural Population Analysis:

                                       Natural Population
                Natural  -----------------------------------------------
    Atom  No    Charge         Core      Valence    Rydberg      Total
 -----------------------------------------------------------------------
      C    1   -0.28166      0.99966     2.27657    0.00543     3.28166
      C    2   -0.20353      0.99961     2.19459    0.00932     3.20353
      C    3    0.00408      0.99942     1.98587    0.01064     2.99592
      C    4    0.00616      0.99943     1.98247    0.01193     2.99384
      C    5   -0.20180      0.99960     2.19242    0.00977     3.20180
      C    6   -0.18416      0.99961     2.17539    0.00915     3.18416
      C    7   -0.19642      0.99959     2.18645    0.01038     3.19642
      C    8   -0.16206      0.99956     2.15205    0.01045     3.16206
      C    9   -0.29095      0.99963     2.28451    0.00681     3.29095
      S   10   -0.02702      4.99965     3.01335    0.01402     8.02702
      C   11   -0.11111      0.99955     2.09979    0.01177     3.11111
      C   12   -0.15029      0.99957     2.14375    0.00697     3.15029
      C   13   -0.09796      0.99955     2.08946    0.00895     3.09796
      C   14   -0.17437      0.99959     2.16702    0.00776     3.17437
      H   15    0.09502      0.00000     0.40416    0.00082     0.40498
      H   16    0.09136      0.00000     0.40778    0.00086     0.40864
      H   17    0.09962      0.00000     0.39948    0.00090     0.40038
      H   18    0.09902      0.00000     0.39948    0.00150     0.40098
      H   19    0.09756      0.00000     0.40110    0.00134     0.40244
      H   20    0.09565      0.00000     0.40305    0.00130     0.40435
      H   21    0.10550      0.00000     0.39311    0.00139     0.39450
      H   22    0.09358      0.00000     0.40476    0.00167     0.40642
      H   23    0.09813      0.00000     0.40078    0.00109     0.40187
      H   24    0.09197      0.00000     0.40711    0.00092     0.40803
      H   25    0.11150      0.00000     0.38721    0.00129     0.38850
      H   26    0.11165      0.00000     0.38630    0.00204     0.38835
      H   27    0.09481      0.00000     0.40432    0.00087     0.40519
      H   28    0.10149      0.00000     0.39757    0.00095     0.39851
      H   29    0.10460      0.00000     0.39433    0.00108     0.39540
      H   30    0.04986      0.00000     0.44741    0.00273     0.45014
      H   31    0.08894      0.00000     0.40968    0.00138     0.41106
      H   32    0.08528      0.00000     0.41346    0.00126     0.41472
      H   33    0.09062      0.00000     0.40829    0.00109     0.40938
      H   34    0.09819      0.00000     0.39984    0.00197     0.40181
      H   35    0.08436      0.00000     0.41458    0.00106     0.41564
      H   36    0.08238      0.00000     0.41650    0.00112     0.41762
 =======================================================================
   * Total *   -0.00000     17.99403    39.84400    0.16198    58.00000

 Normal termination of Gaussian 16 at Thu Dec 10 11:22:42 2020.
