 Gaussian 16, Revision A.03,

 -----------------------------------------------------------
 # opt freq B3LYP/6-31G(d) empiricaldispersion=gd3bj scf=xqc
 -----------------------------------------------------------

 -------------------------------
 CID_117216663_JID_3230_neutraal
 -------------------------------
 Symbolic Z-matrix:
 Charge =  0 Multiplicity = 1

 SCF Done:  E(RB3LYP) =  -647.266481147     A.U. after   15 cycles
 SCF Done:  E(RB3LYP) =  -647.271086094     A.U. after   12 cycles
 SCF Done:  E(RB3LYP) =  -647.271673334     A.U. after   12 cycles
 SCF Done:  E(RB3LYP) =  -647.271800485     A.U. after   12 cycles
 SCF Done:  E(RB3LYP) =  -647.271885607     A.U. after   12 cycles
 SCF Done:  E(RB3LYP) =  -647.271924729     A.U. after   11 cycles
 SCF Done:  E(RB3LYP) =  -647.271946604     A.U. after   11 cycles
 SCF Done:  E(RB3LYP) =  -647.271962628     A.U. after   10 cycles
 SCF Done:  E(RB3LYP) =  -647.271966307     A.U. after    9 cycles
 SCF Done:  E(RB3LYP) =  -647.271969060     A.U. after    8 cycles
 SCF Done:  E(RB3LYP) =  -647.271972273     A.U. after    9 cycles
 SCF Done:  E(RB3LYP) =  -647.271973980     A.U. after    8 cycles
 SCF Done:  E(RB3LYP) =  -647.271974328     A.U. after    7 cycles
 SCF Done:  E(RB3LYP) =  -647.271974485     A.U. after    8 cycles
 Optimization completed.
    -- Stationary point found.
 Normal termination of Gaussian 16 at Sun Dec 13 16:01:44 2020.

 --------------------------------------------------------------------
 #N Geom=AllCheck Guess=TCheck SCRF=Check GenChk RB3LYP/6-31G(d) Freq
 --------------------------------------------------------------------

 Structure from the checkpoint file:  "JID_3230.chk"
 -------------------------------
 CID_117216663_JID_3230_neutraal
 -------------------------------
 Charge =  0 Multiplicity = 1

 SCF Done:  E(RB3LYP) =  -647.271974485     A.U. after    1 cycles

  Exact polarizability: 126.932   2.953 112.358  10.702  -0.174  72.803
 Approx polarizability: 169.905   0.584 191.200  23.079  -2.859 109.980

                      1                      2                      3
                      A                      A                      A
 Frequencies --     26.0584                34.5256                55.6506
 Red. masses --      3.5648                 3.5662                 9.2987
 Frc consts  --      0.0014                 0.0025                 0.0170
 IR Inten    --      0.8714                 0.6270                 0.4486

                      4                      5                      6
                      A                      A                      A
 Frequencies --     84.4105               132.8989               140.8756
 Red. masses --      2.9286                 3.3883                 1.6832
 Frc consts  --      0.0123                 0.0353                 0.0197
 IR Inten    --      0.3836                 2.1546                 0.9724

                      7                      8                      9
                      A                      A                      A
 Frequencies --    158.8962               206.0691               234.2837
 Red. masses --      1.7886                 2.3949                 3.1999
 Frc consts  --      0.0266                 0.0599                 0.1035
 IR Inten    --      0.8558                 4.3880                 3.4311

                     10                     11                     12
                      A                      A                      A
 Frequencies --    248.7728               314.8471               337.0920
 Red. masses --      2.0722                 2.1993                 3.0096
 Frc consts  --      0.0756                 0.1285                 0.2015
 IR Inten    --      0.6550                 8.3827                 2.3681

                     13                     14                     15
                      A                      A                      A
 Frequencies --    360.9470               418.2010               451.4896
 Red. masses --      3.9664                 4.8450                 3.1050
 Frc consts  --      0.3045                 0.4992                 0.3729
 IR Inten    --      3.7115                 7.3735                 2.6499

                     16                     17                     18
                      A                      A                      A
 Frequencies --    484.7137               544.5977               584.3871
 Red. masses --      3.6875                 3.7780                 1.6515
 Frc consts  --      0.5105                 0.6602                 0.3323
 IR Inten    --      8.3493                 8.6314                47.2953

                     19                     20                     21
                      A                      A                      A
 Frequencies --    636.6583               664.7124               706.7055
 Red. masses --      3.3893                 4.4374                 3.9982
 Frc consts  --      0.8094                 1.1552                 1.1765
 IR Inten    --     38.4092                 9.2187                49.2828

                     22                     23                     24
                      A                      A                      A
 Frequencies --    730.7271               769.8927               808.7693
 Red. masses --      4.0888                 7.0884                 1.2207
 Frc consts  --      1.2863                 2.4755                 0.4704
 IR Inten    --     34.4319                15.2127                13.9787

                     25                     26                     27
                      A                      A                      A
 Frequencies --    817.0697               854.4840               874.5859
 Red. masses --      3.3636                 2.5009                 1.5029
 Frc consts  --      1.3230                 1.0759                 0.6773
 IR Inten    --     18.6847                11.4354                15.4135

                     28                     29                     30
                      A                      A                      A
 Frequencies --    990.9408              1012.3350              1034.0616
 Red. masses --      2.8865                 1.8055                 2.5806
 Frc consts  --      1.6700                 1.0902                 1.6258
 IR Inten    --     15.8035                 7.5350                34.7536

                     31                     32                     33
                      A                      A                      A
 Frequencies --   1084.1226              1101.2537              1136.8889
 Red. masses --      3.8020                 2.6277                 3.6862
 Frc consts  --      2.6328                 1.8776                 2.8072
 IR Inten    --     86.8553                10.6709               187.2687

                     34                     35                     36
                      A                      A                      A
 Frequencies --   1150.9320              1160.2365              1207.3541
 Red. masses --      3.0316                 1.2977                 1.6935
 Frc consts  --      2.3660                 1.0292                 1.4545
 IR Inten    --     92.2704                 0.0677                21.5281

                     37                     38                     39
                      A                      A                      A
 Frequencies --   1217.7554              1233.1553              1309.1422
 Red. masses --      1.7346                 1.9326                 1.2420
 Frc consts  --      1.5156                 1.7315                 1.2542
 IR Inten    --     59.6853               138.7512                 8.4931

                     40                     41                     42
                      A                      A                      A
 Frequencies --   1342.9803              1350.3147              1372.8979
 Red. masses --      3.6089                 1.1695                 3.7063
 Frc consts  --      3.8350                 1.2564                 4.1159
 IR Inten    --     22.1670                 2.0513                 8.1421

                     43                     44                     45
                      A                      A                      A
 Frequencies --   1401.5365              1409.1317              1426.5534
 Red. masses --      2.2092                 1.4396                 1.6968
 Frc consts  --      2.5568                 1.6842                 2.0345
 IR Inten    --     39.3592                19.2431                42.2893

                     46                     47                     48
                      A                      A                      A
 Frequencies --   1438.8572              1443.5153              1482.0059
 Red. masses --      1.7926                 1.6072                 1.3880
 Frc consts  --      2.1867                 1.9732                 1.7961
 IR Inten    --      4.7087                43.2596                 3.1634

                     49                     50                     51
                      A                      A                      A
 Frequencies --   1509.1879              1511.4650              1511.7066
 Red. masses --      3.2680                 1.0535                 1.1262
 Frc consts  --      4.3855                 1.4181                 1.5163
 IR Inten    --     61.2658                 5.4459                12.6242

                     52                     53                     54
                      A                      A                      A
 Frequencies --   1523.2027              1528.8897              1530.2339
 Red. masses --      1.0574                 1.0763                 1.1323
 Frc consts  --      1.4455                 1.4823                 1.5622
 IR Inten    --      1.9513                 7.2286                13.2165

                     55                     56                     57
                      A                      A                      A
 Frequencies --   1541.9484              1601.2791              1821.4814
 Red. masses --      1.0772                 7.0362                 9.5439
 Frc consts  --      1.5090                10.6297                18.6563
 IR Inten    --      2.0650                36.8966               286.6707

                     58                     59                     60
                      A                      A                      A
 Frequencies --   3019.2463              3026.4839              3054.3374
 Red. masses --      1.0684                 1.0708                 1.0365
 Frc consts  --      5.7384                 5.7786                 5.6972
 IR Inten    --     69.6497                17.9131                24.8688

                     61                     62                     63
                      A                      A                      A
 Frequencies --   3091.7655              3094.8492              3120.1434
 Red. masses --      1.0322                 1.0956                 1.1003
 Frc consts  --      5.8134                 6.1827                 6.3112
 IR Inten    --     28.5304                10.5018                53.0812

                     64                     65                     66
                      A                      A                      A
 Frequencies --   3131.0289              3151.1191              3162.8500
 Red. masses --      1.1036                 1.0924                 1.1060
 Frc consts  --      6.3746                 6.3907                 6.5190
 IR Inten    --     38.0878                 6.8189                10.7692

                     67                     68                     69
                      A                      A                      A
 Frequencies --   3199.0231              3256.7218              3690.2656
 Red. masses --      1.1055                 1.0964                 1.0640
 Frc consts  --      6.6659                 6.8513                 8.5374
 IR Inten    --      2.7125                 5.6716                81.5099

 - Thermochemistry -
 -------------------
 Temperature   298.150 Kelvin.  Pressure   1.00000 Atm.
 Atom     1 has atomic number  6 and mass  12.00000

 Molecular mass:   184.08479 amu.
 Principal axes and moments of inertia in atomic units:
                           1         2         3
     Eigenvalues --  1473.177543139.617504141.55438
           X            0.99999   0.00387   0.00168
           Y           -0.00386   0.99998  -0.00514
           Z           -0.00170   0.00513   0.99999
 This molecule is an asymmetric top.
 Rotational symmetry number  1.
 Warning -- assumption of classical behavior for rotation
           may cause significant error
 Rotational temperatures (Kelvin)      0.05879     0.02759     0.02091
 Rotational constants (GHZ):           1.22507     0.57483     0.43576
 Zero-point vibrational energy     538711.4 (Joules/Mol)
                                  128.75513 (Kcal/Mol)
 Warning -- explicit consideration of  18 degrees of freedom as
           vibrations may cause significant error
 Vibrational temperatures:     37.49    49.67    80.07   121.45   191.21
          (Kelvin)            202.69   228.62   296.49   337.08   357.93
                              452.99   485.00   519.32   601.70   649.59
                              697.39   783.55   840.80   916.01   956.37
                             1016.79  1051.35  1107.70  1163.64  1175.58
                             1229.41  1258.33  1425.74  1456.52  1487.78
                             1559.81  1584.46  1635.73  1655.93  1669.32
                             1737.11  1752.08  1774.24  1883.56  1932.25
                             1942.80  1975.29  2016.50  2027.43  2052.49
                             2070.19  2076.90  2132.28  2171.38  2174.66
                             2175.01  2191.55  2199.73  2201.67  2218.52
                             2303.88  2620.71  4344.02  4354.44  4394.51
                             4448.36  4452.80  4489.19  4504.85  4533.76
                             4550.64  4602.68  4685.70  5309.47

 Zero-point correction=                           0.205184 (Hartree/Particle)
 Thermal correction to Energy=                    0.218365
 Thermal correction to Enthalpy=                  0.219309
 Thermal correction to Gibbs Free Energy=         0.163655
 Sum of electronic and zero-point Energies=           -647.066790
 Sum of electronic and thermal Energies=              -647.053610
 Sum of electronic and thermal Enthalpies=            -647.052666
 Sum of electronic and thermal Free Energies=         -647.108319

                     E (Thermal)             CV                S
                      KCal/Mol        Cal/Mol-Kelvin    Cal/Mol-Kelvin
 Total                  137.026             47.174            117.133
 Electronic               0.000              0.000              0.000
 Translational            0.889              2.981             41.537
 Rotational               0.889              2.981             31.327
 Vibrational            135.249             41.212             44.268
 Vibration     1          0.593              1.985              6.109
 Vibration     2          0.594              1.983              5.551
 Vibration     3          0.596              1.975              4.606
 Vibration     4          0.601              1.960              3.786
 Vibration     5          0.613              1.920              2.904
 Vibration     6          0.615              1.912              2.792
 Vibration     7          0.621              1.893              2.563
 Vibration     8          0.641              1.831              2.078
 Vibration     9          0.654              1.788              1.846
 Vibration    10          0.662              1.765              1.739
 Vibration    11          0.702              1.645              1.337
 Vibration    12          0.718              1.601              1.226
 Vibration    13          0.735              1.553              1.118
 Vibration    14          0.781              1.431              0.898
 Vibration    15          0.810              1.358              0.791
 Vibration    16          0.841              1.284              0.697
 Vibration    17          0.900              1.152              0.555
 Vibration    18          0.941              1.065              0.477

                           ! Non-Optimized Parameters !
 Normal termination of Gaussian 16 at Sun Dec 13 16:07:37 2020.

 ----------------------------------------------------------------------
 # B3LYP/6-311++G(d,p) empiricaldispersion=gd3bj scf=xqc pop=npa geom=c
 heck
 ----------------------------------------------------------------------

 ---------------------------------------
 CID_117216663_JID_3230_Energie_neutraal
 ---------------------------------------
 Structure from the checkpoint file:  "JID_3230.chk"
 Charge =  0 Multiplicity = 1

 SCF Done:  E(RB3LYP) =  -647.463658061     A.U. after   15 cycles
 Normal termination of Gaussian 16 at Sun Dec 13 16:10:10 2020.

 ----------------------------------------------------------------------
 # B3LYP/6-311++G(d,p) empiricaldispersion=gd3bj scf=xqc pop=npa geom=c
 heck
 ----------------------------------------------------------------------

 -------------------------------------
 CID_117216663_JID_3230_Energie_kation
 -------------------------------------
 Structure from the checkpoint file:  "JID_3230.chk"
 Charge =  1 Multiplicity = 2

 SCF Done:  E(UB3LYP) =  -647.130026137     A.U. after   33 cycles
 SCF Done:  E(UB3LYP) =  -647.133427511     a.u. after   15 cycles
 Normal termination of Gaussian 16 at Sun Dec 13 17:27:29 2020.
 Gaussian 16:  ES64L-G16RevA.03 25-Dec-2016

 ----------------------------------------------------------------------
 # B3LYP/6-311++G(d,p) empiricaldispersion=gd3bj scf=xqc pop=npa geom=c
 heck
 ----------------------------------------------------------------------

 ------------------------------------
 CID_117216663_JID_3230_Energie_anion
 ------------------------------------
 Structure from the checkpoint file:  "JID_3230.chk"
 Charge = -1 Multiplicity = 2

                         Standard orientation:
 ---------------------------------------------------------------------
 Center     Atomic      Atomic             Coordinates (Angstroms)
 Number     Number       Type             X           Y           Z
 ---------------------------------------------------------------------
      1          6           0       -3.948412   -0.515696    0.448627
      2          6           0       -2.714963    0.186717    1.012373
      3          8           0       -2.116153    1.107957    0.109780
      4          6           0       -1.474577    0.527277   -1.021550
      5          6           0       -0.317528   -0.359136   -0.658883
      6          6           0        0.947564    0.019792   -0.198230
      7          7           0        1.634727   -1.140248    0.062633
      8          7           0        0.895124   -2.229430   -0.201068
      9          6           0       -0.282972   -1.763502   -0.630633
     10          6           0        2.994962   -1.335316    0.546189
     11          6           0        1.461691    1.384342   -0.057007
     12          8           0        0.876841    2.379734   -0.431248
     13          8           0        2.684370    1.447649    0.539995
     14          1           0       -4.670975    0.219414    0.079057
     15          1           0       -4.429711   -1.114269    1.230596
     16          1           0       -3.697305   -1.192546   -0.375237
     17          1           0       -2.995408    0.793769    1.879003
     18          1           0       -1.977251   -0.555086    1.353173
     19          1           0       -2.186968   -0.049643   -1.628434
     20          1           0       -1.129462    1.378388   -1.609152
     21          1           0       -1.065091   -2.457598   -0.909449
     22          1           0        3.114757   -0.899105    1.539627
     23          1           0        3.151902   -2.412459    0.582320
     24          1           0        3.713517   -0.869668   -0.131188
     25          1           0        2.907976    2.396963    0.565207
 ---------------------------------------------------------------------

 SCF Done:  E(UB3LYP) =  -647.461672958     A.U. after   33 cycles
 SCF Done:  E(UB3LYP) =  -647.461672958     a.u. after    1 cycles

 The electronic state is 2-A.
 Alpha  occ. eigenvalues --  -19.01625 -18.98611 -18.93503 -14.23134 -14.17417
 Alpha  occ. eigenvalues --  -10.12240 -10.08946 -10.07884 -10.07874 -10.04925
 Alpha  occ. eigenvalues --  -10.04826 -10.04265 -10.01547  -0.95189  -0.90191
 Alpha  occ. eigenvalues --   -0.89655  -0.85468  -0.69655  -0.65624  -0.63385
 Alpha  occ. eigenvalues --   -0.58504  -0.54390  -0.51207  -0.47774  -0.44194
 Alpha  occ. eigenvalues --   -0.41353  -0.38639  -0.36353  -0.35520  -0.34314
 Alpha  occ. eigenvalues --   -0.33510  -0.31760  -0.30193  -0.29570  -0.29391
 Alpha  occ. eigenvalues --   -0.28707  -0.27585  -0.26528  -0.25575  -0.24514
 Alpha  occ. eigenvalues --   -0.23765  -0.23465  -0.18425  -0.17761  -0.15068
 Alpha  occ. eigenvalues --   -0.12828  -0.12189  -0.11447  -0.10677   0.05774
 Alpha virt. eigenvalues --    0.07484   0.08674   0.10033   0.10252   0.10604
 Alpha virt. eigenvalues --    0.11355   0.12440   0.12893   0.13364   0.13955
 Alpha virt. eigenvalues --    0.14768   0.15292   0.15675   0.16869   0.17859

  Beta  occ. eigenvalues --  -19.01517 -18.98576 -18.93120 -14.22727 -14.17127
  Beta  occ. eigenvalues --  -10.11883 -10.08936 -10.07895 -10.07893 -10.04830
  Beta  occ. eigenvalues --  -10.04803 -10.04362 -10.01376  -0.94785  -0.89796
  Beta  occ. eigenvalues --   -0.89417  -0.84876  -0.69279  -0.65244  -0.63242
  Beta  occ. eigenvalues --   -0.58329  -0.54317  -0.50564  -0.47622  -0.44014
  Beta  occ. eigenvalues --   -0.41093  -0.38385  -0.36224  -0.35450  -0.33558
  Beta  occ. eigenvalues --   -0.33145  -0.31587  -0.30097  -0.29328  -0.28716
  Beta  occ. eigenvalues --   -0.27894  -0.27490  -0.26425  -0.24880  -0.24219
  Beta  occ. eigenvalues --   -0.23649  -0.23371  -0.18298  -0.16204  -0.14745
  Beta  occ. eigenvalues --   -0.12719  -0.11814  -0.10265  -0.09008
  Beta virt. eigenvalues --    0.07873   0.08640   0.10067   0.10235   0.10677
  Beta virt. eigenvalues --    0.11342   0.11774   0.12680   0.13032   0.13386
  Beta virt. eigenvalues --    0.13926   0.14745   0.15249   0.15658   0.17183

 Mulliken charges and spin densities:
               1          2
     1  C    0.419074  -0.822409
     2  C   -0.578544   0.303621
     3  O   -0.022286  -0.010855
     4  C   -0.705578  -0.140980
     5  C    0.623946   0.318603
     6  C   -0.437725   0.096375
     7  N    0.077652   0.087440
     8  N   -0.157602   0.181051
     9  C   -0.222886  -0.206750
    10  C   -0.294108  -0.034233
    11  C    0.070439   0.158434
    12  O   -0.422131   0.129227
    13  O   -0.273644   0.016076
    14  H    0.023390   0.120047
    15  H   -0.205446   0.321415
    16  H   -0.087609   0.206687
    17  H   -0.066391   0.211510
    18  H    0.213346  -0.056800
    19  H    0.099333   0.023765
    20  H    0.192130  -0.004343
    21  H    0.078054   0.042609
    22  H    0.160994   0.008488
    23  H    0.129704   0.003894
    24  H    0.123957   0.043552
    25  H    0.261930   0.003576
 Sum of Mulliken charges =  -1.00000   1.00000

 Dipole moment (field-independent basis, Debye):
    X=              2.5358    Y=             -0.7895    Z=              0.5789  Tot=              2.7182
 Quadrupole moment (field-independent basis, Debye-Ang):
   XX=           -110.2447   YY=           -108.6892   ZZ=            -87.1998
   XY=              2.9866   XZ=              6.0209   YZ=              1.6010

 Summary of Natural Population Analysis:

                                       Natural Population
                Natural  -----------------------------------------------
    Atom  No    Charge         Core      Valence    Rydberg      Total
 -----------------------------------------------------------------------
      C    1   -0.30304      0.99967     2.29796    0.00540     3.30304
      C    2   -0.01507      0.99960     2.00144    0.01404     3.01507
      O    3   -0.29450      0.99989     3.28479    0.00982     4.29450
      C    4   -0.02079      0.99953     2.00840    0.01286     3.02079
      C    5   -0.04358      0.99947     2.03534    0.00877     3.04358
      C    6    0.04182      0.99942     1.94620    0.01256     2.95818
      N    7   -0.04733      0.99964     2.53516    0.01254     3.54733
      N    8   -0.12359      0.99974     2.61043    0.01342     3.62359
      C    9   -0.04995      0.99958     2.03491    0.01546     3.04995
      C   10   -0.17383      0.99966     2.16786    0.00631     3.17383
      C   11    0.42528      0.99966     1.55179    0.02327     2.57472
      O   12   -0.28832      0.99987     3.28187    0.00659     4.28832
      O   13   -0.35698      0.99988     3.35084    0.00626     4.35698
      H   14    0.09647      0.00000     0.40214    0.00139     0.40353
      H   15    0.09686      0.00000     0.40170    0.00144     0.40314
      H   16    0.09625      0.00000     0.40256    0.00119     0.40375
      H   17    0.08295      0.00000     0.41571    0.00134     0.41705
      H   18    0.08454      0.00000     0.41391    0.00156     0.41546
      H   19    0.07366      0.00000     0.42474    0.00160     0.42634
      H   20    0.10619      0.00000     0.39235    0.00147     0.39381
      H   21    0.08977      0.00000     0.40868    0.00155     0.41023
      H   22    0.09770      0.00000     0.40117    0.00112     0.40230
      H   23    0.10009      0.00000     0.39898    0.00094     0.39991
      H   24    0.09705      0.00000     0.40136    0.00159     0.40295
      H   25    0.22838      0.00000     0.26634    0.00528     0.27162
 =======================================================================
   * Total *   -0.00000     12.99560    35.83665    0.16775    49.00000

 Normal termination of Gaussian 16 at Sun Dec 13 17:34:41 2020.
