 Gaussian 16, Revision A.03,

 -----------------------------------------------------------
 # opt freq B3LYP/6-31G(d) empiricaldispersion=gd3bj scf=xqc
 -----------------------------------------------------------

 ------------------------------
 CID_86049658_JID_5324_neutraal
 ------------------------------
 Symbolic Z-matrix:
 Charge =  0 Multiplicity = 1

 SCF Done:  E(RB3LYP) =  -666.501849464     A.U. after   15 cycles
 SCF Done:  E(RB3LYP) =  -666.505875511     A.U. after   13 cycles
 SCF Done:  E(RB3LYP) =  -666.506542334     A.U. after   14 cycles
 SCF Done:  E(RB3LYP) =  -666.509524409     A.U. after   13 cycles
 SCF Done:  E(RB3LYP) =  -666.511270019     A.U. after   13 cycles
 SCF Done:  E(RB3LYP) =  -666.512205222     A.U. after   13 cycles
 SCF Done:  E(RB3LYP) =  -666.512630863     A.U. after   12 cycles
 SCF Done:  E(RB3LYP) =  -666.512706031     A.U. after   12 cycles
 SCF Done:  E(RB3LYP) =  -666.512723403     A.U. after   11 cycles
 SCF Done:  E(RB3LYP) =  -666.512726186     A.U. after    9 cycles
 SCF Done:  E(RB3LYP) =  -666.512728678     A.U. after    9 cycles
 SCF Done:  E(RB3LYP) =  -666.512729745     A.U. after    8 cycles
 SCF Done:  E(RB3LYP) =  -666.512730426     A.U. after    8 cycles
 SCF Done:  E(RB3LYP) =  -666.512730570     A.U. after    7 cycles
 Optimization completed.
    -- Stationary point found.
 Normal termination of Gaussian 16 at Thu Dec 10 15:32:20 2020.

 --------------------------------------------------------------------
 #N Geom=AllCheck Guess=TCheck SCRF=Check GenChk RB3LYP/6-31G(d) Freq
 --------------------------------------------------------------------

 Structure from the checkpoint file:  "JID_5324.chk"
 ------------------------------
 CID_86049658_JID_5324_neutraal
 ------------------------------
 Charge =  0 Multiplicity = 1

 SCF Done:  E(RB3LYP) =  -666.512730570     A.U. after    1 cycles

  Exact polarizability: 179.289  -1.689 142.895   9.814   6.016  93.721
 Approx polarizability: 248.566   9.461 243.115  29.787  17.142 158.726

                      1                      2                      3
                      A                      A                      A
 Frequencies --     40.8269                48.5538                57.6313
 Red. masses --      4.5169                 4.0691                 4.0833
 Frc consts  --      0.0044                 0.0057                 0.0080
 IR Inten    --      0.8392                 0.7852                 6.0308

                      4                      5                      6
                      A                      A                      A
 Frequencies --     96.1442               132.6839               157.5435
 Red. masses --      4.2574                 2.9050                 5.7927
 Frc consts  --      0.0232                 0.0301                 0.0847
 IR Inten    --      2.7721                 0.2359                 2.6231

                      7                      8                      9
                      A                      A                      A
 Frequencies --    184.3070               214.4208               270.3915
 Red. masses --      5.4400                 4.4643                 5.2137
 Frc consts  --      0.1089                 0.1209                 0.2246
 IR Inten    --      4.4022                 1.6637                 1.3212

                     10                     11                     12
                      A                      A                      A
 Frequencies --    317.6143               347.5962               392.1385
 Red. masses --      1.9106                 4.7069                 3.7686
 Frc consts  --      0.1136                 0.3351                 0.3414
 IR Inten    --     22.7185                 4.2264                 2.5524

                     13                     14                     15
                      A                      A                      A
 Frequencies --    416.6470               430.4759               492.2461
 Red. masses --      2.4661                 1.8774                 3.9946
 Frc consts  --      0.2522                 0.2050                 0.5703
 IR Inten    --     17.2948                41.3297                 6.7254

                     16                     17                     18
                      A                      A                      A
 Frequencies --    546.3407               549.2001               578.3155
 Red. masses --      3.0872                 1.5437                 1.7983
 Frc consts  --      0.5429                 0.2743                 0.3544
 IR Inten    --      3.9076                63.5844                69.3881

                     19                     20                     21
                      A                      A                      A
 Frequencies --    630.4899               648.1658               668.2465
 Red. masses --      6.0318                 6.6264                 3.7316
 Frc consts  --      1.4127                 1.6402                 0.9818
 IR Inten    --      8.5541                13.0571                40.9758

                     22                     23                     24
                      A                      A                      A
 Frequencies --    700.3060               730.3157               750.1701
 Red. masses --      2.9580                 1.9954                 3.0167
 Frc consts  --      0.8547                 0.6271                 1.0002
 IR Inten    --     14.3710                14.3168                 3.3360

                     25                     26                     27
                      A                      A                      A
 Frequencies --    777.2295               796.5769               840.1994
 Red. masses --      2.5957                 2.1899                 2.0200
 Frc consts  --      0.9238                 0.8187                 0.8402
 IR Inten    --     47.0095                54.4999                 5.0340

                     28                     29                     30
                      A                      A                      A
 Frequencies --    855.5646               918.5503               921.7461
 Red. masses --      3.8182                 1.4721                 1.9838
 Frc consts  --      1.6467                 0.7318                 0.9931
 IR Inten    --      6.7938                 5.7673                27.5472

                     31                     32                     33
                      A                      A                      A
 Frequencies --    954.5540               975.9317               981.8125
 Red. masses --      1.3423                 1.6062                 1.9461
 Frc consts  --      0.7206                 0.9013                 1.1053
 IR Inten    --      1.7023                 1.3888                 0.5122

                     34                     35                     36
                      A                      A                      A
 Frequencies --    997.2784              1025.4155              1045.2344
 Red. masses --      1.3640                 2.8191                 3.9785
 Frc consts  --      0.7993                 1.7465                 2.5609
 IR Inten    --      1.2640                11.9498                22.6817

                     37                     38                     39
                      A                      A                      A
 Frequencies --   1068.2596              1115.8335              1141.7874
 Red. masses --      3.3505                 2.3769                 1.6916
 Frc consts  --      2.2528                 1.7437                 1.2993
 IR Inten    --      1.3815                27.9376                 7.8621

                     40                     41                     42
                      A                      A                      A
 Frequencies --   1151.3770              1155.7310              1193.7455
 Red. masses --      1.8417                 1.9112                 2.4467
 Frc consts  --      1.4385                 1.5041                 2.0543
 IR Inten    --      6.1082                47.0773                78.1303

                     43                     44                     45
                      A                      A                      A
 Frequencies --   1227.7686              1235.1587              1244.9563
 Red. masses --      1.3157                 1.4160                 1.2960
 Frc consts  --      1.1685                 1.2728                 1.1835
 IR Inten    --     27.2738                11.5211                 0.5599

                     46                     47                     48
                      A                      A                      A
 Frequencies --   1274.4260              1305.8495              1315.6538
 Red. masses --      1.3437                 7.0625                 1.2012
 Frc consts  --      1.2858                 7.0957                 1.2250
 IR Inten    --     99.0817                 0.5003                19.6190

                     49                     50                     51
                      A                      A                      A
 Frequencies --   1340.1949              1369.1645              1370.6593
 Red. masses --      2.7576                 1.4420                 1.3440
 Frc consts  --      2.9182                 1.5926                 1.4877
 IR Inten    --    235.0226                19.2105                40.1080

                     52                     53                     54
                      A                      A                      A
 Frequencies --   1399.6406              1422.0729              1459.8450
 Red. masses --      1.3959                 1.6223                 2.3890
 Frc consts  --      1.6111                 1.9329                 2.9997
 IR Inten    --      8.8397                83.8297                 8.2087

                     55                     56                     57
                      A                      A                      A
 Frequencies --   1475.2585              1505.9164              1513.2993
 Red. masses --      1.7246                 1.2001                 1.4834
 Frc consts  --      2.2115                 1.6035                 2.0016
 IR Inten    --     52.9509                 4.8428                41.6097

                     58                     59                     60
                      A                      A                      A
 Frequencies --   1517.7669              1525.3610              1551.6402
 Red. masses --      2.1637                 1.4062                 1.0952
 Frc consts  --      2.9367                 1.9278                 1.5536
 IR Inten    --      6.3328                43.0436                13.8582

                     61                     62                     63
                      A                      A                      A
 Frequencies --   1570.2760              1621.7149              1640.2179
 Red. masses --      1.9333                 5.0463                 5.7529
 Frc consts  --      2.8087                 7.8193                 9.1189
 IR Inten    --    124.5539                17.0888                36.6662

                     64                     65                     66
                      A                      A                      A
 Frequencies --   1674.6989              1699.8823              2984.3381
 Red. masses --      3.5003                 6.2440                 1.0735
 Frc consts  --      5.7841                10.6304                 5.6329
 IR Inten    --   1023.8601                35.0045                31.8637

                     67                     68                     69
                      A                      A                      A
 Frequencies --   2992.8274              3073.1134              3094.4221
 Red. masses --      1.0734                 1.0626                 1.0902
 Frc consts  --      5.6648                 5.9127                 6.1507
 IR Inten    --    134.9349                 9.0359                34.6733

                     70                     71                     72
                      A                      A                      A
 Frequencies --   3098.2284              3124.1841              3171.4940
 Red. masses --      1.0893                 1.1064                 1.0886
 Frc consts  --      6.1604                 6.3625                 6.4511
 IR Inten    --     43.5120                30.9282                23.0542

                     73                     74                     75
                      A                      A                      A
 Frequencies --   3184.6786              3195.7671              3199.4485
 Red. masses --      1.0877                 1.0904                 1.0897
 Frc consts  --      6.4994                 6.5615                 6.5720
 IR Inten    --     10.8100                12.7201                11.7500

                     76                     77                     78
                      A                      A                      A
 Frequencies --   3213.9529              3626.2612              3627.3612
 Red. masses --      1.0963                 1.0761                 1.0772
 Frc consts  --      6.6722                 8.3368                 8.3506
 IR Inten    --     12.8282                88.4283                11.4436

 - Thermochemistry -
 -------------------
 Temperature   298.150 Kelvin.  Pressure   1.00000 Atm.
 Atom     1 has atomic number  6 and mass  12.00000

 Molecular mass:   203.10586 amu.
 Principal axes and moments of inertia in atomic units:
                           1         2         3
     Eigenvalues --  1666.220014678.604845789.97444
           X            0.99999   0.00031  -0.00452
           Y           -0.00030   1.00000   0.00277
           Z            0.00452  -0.00277   0.99999
 This molecule is an asymmetric top.
 Rotational symmetry number  1.
 Warning -- assumption of classical behavior for rotation
           may cause significant error
 Rotational temperatures (Kelvin)      0.05198     0.01851     0.01496
 Rotational constants (GHZ):           1.08313     0.38574     0.31170
 Zero-point vibrational energy     611083.0 (Joules/Mol)
                                  146.05234 (Kcal/Mol)
 Warning -- explicit consideration of  18 degrees of freedom as
           vibrations may cause significant error
 Vibrational temperatures:     58.74    69.86    82.92   138.33   190.90
          (Kelvin)            226.67   265.18   308.50   389.03   456.98
                              500.11   564.20   599.46   619.36   708.23
                              786.06   790.18   832.07   907.13   932.57
                              961.46  1007.58  1050.76  1079.33  1118.26
                             1146.10  1208.86  1230.97  1321.59  1326.19
                             1373.39  1404.15  1412.61  1434.86  1475.34
                             1503.86  1536.99  1605.44  1642.78  1656.57
                             1662.84  1717.53  1766.49  1777.12  1791.21
                             1833.61  1878.83  1892.93  1928.24  1969.92
                             1972.07  2013.77  2046.05  2100.39  2122.57
                             2166.68  2177.30  2183.73  2194.65  2232.46
                             2259.28  2333.29  2359.91  2409.52  2445.75
                             4293.80  4306.01  4421.52  4452.18  4457.66
                             4495.00  4563.07  4582.04  4598.00  4603.29
                             4624.16  5217.38  5218.96

 Zero-point correction=                           0.232749 (Hartree/Particle)
 Thermal correction to Energy=                    0.245790
 Thermal correction to Enthalpy=                  0.246735
 Thermal correction to Gibbs Free Energy=         0.191932
 Sum of electronic and zero-point Energies=           -666.279981
 Sum of electronic and thermal Energies=              -666.266940
 Sum of electronic and thermal Enthalpies=            -666.265996
 Sum of electronic and thermal Free Energies=         -666.320799

                     E (Thermal)             CV                S
                      KCal/Mol        Cal/Mol-Kelvin    Cal/Mol-Kelvin
 Total                  154.236             49.923            115.342
 Electronic               0.000              0.000              0.000
 Translational            0.889              2.981             41.830
 Rotational               0.889              2.981             32.179
 Vibrational            152.458             43.962             41.333
 Vibration     1          0.594              1.981              5.219
 Vibration     2          0.595              1.978              4.875
 Vibration     3          0.596              1.974              4.537
 Vibration     4          0.603              1.952              3.531
 Vibration     5          0.613              1.921              2.907
 Vibration     6          0.621              1.894              2.579
 Vibration     7          0.631              1.861              2.284
 Vibration     8          0.644              1.819              2.006
 Vibration     9          0.674              1.728              1.594
 Vibration    10          0.704              1.640              1.322
 Vibration    11          0.725              1.580              1.177
 Vibration    12          0.760              1.487              0.992
 Vibration    13          0.780              1.434              0.903
 Vibration    14          0.792              1.404              0.857
 Vibration    15          0.848              1.267              0.678
 Vibration    16          0.902              1.148              0.552
 Vibration    17          0.904              1.141              0.546
 Vibration    18          0.935              1.078              0.488

                           ! Non-Optimized Parameters !
 Normal termination of Gaussian 16 at Thu Dec 10 15:41:24 2020.

 ----------------------------------------------------------------------
 # B3LYP/6-311++G(d,p) empiricaldispersion=gd3bj scf=xqc pop=npa geom=c
 heck
 ----------------------------------------------------------------------

 --------------------------------------
 CID_86049658_JID_5324_Energie_neutraal
 --------------------------------------
 Structure from the checkpoint file:  "JID_5324.chk"
 Charge =  0 Multiplicity = 1

 SCF Done:  E(RB3LYP) =  -666.699706104     A.U. after   18 cycles
 Normal termination of Gaussian 16 at Thu Dec 10 15:47:41 2020.

 ----------------------------------------------------------------------
 # B3LYP/6-311++G(d,p) empiricaldispersion=gd3bj scf=xqc pop=npa geom=c
 heck
 ----------------------------------------------------------------------

 ------------------------------------
 CID_86049658_JID_5324_Energie_kation
 ------------------------------------
 Structure from the checkpoint file:  "JID_5324.chk"
 Charge =  1 Multiplicity = 2

 SCF Done:  E(UB3LYP) =  -666.425047663     A.U. after   27 cycles
 Normal termination of Gaussian 16 at Thu Dec 10 15:58:18 2020.
 Gaussian 16:  ES64L-G16RevA.03 25-Dec-2016

 ----------------------------------------------------------------------
 # B3LYP/6-311++G(d,p) empiricaldispersion=gd3bj scf=xqc pop=npa geom=c
 heck
 ----------------------------------------------------------------------

 -----------------------------------
 CID_86049658_JID_5324_Energie_anion
 -----------------------------------
 Structure from the checkpoint file:  "JID_5324.chk"
 Charge = -1 Multiplicity = 2

                         Standard orientation:
 ---------------------------------------------------------------------
 Center     Atomic      Atomic             Coordinates (Angstroms)
 Number     Number       Type             X           Y           Z
 ---------------------------------------------------------------------
      1          6           0       -3.437691   -1.465362    0.010031
      2          6           0       -2.118049   -1.608406    0.760451
      3          7           0       -1.154104   -0.640255    0.252893
      4          6           0       -1.490657    0.636042   -0.120915
      5          6           0       -0.600159    1.686052   -0.274575
      6          6           0        0.822230    1.741654   -0.051700
      7          8           0        1.413792    2.812474    0.131679
      8          6           0        1.667905    0.489879   -0.078319
      9          6           0        2.685819    0.329380    0.872970
     10          7           0        3.530629   -0.706074    0.901091
     11          6           0        3.408970   -1.621329   -0.070883
     12          6           0        2.454113   -1.549239   -1.085291
     13          6           0        1.563044   -0.477676   -1.083558
     14          7           0       -2.821986    0.845090   -0.406357
     15          6           0       -3.890146   -0.010723    0.091023
     16          1           0       -4.193817   -2.123345    0.449509
     17          1           0       -3.299873   -1.748351   -1.039071
     18          1           0       -2.291865   -1.470227    1.840184
     19          1           0       -1.695974   -2.608858    0.622185
     20          1           0       -0.202791   -0.750368    0.571172
     21          1           0       -1.041684    2.659304   -0.469637
     22          1           0        2.810456    1.085917    1.643977
     23          1           0        4.114410   -2.449920   -0.036861
     24          1           0        2.414784   -2.311535   -1.857684
     25          1           0        0.798162   -0.380687   -1.848397
     26          1           0       -3.059546    1.810829   -0.581039
     27          1           0       -4.776958    0.157609   -0.527892
     28          1           0       -4.159683    0.236879    1.131332
 ---------------------------------------------------------------------

 SCF Done:  E(UB3LYP) =  -666.704065066     A.U. after   33 cycles
 SCF Done:  E(UB3LYP) =  -666.704065066     a.u. after    1 cycles

 The electronic state is 2-A.
 Alpha  occ. eigenvalues --  -18.94177 -14.22820 -14.22435 -14.19125 -10.14099
 Alpha  occ. eigenvalues --  -10.11174 -10.11064 -10.10245 -10.08655 -10.08409
 Alpha  occ. eigenvalues --  -10.07969 -10.06944 -10.06863 -10.05651 -10.02595
 Alpha  occ. eigenvalues --   -0.88037  -0.87522  -0.82456  -0.79633  -0.70774
 Alpha  occ. eigenvalues --   -0.68964  -0.64943  -0.61583  -0.58790  -0.54711
 Alpha  occ. eigenvalues --   -0.51858  -0.51186  -0.47572  -0.44931  -0.41812
 Alpha  occ. eigenvalues --   -0.39937  -0.38627  -0.37686  -0.37472  -0.36698
 Alpha  occ. eigenvalues --   -0.34418  -0.33739  -0.32758  -0.30380  -0.29660
 Alpha  occ. eigenvalues --   -0.28677  -0.28372  -0.27580  -0.27025  -0.25107
 Alpha  occ. eigenvalues --   -0.24831  -0.24378  -0.22727  -0.17555  -0.15230
 Alpha  occ. eigenvalues --   -0.14818  -0.14408  -0.10551  -0.08522   0.03605
 Alpha virt. eigenvalues --    0.05599   0.07327   0.07775   0.08118   0.08558
 Alpha virt. eigenvalues --    0.09327   0.09916   0.10570   0.10831   0.11257
 Alpha virt. eigenvalues --    0.11620   0.12121   0.13036   0.13708   0.14166

  Beta  occ. eigenvalues --  -18.93916 -14.22812 -14.22442 -14.19087 -10.13943
  Beta  occ. eigenvalues --  -10.11147 -10.11023 -10.10116 -10.08645 -10.08220
  Beta  occ. eigenvalues --  -10.07936 -10.06985 -10.06754 -10.05553 -10.02651
  Beta  occ. eigenvalues --   -0.87823  -0.87168  -0.82287  -0.79591  -0.70666
  Beta  occ. eigenvalues --   -0.68752  -0.64708  -0.61496  -0.58721  -0.54479
  Beta  occ. eigenvalues --   -0.51562  -0.51098  -0.47491  -0.44705  -0.41732
  Beta  occ. eigenvalues --   -0.39854  -0.38521  -0.37637  -0.37343  -0.36572
  Beta  occ. eigenvalues --   -0.34308  -0.33673  -0.32704  -0.30136  -0.29293
  Beta  occ. eigenvalues --   -0.28520  -0.28166  -0.27356  -0.26916  -0.24995
  Beta  occ. eigenvalues --   -0.24547  -0.24090  -0.21942  -0.17040  -0.14858
  Beta  occ. eigenvalues --   -0.14668  -0.14061  -0.10263  -0.08143
  Beta virt. eigenvalues --    0.06318   0.07553   0.07599   0.08219   0.08471
  Beta virt. eigenvalues --    0.08803   0.09589   0.10168   0.10814   0.11091
  Beta virt. eigenvalues --    0.11558   0.11960   0.12651   0.13053   0.13728

 Mulliken charges and spin densities:
               1          2
     1  C   -0.169210  -0.229425
     2  C    0.314189  -0.516021
     3  N   -0.230177   0.142622
     4  C   -0.717984   0.441144
     5  C    1.153248  -0.843129
     6  C   -1.349691   0.005630
     7  O   -0.370123   0.091641
     8  C    0.775630   0.045524
     9  C   -0.256240   0.054723
    10  N   -0.069917   0.011860
    11  C   -0.347647   0.113930
    12  C   -0.185731  -0.058329
    13  C    0.052687   0.125569
    14  N   -0.302103   0.194977
    15  C    0.679895  -0.939133
    16  H   -0.672087   0.867699
    17  H    0.137309   0.003769
    18  H   -0.001644   0.151123
    19  H   -0.076170   0.232215
    20  H    0.336358   0.023202
    21  H    0.162088  -0.017482
    22  H    0.197943   0.002014
    23  H    0.138217  -0.014083
    24  H    0.134797   0.015433
    25  H    0.170221   0.017026
    26  H    0.164394   0.098494
    27  H   -0.527908   0.683728
    28  H   -0.140343   0.295279
 Sum of Mulliken charges =  -1.00000   1.00000

 Dipole moment (field-independent basis, Debye):
    X=              0.3431    Y=             -2.4454    Z=             -1.9980  Tot=              3.1764
 Quadrupole moment (field-independent basis, Debye-Ang):
   XX=           -166.0264   YY=           -123.1061   ZZ=           -107.7723
   XY=            -17.7612   XZ=             -0.1309   YZ=              3.0372

 Summary of Natural Population Analysis:

                                       Natural Population
                Natural  -----------------------------------------------
    Atom  No    Charge         Core      Valence    Rydberg      Total
 -----------------------------------------------------------------------
      C    1   -0.20005      0.99963     2.19109    0.00932     3.20005
      C    2   -0.08047      0.99962     2.07018    0.01067     3.08047
      N    3   -0.31970      0.99966     2.81178    0.00825     3.81970
      C    4    0.24927      0.99953     1.73845    0.01276     2.75073
      C    5   -0.24626      0.99951     2.23522    0.01154     3.24626
      C    6    0.25640      0.99957     1.72446    0.01958     2.74360
      O    7   -0.29201      0.99989     3.28603    0.00609     4.29201
      C    8   -0.07213      0.99947     2.05709    0.01557     3.07213
      C    9    0.04453      0.99954     1.94247    0.01346     2.95547
      N   10   -0.23761      0.99972     2.72630    0.01160     3.73761
      C   11    0.05169      0.99960     1.93483    0.01388     2.94831
      C   12   -0.13955      0.99956     2.13224    0.00775     3.13955
      C   13   -0.06457      0.99953     2.05421    0.01083     3.06457
      N   14   -0.31354      0.99968     2.80480    0.00907     3.81354
      C   15   -0.08240      0.99962     2.07152    0.01126     3.08240
      H   16    0.10671      0.00000     0.39087    0.00241     0.39329
      H   17    0.10035      0.00000     0.39825    0.00140     0.39965
      H   18    0.08678      0.00000     0.41170    0.00152     0.41322
      H   19    0.09716      0.00000     0.40180    0.00105     0.40284
      H   20    0.20379      0.00000     0.29398    0.00223     0.29621
      H   21    0.09935      0.00000     0.39885    0.00179     0.40065
      H   22    0.09483      0.00000     0.40394    0.00123     0.40517
      H   23    0.08065      0.00000     0.41814    0.00121     0.41935
      H   24    0.09769      0.00000     0.40109    0.00122     0.40231
      H   25    0.10453      0.00000     0.39415    0.00132     0.39547
      H   26    0.18959      0.00000     0.30850    0.00191     0.31041
      H   27    0.09801      0.00000     0.40051    0.00148     0.40199
      H   28    0.08696      0.00000     0.41060    0.00244     0.41304
 =======================================================================
   * Total *   -0.00000     14.99412    38.81305    0.19283    54.00000

 Normal termination of Gaussian 16 at Thu Dec 10 16:10:57 2020.
