 Gaussian 16, Revision A.03,

 -----------------------------------------------------------
 # opt freq B3LYP/6-31G(d) empiricaldispersion=gd3bj scf=xqc
 -----------------------------------------------------------

 -------------------------------
 CID_106904559_JID_7634_neutraal
 -------------------------------
 Symbolic Z-matrix:
 Charge =  0 Multiplicity = 1

 SCF Done:  E(RB3LYP) =  -767.446549830     A.U. after   15 cycles
 SCF Done:  E(RB3LYP) =  -767.450899979     A.U. after   12 cycles
 SCF Done:  E(RB3LYP) =  -767.452013232     A.U. after   12 cycles
 SCF Done:  E(RB3LYP) =  -767.452631916     A.U. after   13 cycles
 SCF Done:  E(RB3LYP) =  -767.452897254     A.U. after   13 cycles
 SCF Done:  E(RB3LYP) =  -767.453745503     A.U. after   12 cycles
 SCF Done:  E(RB3LYP) =  -767.453956710     A.U. after   11 cycles
 SCF Done:  E(RB3LYP) =  -767.454050243     A.U. after   12 cycles
 SCF Done:  E(RB3LYP) =  -767.454161686     A.U. after   11 cycles
 SCF Done:  E(RB3LYP) =  -767.454460420     A.U. after   13 cycles
 SCF Done:  E(RB3LYP) =  -767.455257240     A.U. after   11 cycles
 SCF Done:  E(RB3LYP) =  -767.455257758     A.U. after    7 cycles
 SCF Done:  E(RB3LYP) =  -767.455258088     A.U. after    8 cycles
 SCF Done:  E(RB3LYP) =  -767.455258075     A.U. after    7 cycles
 SCF Done:  E(RB3LYP) =  -767.455258085     A.U. after    7 cycles
 Optimization completed.
    -- Stationary point found.
 Normal termination of Gaussian 16 at Fri Dec 11 13:24:28 2020.

 --------------------------------------------------------------------
 #N Geom=AllCheck Guess=TCheck SCRF=Check GenChk RB3LYP/6-31G(d) Freq
 --------------------------------------------------------------------

 Structure from the checkpoint file:  "JID_7634.chk"
 -------------------------------
 CID_106904559_JID_7634_neutraal
 -------------------------------
 Charge =  0 Multiplicity = 1

 SCF Done:  E(RB3LYP) =  -767.455258085     A.U. after    1 cycles

  Exact polarizability: 206.354   5.119 158.244  -3.997   8.439 100.018
 Approx polarizability: 262.379   5.600 255.404  -8.319  21.562 155.967

                      1                      2                      3
                      A                      A                      A
 Frequencies --     13.4594                20.4701                42.5944
 Red. masses --      4.0567                 4.1173                 7.1464
 Frc consts  --      0.0004                 0.0010                 0.0076
 IR Inten    --      1.0641                 0.4738                 0.5360

                      4                      5                      6
                      A                      A                      A
 Frequencies --     47.2465                65.2869                90.6108
 Red. masses --      3.6647                 2.8499                 2.5989
 Frc consts  --      0.0048                 0.0072                 0.0126
 IR Inten    --      0.4100                 0.4333                 0.3774

                      7                      8                      9
                      A                      A                      A
 Frequencies --    135.3153               155.7453               161.8388
 Red. masses --      2.5206                 5.2488                 4.1320
 Frc consts  --      0.0272                 0.0750                 0.0638
 IR Inten    --      1.2389                 2.5127                 0.7527

                     10                     11                     12
                      A                      A                      A
 Frequencies --    193.0332               197.5891               233.4797
 Red. masses --      2.5073                 2.3395                 1.5711
 Frc consts  --      0.0550                 0.0538                 0.0505
 IR Inten    --      1.8158                 2.0642                 0.3881

                     13                     14                     15
                      A                      A                      A
 Frequencies --    249.8510               268.1703               284.0291
 Red. masses --      1.4348                 2.1487                 1.2325
 Frc consts  --      0.0528                 0.0910                 0.0586
 IR Inten    --      0.6233                 0.1213                 1.3470

                     16                     17                     18
                      A                      A                      A
 Frequencies --    286.3746               314.9930               340.3783
 Red. masses --      2.2489                 2.2192                 3.1769
 Frc consts  --      0.1087                 0.1297                 0.2169
 IR Inten    --      0.8824                 0.9844                 7.6948

                     19                     20                     21
                      A                      A                      A
 Frequencies --    390.7546               399.1875               433.1260
 Red. masses --      2.4023                 5.8902                 3.9576
 Frc consts  --      0.2161                 0.5530                 0.4374
 IR Inten    --      0.5350                 1.4527                 0.4614

                     22                     23                     24
                      A                      A                      A
 Frequencies --    458.9164               491.8205               511.6511
 Red. masses --      4.1158                 2.7718                 2.9504
 Frc consts  --      0.5107                 0.3950                 0.4551
 IR Inten    --      0.9011                 4.7360                 3.5863

                     25                     26                     27
                      A                      A                      A
 Frequencies --    537.9651               577.4019               615.1955
 Red. masses --      3.9088                 2.1388                 2.2858
 Frc consts  --      0.6665                 0.4201                 0.5097
 IR Inten    --      4.7485                35.0143                30.9280

                     28                     29                     30
                      A                      A                      A
 Frequencies --    634.7470               645.2888               703.2681
 Red. masses --      1.8441                 4.8559                 2.1008
 Frc consts  --      0.4378                 1.1913                 0.6122
 IR Inten    --     55.8327                62.2377                62.2341

                     31                     32                     33
                      A                      A                      A
 Frequencies --    726.7769               751.0024               763.6522
 Red. masses --      3.4074                 1.8376                 3.0379
 Frc consts  --      1.0604                 0.6106                 1.0438
 IR Inten    --     25.3512                16.8883                 6.1327

                     34                     35                     36
                      A                      A                      A
 Frequencies --    775.3683               841.6510               846.9338
 Red. masses --      2.0734                 1.6517                 2.0589
 Frc consts  --      0.7344                 0.6893                 0.8701
 IR Inten    --     40.7996                 3.5575                10.7059

                     37                     38                     39
                      A                      A                      A
 Frequencies --    898.4485               915.0282               940.6213
 Red. masses --      3.0156                 2.2452                 1.1735
 Frc consts  --      1.4342                 1.1076                 0.6117
 IR Inten    --      1.9822                 0.1319                 1.3594

                     40                     41                     42
                      A                      A                      A
 Frequencies --    949.7128               963.0753               979.4818
 Red. masses --      1.4000                 1.7866                 1.4773
 Frc consts  --      0.7440                 0.9764                 0.8351
 IR Inten    --      5.4964                10.6533                 2.1349

                     43                     44                     45
                      A                      A                      A
 Frequencies --    985.8838              1016.4651              1018.6480
 Red. masses --      2.1883                 6.1086                 1.3508
 Frc consts  --      1.2532                 3.7186                 0.8258
 IR Inten    --     30.1808                 4.6194                 0.4365

                     46                     47                     48
                      A                      A                      A
 Frequencies --   1044.4535              1065.5998              1072.8787
 Red. masses --      1.7104                 1.9374                 1.9232
 Frc consts  --      1.0993                 1.2961                 1.3043
 IR Inten    --      2.6671                 0.2587                 3.4396

                     49                     50                     51
                      A                      A                      A
 Frequencies --   1111.0433              1128.5881              1153.3529
 Red. masses --      1.5458                 1.9763                 2.8900
 Frc consts  --      1.1242                 1.4831                 2.2650
 IR Inten    --     24.5647                17.3357                 3.1135

                     52                     53                     54
                      A                      A                      A
 Frequencies --   1160.1586              1180.6714              1191.0265
 Red. masses --      2.8662                 1.8794                 1.3454
 Frc consts  --      2.2730                 1.5436                 1.1245
 IR Inten    --    276.8883                13.9459                22.0866

                     55                     56                     57
                      A                      A                      A
 Frequencies --   1194.4906              1215.9049              1220.3340
 Red. masses --      2.1644                 1.8452                 1.9555
 Frc consts  --      1.8195                 1.6073                 1.7158
 IR Inten    --     57.2138                65.1333                 5.3988

                     58                     59                     60
                      A                      A                      A
 Frequencies --   1255.9991              1278.1309              1294.3581
 Red. masses --      1.4396                 2.3362                 1.2769
 Frc consts  --      1.3381                 2.2486                 1.2604
 IR Inten    --      7.2843                 6.1467                 1.6845

                     61                     62                     63
                      A                      A                      A
 Frequencies --   1326.7130              1348.6936              1351.7212
 Red. masses --      2.8379                 1.3944                 1.3517
 Frc consts  --      2.9431                 1.4944                 1.4552
 IR Inten    --      4.7970                11.5626                 9.3326

                     64                     65                     66
                      A                      A                      A
 Frequencies --   1376.0014              1380.5552              1385.1800
 Red. masses --      1.4383                 1.4974                 2.5110
 Frc consts  --      1.6045                 1.6815                 2.8386
 IR Inten    --     11.3580                43.2176                72.8956

                     67                     68                     69
                      A                      A                      A
 Frequencies --   1394.3327              1420.9156              1431.8173
 Red. masses --      1.3777                 1.4250                 1.2816
 Frc consts  --      1.5781                 1.6951                 1.5480
 IR Inten    --      3.4188                 0.8286                 7.1152

                     70                     71                     72
                      A                      A                      A
 Frequencies --   1443.0416              1451.9663              1483.2330
 Red. masses --      1.2444                 1.2454                 3.4989
 Frc consts  --      1.5268                 1.5469                 4.5352
 IR Inten    --      1.1749                 7.6669                23.8988

                     73                     74                     75
                      A                      A                      A
 Frequencies --   1493.4349              1511.0870              1516.3872
 Red. masses --      2.2885                 1.1698                 1.1049
 Frc consts  --      3.0072                 1.5738                 1.4969
 IR Inten    --     27.7184                19.3722                 8.7867

                     76                     77                     78
                      A                      A                      A
 Frequencies --   1520.2099              1522.4006              1531.2866
 Red. masses --      1.1139                 1.0678                 1.0499
 Frc consts  --      1.5167                 1.4581                 1.4505
 IR Inten    --     33.2329                 1.7371                 4.8754

                     79                     80                     81
                      A                      A                      A
 Frequencies --   1533.1366              1537.3161              1543.4951
 Red. masses --      1.0637                 1.0494                 1.0563
 Frc consts  --      1.4731                 1.4612                 1.4827
 IR Inten    --      6.5677                 7.1677                 3.7709

                     82                     83                     84
                      A                      A                      A
 Frequencies --   1544.8833              1631.4202              1643.9356
 Red. masses --      1.0608                 5.9734                 6.1377
 Frc consts  --      1.4917                 9.3671                 9.7730
 IR Inten    --      8.4606                 4.2272                59.5704

                     85                     86                     87
                      A                      A                      A
 Frequencies --   1849.2478              3019.1219              3024.9792
 Red. masses --     10.2057                 1.0723                 1.0692
 Frc consts  --     20.5628                 5.7587                 5.7643
 IR Inten    --    253.5507                10.0544                23.9025

                     88                     89                     90
                      A                      A                      A
 Frequencies --   3034.8465              3040.0638              3044.1049
 Red. masses --      1.0777                 1.0467                 1.0514
 Frc consts  --      5.8480                 5.6995                 5.7401
 IR Inten    --      9.0389                 5.6842                19.8760

                     91                     92                     93
                      A                      A                      A
 Frequencies --   3047.5306              3049.5904              3057.6721
 Red. masses --      1.0478                 1.0387                 1.1004
 Frc consts  --      5.7334                 5.6915                 6.0616
 IR Inten    --     78.5419                26.7424                19.8016

                     94                     95                     96
                      A                      A                      A
 Frequencies --   3082.4223              3101.6327              3108.9853
 Red. masses --      1.0981                 1.0975                 1.1015
 Frc consts  --      6.1475                 6.2204                 6.2727
 IR Inten    --     15.7192                23.6058                24.2878

                     97                     98                     99
                      A                      A                      A
 Frequencies --   3110.4571              3119.5873              3122.3721
 Red. masses --      1.1018                 1.1015                 1.1019
 Frc consts  --      6.2806                 6.3157                 6.3293
 IR Inten    --     63.4759                76.2534                19.1627

                    100                    101                    102
                      A                      A                      A
 Frequencies --   3124.4196              3197.9132              3234.5159
 Red. masses --      1.1003                 1.0897                 1.0924
 Frc consts  --      6.3283                 6.5660                 6.7335
 IR Inten    --     49.3143                13.6736                 2.4613

                    103                    104                    105
                      A                      A                      A
 Frequencies --   3246.6834              3518.5515              3702.2186
 Red. masses --      1.0933                 1.0734                 1.0642
 Frc consts  --      6.7901                 7.8299                 8.5941
 IR Inten    --      2.1670                 0.3637                72.4404

 - Thermochemistry -
 -------------------
 Temperature   298.150 Kelvin.  Pressure   1.00000 Atm.
 Atom     1 has atomic number  6 and mass  12.00000

 Molecular mass:   236.15248 amu.
 Principal axes and moments of inertia in atomic units:
                           1         2         3
     Eigenvalues --  1778.39423********************
           X            0.99998  -0.00700  -0.00043
           Y            0.00700   0.99996  -0.00619
           Z            0.00047   0.00619   0.99998
 This molecule is an asymmetric top.
 Rotational symmetry number  1.
 Warning -- assumption of classical behavior for rotation
           may cause significant error
 Rotational temperatures (Kelvin)      0.04870     0.00862     0.00766
 Rotational constants (GHZ):           1.01482     0.17961     0.15967
 Zero-point vibrational energy     840972.4 (Joules/Mol)
                                  200.99723 (Kcal/Mol)
 Warning -- explicit consideration of  27 degrees of freedom as
           vibrations may cause significant error
 Vibrational temperatures:     19.37    29.45    61.28    67.98    93.93
          (Kelvin)            130.37   194.69   224.08   232.85   277.73
                              284.29   335.93   359.48   385.84   408.65
                              412.03   453.20   489.73   562.21   574.34
                              623.17   660.28   707.62   736.15   774.01
                              830.75   885.13   913.26   928.43  1011.85
                             1045.67  1080.52  1098.73  1115.58  1210.95
                             1218.55  1292.67  1316.52  1353.34  1366.42
                             1385.65  1409.26  1418.47  1462.47  1465.61
                             1502.74  1533.16  1543.63  1598.54  1623.79
                             1659.42  1669.21  1698.72  1713.62  1718.61
                             1749.42  1755.79  1807.10  1838.95  1862.29
                             1908.84  1940.47  1944.83  1979.76  1986.31
                             1992.97  2006.13  2044.38  2060.07  2076.21
                             2089.06  2134.04  2148.72  2174.12  2181.74
                             2187.24  2190.39  2203.18  2205.84  2211.85
                             2220.75  2222.74  2347.25  2365.26  2660.66
                             4343.84  4352.27  4366.47  4373.97  4379.79
                             4384.72  4387.68  4399.31  4434.92  4462.56
                             4473.14  4475.25  4488.39  4492.40  4495.34
                             4601.08  4653.75  4671.25  5062.41  5326.67

 Zero-point correction=                           0.320309 (Hartree/Particle)
 Thermal correction to Energy=                    0.338221
 Thermal correction to Enthalpy=                  0.339166
 Thermal correction to Gibbs Free Energy=         0.271743
 Sum of electronic and zero-point Energies=           -767.134949
 Sum of electronic and thermal Energies=              -767.117037
 Sum of electronic and thermal Enthalpies=            -767.116092
 Sum of electronic and thermal Free Energies=         -767.183515

                     E (Thermal)             CV                S
                      KCal/Mol        Cal/Mol-Kelvin    Cal/Mol-Kelvin
 Total                  212.237             66.709            141.903
 Electronic               0.000              0.000              0.000
 Translational            0.889              2.981             42.279
 Rotational               0.889              2.981             33.668
 Vibrational            210.460             60.747             65.956
 Vibration     1          0.593              1.987              7.421
 Vibration     2          0.593              1.986              6.588
 Vibration     3          0.595              1.980              5.135
 Vibration     4          0.595              1.979              4.929
 Vibration     5          0.597              1.971              4.291
 Vibration     6          0.602              1.956              3.647
 Vibration     7          0.613              1.918              2.869
 Vibration     8          0.620              1.896              2.601
 Vibration     9          0.622              1.889              2.528
 Vibration    10          0.635              1.850              2.199
 Vibration    11          0.637              1.843              2.155
 Vibration    12          0.654              1.790              1.852
 Vibration    13          0.663              1.763              1.732
 Vibration    14          0.673              1.732              1.608
 Vibration    15          0.682              1.703              1.509
 Vibration    16          0.684              1.699              1.495
 Vibration    17          0.702              1.645              1.336
 Vibration    18          0.720              1.595              1.210
 Vibration    19          0.758              1.490              0.997
 Vibration    20          0.765              1.472              0.966
 Vibration    21          0.794              1.398              0.849
 Vibration    22          0.817              1.341              0.769
 Vibration    23          0.848              1.268              0.679
 Vibration    24          0.867              1.224              0.630
 Vibration    25          0.893              1.166              0.570
 Vibration    26          0.934              1.080              0.490
 Vibration    27          0.975              1.000              0.424

 Optimization completed.
    -- Stationary point found.
 Normal termination of Gaussian 16 at Fri Dec 11 13:38:00 2020.

 ----------------------------------------------------------------------
 # B3LYP/6-311++G(d,p) empiricaldispersion=gd3bj scf=xqc pop=npa geom=c
 heck
 ----------------------------------------------------------------------

 ---------------------------------------
 CID_106904559_JID_7634_Energie_neutraal
 ---------------------------------------
 Structure from the checkpoint file:  "JID_7634.chk"
 Charge =  0 Multiplicity = 1

 SCF Done:  E(RB3LYP) =  -767.678467807     A.U. after   15 cycles
 Normal termination of Gaussian 16 at Fri Dec 11 13:45:09 2020.

 ----------------------------------------------------------------------
 # B3LYP/6-311++G(d,p) empiricaldispersion=gd3bj scf=xqc pop=npa geom=c
 heck
 ----------------------------------------------------------------------

 -------------------------------------
 CID_106904559_JID_7634_Energie_kation
 -------------------------------------
 Structure from the checkpoint file:  "JID_7634.chk"
 Charge =  1 Multiplicity = 2

 SCF Done:  E(UB3LYP) =  -767.380809709     A.U. after   26 cycles
 Normal termination of Gaussian 16 at Fri Dec 11 14:03:15 2020.
 Gaussian 16:  ES64L-G16RevA.03 25-Dec-2016

 ----------------------------------------------------------------------
 # B3LYP/6-311++G(d,p) empiricaldispersion=gd3bj scf=xqc pop=npa geom=c
 heck
 ----------------------------------------------------------------------

 ------------------------------------
 CID_106904559_JID_7634_Energie_anion
 ------------------------------------
 Structure from the checkpoint file:  "JID_7634.chk"
 Charge = -1 Multiplicity = 2

                         Standard orientation:
 ---------------------------------------------------------------------
 Center     Atomic      Atomic             Coordinates (Angstroms)
 Number     Number       Type             X           Y           Z
 ---------------------------------------------------------------------
      1          6           0        5.062715    1.461690   -0.699570
      2          6           0        3.643987    1.430489   -0.125617
      3          6           0        2.854202    0.133990   -0.394377
      4          6           0        3.610108   -1.143681    0.063546
      5          6           0        3.896958   -1.158483    1.570896
      6          6           0        2.897048   -2.435583   -0.356758
      7          7           0        1.508099    0.317536    0.160913
      8          6           0        0.385381   -0.366618   -0.461487
      9          6           0       -0.933939    0.323124   -0.164312
     10          7           0       -2.021357   -0.450917   -0.222411
     11          6           0       -3.215709    0.115655   -0.002413
     12          6           0       -3.382506    1.471808    0.292642
     13          6           0       -2.241553    2.270868    0.357930
     14          6           0       -0.998242    1.693446    0.126877
     15          6           0       -4.388276   -0.815569   -0.084988
     16          8           0       -4.336285   -1.999590   -0.321890
     17          8           0       -5.566034   -0.169212    0.142407
     18          1           0        5.729744    0.756129   -0.192803
     19          1           0        5.501192    2.460101   -0.594314
     20          1           0        5.063599    1.210333   -1.767642
     21          1           0        3.678195    1.615155    0.956599
     22          1           0        3.054304    2.251274   -0.549084
     23          1           0        2.723641    0.051877   -1.482967
     24          1           0        4.577053   -1.128161   -0.457288
     25          1           0        4.499946   -0.301155    1.887407
     26          1           0        2.966464   -1.150182    2.153601
     27          1           0        4.439814   -2.068117    1.850325
     28          1           0        2.614858   -2.415564   -1.415855
     29          1           0        3.548843   -3.302656   -0.199838
     30          1           0        1.987411   -2.602659    0.229116
     31          1           0        1.505902    0.177743    1.167888
     32          1           0        0.546169   -0.344252   -1.548054
     33          1           0        0.261463   -1.426032   -0.197094
     34          1           0       -4.371407    1.876615    0.467723
     35          1           0       -2.325647    3.329671    0.586486
     36          1           0       -0.076262    2.261636    0.171380
     37          1           0       -6.254966   -0.854493    0.066548
 ---------------------------------------------------------------------

 SCF Done:  E(UB3LYP) =  -767.686528875     A.U. after   33 cycles
 SCF Done:  E(UB3LYP) =  -767.686528875     a.u. after    1 cycles

 The electronic state is 2-A.
 Alpha  occ. eigenvalues --  -19.02949 -18.95451 -14.19056 -14.15449 -10.13819
 Alpha  occ. eigenvalues --  -10.10253 -10.08352 -10.07821 -10.07518 -10.07400
 Alpha  occ. eigenvalues --  -10.07199 -10.07167 -10.06916 -10.05576 -10.04613
 Alpha  occ. eigenvalues --  -10.03936 -10.02606  -0.96444  -0.87043  -0.81151
 Alpha  occ. eigenvalues --   -0.79528  -0.71169  -0.67479  -0.66235  -0.64231
 Alpha  occ. eigenvalues --   -0.59968  -0.59199  -0.54653  -0.52800  -0.51734
 Alpha  occ. eigenvalues --   -0.47206  -0.46138  -0.45912  -0.39555  -0.38570
 Alpha  occ. eigenvalues --   -0.37453  -0.36370  -0.35463  -0.35168  -0.34030
 Alpha  occ. eigenvalues --   -0.33275  -0.32388  -0.31522  -0.31316  -0.30993
 Alpha  occ. eigenvalues --   -0.30478  -0.29553  -0.28546  -0.27697  -0.26891
 Alpha  occ. eigenvalues --   -0.26353  -0.26211  -0.25517  -0.24369  -0.24364
 Alpha  occ. eigenvalues --   -0.23542  -0.22886  -0.22160  -0.18894  -0.15275
 Alpha  occ. eigenvalues --   -0.13426  -0.12947  -0.11769  -0.11229   0.04046
 Alpha virt. eigenvalues --    0.05340   0.06797   0.07480   0.08413   0.08831
 Alpha virt. eigenvalues --    0.09354   0.09557   0.10102   0.10538   0.10762
 Alpha virt. eigenvalues --    0.11069   0.11748   0.12487   0.12709   0.13467

  Beta  occ. eigenvalues --  -19.02887 -18.95186 -14.19058 -14.15161 -10.13609
  Beta  occ. eigenvalues --  -10.10249 -10.08347 -10.07816 -10.07507 -10.07381
  Beta  occ. eigenvalues --  -10.07256 -10.07193 -10.06911 -10.05351 -10.04562
  Beta  occ. eigenvalues --  -10.03899 -10.02319  -0.96181  -0.86647  -0.81031
  Beta  occ. eigenvalues --   -0.79181  -0.71149  -0.67459  -0.65843  -0.63899
  Beta  occ. eigenvalues --   -0.59949  -0.59037  -0.54551  -0.52208  -0.51691
  Beta  occ. eigenvalues --   -0.47140  -0.46066  -0.45662  -0.39503  -0.38483
  Beta  occ. eigenvalues --   -0.37411  -0.36352  -0.35376  -0.34944  -0.33877
  Beta  occ. eigenvalues --   -0.33076  -0.32307  -0.31393  -0.30940  -0.30514
  Beta  occ. eigenvalues --   -0.30068  -0.29507  -0.28435  -0.27623  -0.26806
  Beta  occ. eigenvalues --   -0.26303  -0.26159  -0.25317  -0.24313  -0.23707
  Beta  occ. eigenvalues --   -0.23421  -0.22795  -0.22086  -0.17785  -0.13962
  Beta  occ. eigenvalues --   -0.13145  -0.12246  -0.11216  -0.10810
  Beta virt. eigenvalues --    0.05653   0.06940   0.07504   0.08392   0.08844
  Beta virt. eigenvalues --    0.09369   0.09517   0.09573   0.10118   0.10510
  Beta virt. eigenvalues --    0.10899   0.11149   0.11867   0.12460   0.12686

 Mulliken charges and spin densities:
               1          2
     1  C    0.070196  -0.767735
     2  C   -0.503355   0.489455
     3  C   -0.113904  -0.325512
     4  C    0.132979   0.207005
     5  C   -0.272554  -0.420570
     6  C   -0.445374  -0.170285
     7  N    0.088709   0.000850
     8  C   -0.128157  -0.011051
     9  C   -0.256919  -0.129771
    10  N    0.107979   0.133755
    11  C   -0.402314   0.148060
    12  C    0.336725   0.053491
    13  C   -1.334859  -0.018929
    14  C    0.305657   0.302427
    15  C    0.165665   0.121303
    16  O   -0.385746   0.095150
    17  O   -0.230147   0.012892
    18  H   -0.065558   0.211999
    19  H   -0.104265   0.240515
    20  H   -0.032632   0.168379
    21  H    0.116451   0.015572
    22  H    0.165180   0.001692
    23  H    0.066960   0.107366
    24  H    0.016755   0.148815
    25  H    0.081067   0.052041
    26  H    0.104596   0.035757
    27  H    0.021982   0.121258
    28  H    0.119211   0.011193
    29  H    0.018854   0.123451
    30  H    0.130164   0.012599
    31  H    0.209101  -0.001511
    32  H    0.171251  -0.010552
    33  H    0.162273   0.017879
    34  H    0.193117  -0.001455
    35  H    0.115900  -0.002419
    36  H    0.113994   0.027860
    37  H    0.261018  -0.000975
 Sum of Mulliken charges =  -1.00000   1.00000

 Dipole moment (field-independent basis, Debye):
    X=              4.1934    Y=              1.6158    Z=              1.1738  Tot=              4.6447
 Quadrupole moment (field-independent basis, Debye-Ang):
   XX=           -184.9023   YY=           -132.6395   ZZ=           -117.1593
   XY=            -11.5025   XZ=             -0.4899   YZ=             -0.0040

 Summary of Natural Population Analysis:

                                       Natural Population
                Natural  -----------------------------------------------
    Atom  No    Charge         Core      Valence    Rydberg      Total
 -----------------------------------------------------------------------
      C    1   -0.28767      0.99967     2.28391    0.00410     3.28767
      C    2   -0.19265      0.99962     2.18273    0.01030     3.19265
      C    3   -0.00179      0.99957     1.98776    0.01447     3.00179
      C    4   -0.12143      0.99959     2.11210    0.00974     3.12143
      C    5   -0.29116      0.99965     2.28415    0.00736     3.29116
      C    6   -0.28392      0.99965     2.27925    0.00502     3.28392
      N    7   -0.34687      0.99973     2.83602    0.01112     3.84687
      C    8   -0.09594      0.99959     2.08517    0.01118     3.09594
      C    9    0.08082      0.99954     1.90561    0.01404     2.91918
      N   10   -0.18062      0.99965     2.67160    0.00936     3.68062
      C   11    0.07875      0.99948     1.90848    0.01329     2.92125
      C   12   -0.10372      0.99954     2.09598    0.00820     3.10372
      C   13   -0.08779      0.99958     2.07916    0.00905     3.08779
      C   14   -0.07196      0.99951     2.06409    0.00836     3.07196
      C   15    0.41380      0.99969     1.56193    0.02458     2.58620
      O   16   -0.28838      0.99987     3.28164    0.00688     4.28838
      O   17   -0.35855      0.99988     3.35106    0.00761     4.35855
      H   18    0.09538      0.00000     0.40338    0.00124     0.40462
      H   19    0.09822      0.00000     0.40093    0.00085     0.40178
      H   20    0.09585      0.00000     0.40305    0.00110     0.40415
      H   21    0.09280      0.00000     0.40611    0.00109     0.40720
      H   22    0.10282      0.00000     0.39597    0.00121     0.39718
      H   23    0.09044      0.00000     0.40774    0.00182     0.40956
      H   24    0.09368      0.00000     0.40436    0.00197     0.40632
      H   25    0.09947      0.00000     0.39987    0.00066     0.40053
      H   26    0.09493      0.00000     0.40401    0.00106     0.40507
      H   27    0.09936      0.00000     0.39989    0.00074     0.40064
      H   28    0.09985      0.00000     0.39931    0.00084     0.40015
      H   29    0.09580      0.00000     0.40341    0.00079     0.40420
      H   30    0.10006      0.00000     0.39862    0.00132     0.39994
      H   31    0.17295      0.00000     0.32490    0.00215     0.32705
      H   32    0.09370      0.00000     0.40467    0.00164     0.40630
      H   33    0.09025      0.00000     0.40757    0.00219     0.40975
      H   34    0.10348      0.00000     0.39547    0.00105     0.39652
      H   35    0.09008      0.00000     0.40890    0.00103     0.40992
      H   36    0.10177      0.00000     0.39676    0.00146     0.39823
      H   37    0.22819      0.00000     0.26643    0.00538     0.27181
 =======================================================================
   * Total *   -0.00000     16.99380    46.80196    0.20424    64.00000

 Normal termination of Gaussian 16 at Fri Dec 11 14:26:14 2020.
