 Gaussian 16, Revision A.03,

 -----------------------------------------------------------
 # opt freq B3LYP/6-31G(d) empiricaldispersion=gd3bj scf=xqc
 -----------------------------------------------------------

 -------------------------------
 CID_137774368_JID_4860_neutraal
 -------------------------------
 Symbolic Z-matrix:
 Charge =  0 Multiplicity = 1

 SCF Done:  E(RB3LYP) =  -644.417665909     A.U. after   14 cycles
 SCF Done:  E(RB3LYP) =  -644.420623244     A.U. after   13 cycles
 SCF Done:  E(RB3LYP) =  -644.421212642     A.U. after   13 cycles
 SCF Done:  E(RB3LYP) =  -644.421720077     A.U. after   12 cycles
 SCF Done:  E(RB3LYP) =  -644.421967662     A.U. after   12 cycles
 SCF Done:  E(RB3LYP) =  -644.422242643     A.U. after   13 cycles
 SCF Done:  E(RB3LYP) =  -644.422378381     A.U. after   12 cycles
 SCF Done:  E(RB3LYP) =  -644.422540811     A.U. after   11 cycles
 SCF Done:  E(RB3LYP) =  -644.422633820     A.U. after   12 cycles
 SCF Done:  E(RB3LYP) =  -644.422714957     A.U. after   12 cycles
 SCF Done:  E(RB3LYP) =  -644.423294625     A.U. after   10 cycles
 SCF Done:  E(RB3LYP) =  -644.423299642     A.U. after   10 cycles
 SCF Done:  E(RB3LYP) =  -644.423300470     A.U. after    8 cycles
 SCF Done:  E(RB3LYP) =  -644.423300800     A.U. after    8 cycles
 SCF Done:  E(RB3LYP) =  -644.423300905     A.U. after    8 cycles
 SCF Done:  E(RB3LYP) =  -644.423300889     A.U. after    7 cycles
 Optimization completed.
    -- Stationary point found.
 Normal termination of Gaussian 16 at Thu Dec 10 10:58:07 2020.

 --------------------------------------------------------------------
 #N Geom=AllCheck Guess=TCheck SCRF=Check GenChk RB3LYP/6-31G(d) Freq
 --------------------------------------------------------------------

 Structure from the checkpoint file:  "JID_4860.chk"
 -------------------------------
 CID_137774368_JID_4860_neutraal
 -------------------------------
 Charge =  0 Multiplicity = 1

 SCF Done:  E(RB3LYP) =  -644.423300889     A.U. after    1 cycles

  Exact polarizability: 117.240 -13.826 113.720  15.285   7.121  99.576
 Approx polarizability: 172.187 -22.459 177.477  37.805  15.528 166.126

                      1                      2                      3
                      A                      A                      A
 Frequencies --     18.8521                53.2926                64.7547
 Red. masses --      5.0389                 7.0914                 5.2778
 Frc consts  --      0.0011                 0.0119                 0.0130
 IR Inten    --      1.7879                 5.0670                 0.4556

                      4                      5                      6
                      A                      A                      A
 Frequencies --     81.1319                96.5404               106.3204
 Red. masses --      1.0720                 1.1588                 3.2136
 Frc consts  --      0.0042                 0.0064                 0.0214
 IR Inten    --      0.1352                 0.0139                 1.1936

                      7                      8                      9
                      A                      A                      A
 Frequencies --    136.5272               173.6521               256.9370
 Red. masses --      3.3041                 3.4324                 2.4660
 Frc consts  --      0.0363                 0.0610                 0.0959
 IR Inten    --      0.2370                 3.3288                 0.3605

                     10                     11                     12
                      A                      A                      A
 Frequencies --    264.6136               319.2280               333.3780
 Red. masses --      2.5526                 5.2292                 4.1820
 Frc consts  --      0.1053                 0.3140                 0.2738
 IR Inten    --      1.2966                 0.4320                 0.0796

                     13                     14                     15
                      A                      A                      A
 Frequencies --    353.7837               451.8530               464.7767
 Red. masses --      2.4292                 1.9254                 2.2254
 Frc consts  --      0.1791                 0.2316                 0.2832
 IR Inten    --      2.6114                23.2876                13.8979

                     16                     17                     18
                      A                      A                      A
 Frequencies --    478.7353               581.1592               657.7577
 Red. masses --      2.3703                 4.0674                 4.1542
 Frc consts  --      0.3201                 0.8094                 1.0589
 IR Inten    --     40.0113                 0.8809                 6.0457

                     19                     20                     21
                      A                      A                      A
 Frequencies --    660.0844               675.6844               693.7822
 Red. masses --      4.5700                 2.9165                 3.4464
 Frc consts  --      1.1732                 0.7845                 0.9774
 IR Inten    --      6.5544                17.6387                 4.3244

                     22                     23                     24
                      A                      A                      A
 Frequencies --    725.2855               736.0867               778.3339
 Red. masses --      4.0388                 3.5878                 4.2788
 Frc consts  --      1.2518                 1.1453                 1.5272
 IR Inten    --      3.2333                 4.9989                 4.3838

                     25                     26                     27
                      A                      A                      A
 Frequencies --    829.6151               917.5488               938.7049
 Red. masses --      1.4712                 2.6181                 2.8552
 Frc consts  --      0.5966                 1.2987                 1.4823
 IR Inten    --      7.7823                 1.7301                 7.4354

                     28                     29                     30
                      A                      A                      A
 Frequencies --    973.1571               976.0918               992.4364
 Red. masses --      4.1167                 7.7423                 4.3808
 Frc consts  --      2.2970                 4.3461                 2.5422
 IR Inten    --     18.7423                 0.6077                 0.6204

                     31                     32                     33
                      A                      A                      A
 Frequencies --   1002.6475              1016.7764              1024.1872
 Red. masses --      1.5537                 3.6508                 1.7459
 Frc consts  --      0.9203                 2.2238                 1.0790
 IR Inten    --      1.8306                 8.3028                13.6174

                     34                     35                     36
                      A                      A                      A
 Frequencies --   1071.7541              1082.0377              1097.7255
 Red. masses --      1.4533                 1.4825                 2.6294
 Frc consts  --      0.9836                 1.0226                 1.8668
 IR Inten    --      4.0084                 1.5294                 6.6791

                     37                     38                     39
                      A                      A                      A
 Frequencies --   1126.0473              1178.0643              1199.0399
 Red. masses --      5.6404                 3.1486                 1.7136
 Frc consts  --      4.2138                 2.5746                 1.4515
 IR Inten    --     51.2980                18.9457                 6.2349

                     40                     41                     42
                      A                      A                      A
 Frequencies --   1241.2051              1250.2056              1257.1265
 Red. masses --      2.3213                 1.7637                 1.2921
 Frc consts  --      2.1070                 1.6242                 1.2031
 IR Inten    --      4.4304                 3.2275                 2.5269

                     43                     44                     45
                      A                      A                      A
 Frequencies --   1317.1958              1334.7368              1380.8635
 Red. masses --      2.3313                 1.8169                 1.4730
 Frc consts  --      2.3832                 1.9071                 1.6548
 IR Inten    --     23.9017                 2.9610                 5.6255

                     46                     47                     48
                      A                      A                      A
 Frequencies --   1403.6451              1432.1160              1444.9046
 Red. masses --      1.9401                 1.6287                 1.3054
 Frc consts  --      2.2521                 1.9681                 1.6058
 IR Inten    --      4.1045                 1.6563                 2.2861

                     49                     50                     51
                      A                      A                      A
 Frequencies --   1455.7071              1498.5466              1502.2819
 Red. masses --      1.6966                 1.3082                 1.3585
 Frc consts  --      2.1183                 1.7309                 1.8064
 IR Inten    --      2.7972                23.1440                12.2881

                     52                     53                     54
                      A                      A                      A
 Frequencies --   1511.7848              1514.1444              1514.8538
 Red. masses --      1.1705                 1.6289                 1.0520
 Frc consts  --      1.5762                 2.2003                 1.4224
 IR Inten    --      2.9475                12.7831                 1.5535

                     55                     56                     57
                      A                      A                      A
 Frequencies --   1518.2130              1532.6840              1548.1696
 Red. masses --      1.2117                 1.4833                 2.1304
 Frc consts  --      1.6456                 2.0530                 3.0085
 IR Inten    --      2.4548                 4.4517                 4.7304

                     58                     59                     60
                      A                      A                      A
 Frequencies --   1562.6451              1620.3748              1640.9366
 Red. masses --      5.9768                 8.9638                 5.1814
 Frc consts  --      8.5989                13.8667                 8.2202
 IR Inten    --     19.5381                48.0053                13.2134

                     61                     62                     63
                      A                      A                      A
 Frequencies --   3040.8093              3048.0376              3053.4876
 Red. masses --      1.0400                 1.0641                 1.0407
 Frc consts  --      5.6658                 5.8249                 5.7172
 IR Inten    --     31.4187                34.5359                21.3922

                     64                     65                     66
                      A                      A                      A
 Frequencies --   3077.3723              3095.3614              3100.1697
 Red. masses --      1.0615                 1.0984                 1.0975
 Frc consts  --      5.9231                 6.2005                 6.2147
 IR Inten    --     11.9041                19.4153                15.7254

                     67                     68                     69
                      A                      A                      A
 Frequencies --   3109.6932              3126.0993              3130.1461
 Red. masses --      1.0968                 1.1004                 1.1051
 Frc consts  --      6.2492                 6.3360                 6.3792
 IR Inten    --     10.7684                17.2493                11.3135

                     70                     71                     72
                      A                      A                      A
 Frequencies --   3148.3017              3314.3849              3662.0534
 Red. masses --      1.1013                 1.1003                 1.0810
 Frc consts  --      6.4312                 7.1216                 8.5412
 IR Inten    --      9.0045                 0.2444                62.3297

 - Thermochemistry -
 -------------------
 Temperature   298.150 Kelvin.  Pressure   1.00000 Atm.
 Atom     1 has atomic number  6 and mass  12.00000

 Molecular mass:   192.10111 amu.
 Principal axes and moments of inertia in atomic units:
                           1         2         3
     Eigenvalues --  1601.484843281.138583756.48473
           X            0.99932  -0.03517   0.01092
           Y            0.03536   0.99922  -0.01779
           Z           -0.01029   0.01817   0.99978
 This molecule is an asymmetric top.
 Rotational symmetry number  1.
 Warning -- assumption of classical behavior for rotation
           may cause significant error
 Rotational temperatures (Kelvin)      0.05408     0.02640     0.02306
 Rotational constants (GHZ):           1.12692     0.55004     0.48043
 Zero-point vibrational energy     556123.8 (Joules/Mol)
                                  132.91678 (Kcal/Mol)
 Warning -- explicit consideration of  17 degrees of freedom as
           vibrations may cause significant error
 Vibrational temperatures:     27.12    76.68    93.17   116.73   138.90
          (Kelvin)            152.97   196.43   249.85   369.68   380.72
                              459.30   479.66   509.02   650.12   668.71
                              688.79   836.16   946.37   949.71   972.16
                              998.20  1043.52  1059.06  1119.85  1193.63
                             1320.15  1350.59  1400.16  1404.38  1427.89
                             1442.59  1462.91  1473.58  1542.02  1556.81
                             1579.38  1620.13  1694.97  1725.15  1785.82
                             1798.77  1808.72  1895.15  1920.39  1986.75
                             2019.53  2060.50  2078.90  2094.44  2156.07
                             2161.45  2175.12  2178.52  2179.54  2184.37
                             2205.19  2227.47  2248.30  2331.36  2360.94
                             4375.05  4385.45  4393.29  4427.65  4453.53
                             4460.45  4474.15  4497.76  4503.58  4529.70
                             4768.66  5268.88

 Zero-point correction=                           0.211816 (Hartree/Particle)
 Thermal correction to Energy=                    0.225146
 Thermal correction to Enthalpy=                  0.226090
 Thermal correction to Gibbs Free Energy=         0.169870
 Sum of electronic and zero-point Energies=           -644.211485
 Sum of electronic and thermal Energies=              -644.198155
 Sum of electronic and thermal Enthalpies=            -644.197211
 Sum of electronic and thermal Free Energies=         -644.253431

                     E (Thermal)             CV                S
                      KCal/Mol        Cal/Mol-Kelvin    Cal/Mol-Kelvin
 Total                  141.281             48.052            118.324
 Electronic               0.000              0.000              0.000
 Translational            0.889              2.981             41.664
 Rotational               0.889              2.981             31.357
 Vibrational            139.504             42.091             45.303
 Vibration     1          0.593              1.986              6.752
 Vibration     2          0.596              1.976              4.691
 Vibration     3          0.597              1.971              4.307
 Vibration     4          0.600              1.962              3.863
 Vibration     5          0.603              1.952              3.523
 Vibration     6          0.605              1.944              3.335
 Vibration     7          0.614              1.917              2.852
 Vibration     8          0.627              1.875              2.396
 Vibration     9          0.667              1.751              1.682
 Vibration    10          0.671              1.738              1.631
 Vibration    11          0.705              1.637              1.314
 Vibration    12          0.715              1.609              1.244
 Vibration    13          0.730              1.567              1.149
 Vibration    14          0.811              1.357              0.790
 Vibration    15          0.822              1.328              0.752
 Vibration    16          0.835              1.297              0.713
 Vibration    17          0.938              1.072              0.483

 Optimization completed.
    -- Stationary point found.
 Normal termination of Gaussian 16 at Thu Dec 10 11:06:19 2020.

 ----------------------------------------------------------------------
 # B3LYP/6-311++G(d,p) empiricaldispersion=gd3bj scf=xqc pop=npa geom=c
 heck
 ----------------------------------------------------------------------

 ---------------------------------------
 CID_137774368_JID_4860_Energie_neutraal
 ---------------------------------------
 Structure from the checkpoint file:  "JID_4860.chk"
 Charge =  0 Multiplicity = 1

 SCF Done:  E(RB3LYP) =  -644.597987244     A.U. after   15 cycles
 Normal termination of Gaussian 16 at Thu Dec 10 11:09:09 2020.

 ----------------------------------------------------------------------
 # B3LYP/6-311++G(d,p) empiricaldispersion=gd3bj scf=xqc pop=npa geom=c
 heck
 ----------------------------------------------------------------------

 -------------------------------------
 CID_137774368_JID_4860_Energie_kation
 -------------------------------------
 Structure from the checkpoint file:  "JID_4860.chk"
 Charge =  1 Multiplicity = 2

 SCF Done:  E(UB3LYP) =  -644.286156261     A.U. after   30 cycles
 Normal termination of Gaussian 16 at Thu Dec 10 11:16:40 2020.
 Gaussian 16:  ES64L-G16RevA.03 25-Dec-2016

 ----------------------------------------------------------------------
 # B3LYP/6-311++G(d,p) empiricaldispersion=gd3bj scf=xqc pop=npa geom=c
 heck
 ----------------------------------------------------------------------

 ------------------------------------
 CID_137774368_JID_4860_Energie_anion
 ------------------------------------
 Structure from the checkpoint file:  "JID_4860.chk"
 Charge = -1 Multiplicity = 2

                         Standard orientation:
 ---------------------------------------------------------------------
 Center     Atomic      Atomic             Coordinates (Angstroms)
 Number     Number       Type             X           Y           Z
 ---------------------------------------------------------------------
      1          6           0        2.857013   -1.644099    0.652637
      2          6           0        2.179685   -0.369203    0.268775
      3          6           0        1.147805   -0.109688   -0.621779
      4          6           0        0.919226    1.293473   -0.524698
      5          7           0        1.749848    1.860712    0.351116
      6          7           0        2.497945    0.833061    0.820300
      7          6           0       -0.082225    2.122039   -1.269066
      8          6           0        0.388952   -1.104755   -1.445016
      9          6           0       -0.719293   -1.845131   -0.647259
     10          6           0       -1.684134   -0.896460   -0.030706
     11          7           0       -2.745577   -0.364593   -0.551874
     12          7           0       -3.247891    0.541578    0.397657
     13          6           0       -2.443767    0.473586    1.405595
     14          8           0       -1.428895   -0.411806    1.224485
     15          1           0        2.407947   -2.095081    1.547165
     16          1           0        2.780250   -2.375172   -0.158136
     17          1           0        3.922345   -1.489451    0.858942
     18          1           0        3.224412    1.027566    1.492420
     19          1           0        0.045487    3.174645   -1.004470
     20          1           0        0.044815    2.022358   -2.354041
     21          1           0       -1.112337    1.829544   -1.038645
     22          1           0       -0.081820   -0.600918   -2.295864
     23          1           0        1.062692   -1.864728   -1.860800
     24          1           0       -1.274096   -2.511190   -1.314799
     25          1           0       -0.265323   -2.451723    0.142811
     26          1           0       -2.483064    1.014722    2.338253
 ---------------------------------------------------------------------

 SCF Done:  E(UB3LYP) =  -644.590104456     A.U. after   31 cycles

 The electronic state is 2-A.
 Alpha  occ. eigenvalues --  -19.11534 -14.26986 -14.24850 -14.23981 -14.21704
 Alpha  occ. eigenvalues --  -10.17071 -10.16972 -10.10414 -10.09282 -10.08790
 Alpha  occ. eigenvalues --  -10.08234 -10.06789 -10.06588 -10.05864  -1.06501
 Alpha  occ. eigenvalues --   -0.93369  -0.88546  -0.75816  -0.72596  -0.70975
 Alpha  occ. eigenvalues --   -0.66316  -0.61360  -0.60296  -0.57383  -0.55720
 Alpha  occ. eigenvalues --   -0.50266  -0.46593  -0.45742  -0.43318  -0.41587
 Alpha  occ. eigenvalues --   -0.40513  -0.37057  -0.35592  -0.34711  -0.33538
 Alpha  occ. eigenvalues --   -0.32555  -0.31541  -0.30524  -0.30272  -0.29517
 Alpha  occ. eigenvalues --   -0.28671  -0.27851  -0.26774  -0.25456  -0.25023
 Alpha  occ. eigenvalues --   -0.23045  -0.19298  -0.18789  -0.18377  -0.14078
 Alpha  occ. eigenvalues --   -0.12897   0.04331
 Alpha virt. eigenvalues --    0.06842   0.07517   0.07806   0.08545   0.09322
 Alpha virt. eigenvalues --    0.09627   0.10775   0.11144   0.11217   0.12099
 Alpha virt. eigenvalues --    0.12424   0.13300   0.13735   0.14217   0.14476

  Beta  occ. eigenvalues --  -19.11467 -14.26953 -14.24860 -14.23962 -14.21697
  Beta  occ. eigenvalues --  -10.17013 -10.16899 -10.10414 -10.09267 -10.08790
  Beta  occ. eigenvalues --  -10.08201 -10.06787 -10.06503 -10.05861  -1.06401
  Beta  occ. eigenvalues --   -0.93342  -0.88494  -0.75720  -0.72562  -0.70939
  Beta  occ. eigenvalues --   -0.66259  -0.61333  -0.60197  -0.57316  -0.55637
  Beta  occ. eigenvalues --   -0.50180  -0.46532  -0.45714  -0.43251  -0.41498
  Beta  occ. eigenvalues --   -0.40290  -0.36987  -0.35514  -0.34660  -0.33488
  Beta  occ. eigenvalues --   -0.32503  -0.31508  -0.30457  -0.30183  -0.29490
  Beta  occ. eigenvalues --   -0.28619  -0.27791  -0.26731  -0.25354  -0.24897
  Beta  occ. eigenvalues --   -0.23030  -0.19261  -0.18626  -0.18235  -0.14059
  Beta  occ. eigenvalues --   -0.12876
  Beta virt. eigenvalues --    0.07157   0.07542   0.08242   0.08343   0.08727
  Beta virt. eigenvalues --    0.10103   0.10236   0.11077   0.11337   0.11919
  Beta virt. eigenvalues --    0.12357   0.12655   0.13563   0.13846   0.14607

 Mulliken charges and spin densities:
               1          2
     1  C    4.026550  -4.476710
     2  C   -2.033290   2.376194
     3  C    0.672484  -0.143496
     4  C   -0.121398  -0.255640
     5  N   -0.108010   0.174504
     6  N   -0.213445  -0.070034
     7  C   -0.486380  -0.380953
     8  C   -0.937449   0.410756
     9  C    0.692070  -0.926959
    10  C   -0.480771   0.046953
    11  N   -0.067643   0.053334
    12  N   -0.064902  -0.033149
    13  C   -0.071267   0.137360
    14  O    0.105140   0.034471
    15  H   -0.552449   0.752695
    16  H   -0.453287   0.624340
    17  H   -0.692411   0.843843
    18  H   -0.146390   0.492802
    19  H    0.172931  -0.021812
    20  H    0.088172   0.060297
    21  H    0.077458  -0.008764
    22  H    0.253759  -0.103493
    23  H   -0.565046   0.788785
    24  H   -0.204593   0.396835
    25  H    0.042008   0.131250
    26  H    0.068157   0.096591
 Sum of Mulliken charges =  -1.00000   1.00000

 Dipole moment (field-independent basis, Debye):
    X=             -5.8822    Y=              4.2277    Z=             -0.4297  Tot=              7.2566
 Quadrupole moment (field-independent basis, Debye-Ang):
   XX=           -155.5854   YY=           -127.8114   ZZ=           -108.6924
   XY=             12.1466   XZ=            -13.5815   YZ=             -1.4020

 Summary of Natural Population Analysis:

                                       Natural Population
                Natural  -----------------------------------------------
    Atom  No    Charge         Core      Valence    Rydberg      Total
 -----------------------------------------------------------------------
      C    1   -0.30404      0.99964     2.29812    0.00628     3.30404
      C    2    0.09272      0.99948     1.89529    0.01251     2.90728
      C    3   -0.08280      0.99941     2.07124    0.01214     3.08280
      C    4    0.07524      0.99954     1.90997    0.01525     2.92476
      N    5   -0.16842      0.99970     2.65595    0.01276     3.66842
      N    6   -0.16813      0.99965     2.65567    0.01281     3.66813
      C    7   -0.30052      0.99963     2.29633    0.00457     3.30052
      C    8   -0.18861      0.99960     2.17936    0.00966     3.18861
      C    9   -0.21669      0.99957     2.20740    0.00972     3.21669
      C   10    0.27293      0.99960     1.70592    0.02156     2.72707
      N   11   -0.17168      0.99966     2.66016    0.01185     3.67168
      N   12   -0.16696      0.99972     2.65478    0.01246     3.66696
      C   13    0.17152      0.99965     1.81044    0.01839     2.82848
      O   14   -0.22828      0.99986     3.22060    0.00782     4.22828
      H   15    0.11106      0.00000     0.38577    0.00316     0.38894
      H   16    0.11297      0.00000     0.38361    0.00342     0.38703
      H   17    0.11057      0.00000     0.38546    0.00397     0.38943
      H   18    0.19923      0.00000     0.29675    0.00402     0.30077
      H   19    0.10687      0.00000     0.39220    0.00092     0.39313
      H   20    0.10054      0.00000     0.39854    0.00092     0.39946
      H   21    0.10754      0.00000     0.39104    0.00143     0.39246
      H   22    0.10286      0.00000     0.39593    0.00122     0.39714
      H   23    0.11039      0.00000     0.38789    0.00172     0.38961
      H   24    0.11376      0.00000     0.38479    0.00144     0.38624
      H   25    0.11414      0.00000     0.38408    0.00178     0.38586
      H   26    0.09379      0.00000     0.40508    0.00114     0.40621
 =======================================================================
   * Total *    0.00000     13.99470    36.81238    0.19292    51.00000

 Normal termination of Gaussian 16 at Thu Dec 10 11:24:22 2020.
