 Gaussian 16, Revision A.03,

 -----------------------------------------------------------
 # opt freq B3LYP/6-31G(d) empiricaldispersion=gd3bj scf=xqc
 -----------------------------------------------------------

 -------------------------------
 CID_131551881_JID_6011_neutraal
 -------------------------------
 Symbolic Z-matrix:
 Charge =  0 Multiplicity = 1

 SCF Done:  E(RB3LYP) =  -708.453636940     A.U. after   16 cycles
 SCF Done:  E(RB3LYP) =  -708.458039223     A.U. after   13 cycles
 SCF Done:  E(RB3LYP) =  -708.458111674     A.U. after   13 cycles
 SCF Done:  E(RB3LYP) =  -708.456079136     A.U. after   14 cycles
 SCF Done:  E(RB3LYP) =  -708.458674225     A.U. after   12 cycles
 SCF Done:  E(RB3LYP) =  -708.458726087     A.U. after   12 cycles
 SCF Done:  E(RB3LYP) =  -708.458767469     A.U. after   13 cycles
 SCF Done:  E(RB3LYP) =  -708.458782961     A.U. after   11 cycles
 SCF Done:  E(RB3LYP) =  -708.458793189     A.U. after   11 cycles
 SCF Done:  E(RB3LYP) =  -708.458796972     A.U. after    9 cycles
 SCF Done:  E(RB3LYP) =  -708.458797291     A.U. after    9 cycles
 SCF Done:  E(RB3LYP) =  -708.458797398     A.U. after    8 cycles
 Optimization completed.
    -- Stationary point found.
 Normal termination of Gaussian 16 at Thu Dec 10 21:10:49 2020.

 --------------------------------------------------------------------
 #N Geom=AllCheck Guess=TCheck SCRF=Check GenChk RB3LYP/6-31G(d) Freq
 --------------------------------------------------------------------

 Structure from the checkpoint file:  "JID_6011.chk"
 -------------------------------
 CID_131551881_JID_6011_neutraal
 -------------------------------
 Charge =  0 Multiplicity = 1

 SCF Done:  E(RB3LYP) =  -708.458797398     A.U. after    1 cycles

  Exact polarizability: 172.169  -4.200 172.653   0.733   1.334  79.862
 Approx polarizability: 273.557  -2.535 278.249   5.678   4.140 122.563

                      1                      2                      3
                      A                      A                      A
 Frequencies --     29.3265                64.7610                68.9369
 Red. masses --      8.2006                 4.7551                 3.8231
 Frc consts  --      0.0042                 0.0117                 0.0107
 IR Inten    --      0.4121                 0.7709                 0.8278

                      4                      5                      6
                      A                      A                      A
 Frequencies --    125.6734               168.3041               196.4685
 Red. masses --      6.3415                 3.6800                 4.7069
 Frc consts  --      0.0590                 0.0614                 0.1070
 IR Inten    --      1.4388                 1.4678                 4.3680

                      7                      8                      9
                      A                      A                      A
 Frequencies --    208.9981               237.9175               258.5140
 Red. masses --      1.6121                 1.5053                 1.5064
 Frc consts  --      0.0415                 0.0502                 0.0593
 IR Inten    --      2.4234                 0.2572                 1.3632

                     10                     11                     12
                      A                      A                      A
 Frequencies --    278.3500               288.1434               311.3255
 Red. masses --      2.3234                 2.6255                 5.3214
 Frc consts  --      0.1061                 0.1284                 0.3039
 IR Inten    --      1.0238                 3.7961                13.3075

                     13                     14                     15
                      A                      A                      A
 Frequencies --    327.1143               343.9571               392.4504
 Red. masses --      3.4420                 4.0992                 4.1717
 Frc consts  --      0.2170                 0.2857                 0.3786
 IR Inten    --      2.0312                 7.6783                 3.7505

                     16                     17                     18
                      A                      A                      A
 Frequencies --    426.5220               450.8013               463.3787
 Red. masses --      4.1821                 3.4530                 3.2578
 Frc consts  --      0.4483                 0.4134                 0.4121
 IR Inten    --      7.7799                 2.8009                 1.5209

                     19                     20                     21
                      A                      A                      A
 Frequencies --    482.9022               497.5249               534.7716
 Red. masses --      3.5850                 3.9610                 4.7855
 Frc consts  --      0.4926                 0.5777                 0.8063
 IR Inten    --      1.4333                 1.7148                 0.2102

                     22                     23                     24
                      A                      A                      A
 Frequencies --    556.6783               606.6247               647.5756
 Red. masses --      3.9829                 4.1029                 8.2665
 Frc consts  --      0.7272                 0.8896                 2.0425
 IR Inten    --      0.4158                 2.9319                 2.8509

                     25                     26                     27
                      A                      A                      A
 Frequencies --    694.0783               722.5886               747.8443
 Red. masses --      5.5409                 6.1098                 3.0155
 Frc consts  --      1.5727                 1.8796                 0.9936
 IR Inten    --      3.8321                 0.2986                 3.3952

                     28                     29                     30
                      A                      A                      A
 Frequencies --    769.2517               814.9560               831.1758
 Red. masses --      2.1957                 2.3893                 3.5641
 Frc consts  --      0.7655                 0.9350                 1.4507
 IR Inten    --     38.9630                 5.9088                 0.8426

                     31                     32                     33
                      A                      A                      A
 Frequencies --    862.5687               923.3054               939.2826
 Red. masses --      2.6436                 2.0871                 3.7261
 Frc consts  --      1.1589                 1.0483                 1.9368
 IR Inten    --      7.8861                 5.5416                22.8327

                     34                     35                     36
                      A                      A                      A
 Frequencies --    947.5122               955.4601               974.0583
 Red. masses --      1.6447                 1.5961                 1.9230
 Frc consts  --      0.8700                 0.8585                 1.0750
 IR Inten    --     16.4699                 9.9827                33.9201

                     37                     38                     39
                      A                      A                      A
 Frequencies --    982.8815              1018.6725              1029.9145
 Red. masses --      1.2953                 1.6731                 1.8662
 Frc consts  --      0.7373                 1.0229                 1.1663
 IR Inten    --      0.7153                 0.5128                14.7747

                     40                     41                     42
                      A                      A                      A
 Frequencies --   1066.0921              1082.6130              1116.5024
 Red. masses --      1.6830                 3.1094                 1.8363
 Frc consts  --      1.1270                 2.1472                 1.3487
 IR Inten    --      4.3185                50.4428                 5.6393

                     43                     44                     45
                      A                      A                      A
 Frequencies --   1160.5810              1194.3437              1201.9131
 Red. masses --      1.6465                 1.6494                 1.2405
 Frc consts  --      1.3067                 1.3862                 1.0558
 IR Inten    --     66.9703                77.6433                 3.2994

                     46                     47                     48
                      A                      A                      A
 Frequencies --   1263.0380              1268.5726              1283.6104
 Red. masses --      1.9831                 1.8641                 1.8672
 Frc consts  --      1.8639                 1.7674                 1.8126
 IR Inten    --     65.4549                 5.0702                12.7903

                     49                     50                     51
                      A                      A                      A
 Frequencies --   1296.3907              1301.2131              1328.3638
 Red. masses --      3.3760                 2.6007                 2.7289
 Frc consts  --      3.3429                 2.5944                 2.8371
 IR Inten    --    171.1155                41.8038                85.0964

                     52                     53                     54
                      A                      A                      A
 Frequencies --   1360.6584              1390.2841              1399.5568
 Red. masses --      3.7517                 2.0026                 1.5782
 Frc consts  --      4.0923                 2.2806                 1.8213
 IR Inten    --     35.2899                 8.5253                 2.4400

                     55                     56                     57
                      A                      A                      A
 Frequencies --   1433.0622              1450.2738              1495.4423
 Red. masses --      1.3171                 1.2369                 2.5054
 Frc consts  --      1.5936                 1.5327                 3.3012
 IR Inten    --     16.3624                12.8393               133.1764

                     58                     59                     60
                      A                      A                      A
 Frequencies --   1503.2489              1508.7651              1516.8931
 Red. masses --      1.1471                 1.1499                 2.2364
 Frc consts  --      1.5273                 1.5422                 3.0319
 IR Inten    --     14.2823                 7.9360                62.7499

                     61                     62                     63
                      A                      A                      A
 Frequencies --   1520.8216              1525.2958              1527.8436
 Red. masses --      1.0886                 1.0673                 1.1129
 Frc consts  --      1.4835                 1.4630                 1.5306
 IR Inten    --      7.6949                 7.7284                 2.6240

                     64                     65                     66
                      A                      A                      A
 Frequencies --   1546.2869              1645.7694              1649.2443
 Red. masses --      1.0673                 7.0917                 5.8608
 Frc consts  --      1.5035                11.3172                 9.3924
 IR Inten    --      8.4236                62.5141                71.0536

                     67                     68                     69
                      A                      A                      A
 Frequencies --   1730.5422              2341.8059              3037.1942
 Red. masses --     12.8372                12.7258                 1.0675
 Frc consts  --     22.6509                41.1184                 5.8017
 IR Inten    --    277.0007                13.0325                19.7411

                     70                     71                     72
                      A                      A                      A
 Frequencies --   3057.9661              3061.8253              3067.4185
 Red. masses --      1.0591                 1.0354                 1.0396
 Frc consts  --      5.8352                 5.7190                 5.7631
 IR Inten    --     10.9881                17.4926                16.0937

                     73                     74                     75
                      A                      A                      A
 Frequencies --   3083.0656              3106.1641              3133.0246
 Red. masses --      1.0931                 1.1043                 1.1021
 Frc consts  --      6.1218                 6.2777                 6.3736
 IR Inten    --     27.2437                23.3137                14.5717

                     76                     77                     78
                      A                      A                      A
 Frequencies --   3137.2862              3143.7244              3149.1624
 Red. masses --      1.1027                 1.1037                 1.1030
 Frc consts  --      6.3945                 6.4270                 6.4449
 IR Inten    --     35.8815                 7.2993                15.3980

                     79                     80                     81
                      A                      A                      A
 Frequencies --   3179.4597              3211.8905              3231.4625
 Red. masses --      1.0889                 1.0907                 1.0939
 Frc consts  --      6.4854                 6.6294                 6.7305
 IR Inten    --     11.1175                11.6736                 5.5864

 - Thermochemistry -
 -------------------
 Temperature   298.150 Kelvin.  Pressure   1.00000 Atm.
 Atom     1 has atomic number  6 and mass  12.00000

 Molecular mass:   215.09463 amu.
 Principal axes and moments of inertia in atomic units:
                           1         2         3
     Eigenvalues --  2585.351173167.809185312.62696
           X            0.99401  -0.10932  -0.00052
           Y            0.10932   0.99400   0.00293
           Z            0.00019  -0.00296   1.00000
 This molecule is an asymmetric top.
 Rotational symmetry number  1.
 Warning -- assumption of classical behavior for rotation
           may cause significant error
 Rotational temperatures (Kelvin)      0.03350     0.02734     0.01630
 Rotational constants (GHZ):           0.69806     0.56971     0.33971
 Zero-point vibrational energy     615414.3 (Joules/Mol)
                                  147.08756 (Kcal/Mol)
 Warning -- explicit consideration of  23 degrees of freedom as
           vibrations may cause significant error
 Vibrational temperatures:     42.19    93.18    99.18   180.82   242.15
          (Kelvin)            282.67   300.70   342.31   371.94   400.48
                              414.57   447.93   470.64   494.88   564.65
                              613.67   648.60   666.70   694.79   715.83
                              769.42   800.94   872.80   931.72   998.62
                             1039.64  1075.98  1106.78  1172.54  1195.88
                             1241.04  1328.43  1351.42  1363.26  1374.69
                             1401.45  1414.15  1465.64  1481.82  1533.87
                             1557.64  1606.40  1669.82  1718.39  1729.28
                             1817.23  1825.19  1846.83  1865.22  1872.16
                             1911.22  1957.68  2000.31  2013.65  2061.86
                             2086.62  2151.61  2162.84  2170.78  2182.47
                             2188.12  2194.56  2198.23  2224.76  2367.90
                             2372.89  2489.86  3369.34  4369.85  4399.73
                             4405.28  4413.33  4435.84  4469.08  4507.72
                             4513.86  4523.12  4530.94  4574.53  4621.19
                             4649.35

 Zero-point correction=                           0.234399 (Hartree/Particle)
 Thermal correction to Energy=                    0.248624
 Thermal correction to Enthalpy=                  0.249569
 Thermal correction to Gibbs Free Energy=         0.193316
 Sum of electronic and zero-point Energies=           -708.224398
 Sum of electronic and thermal Energies=              -708.210173
 Sum of electronic and thermal Enthalpies=            -708.209229
 Sum of electronic and thermal Free Energies=         -708.265482

                     E (Thermal)             CV                S
                      KCal/Mol        Cal/Mol-Kelvin    Cal/Mol-Kelvin
 Total                  156.014             55.334            118.395
 Electronic               0.000              0.000              0.000
 Translational            0.889              2.981             42.001
 Rotational               0.889              2.981             32.142
 Vibrational            154.237             49.373             44.251
 Vibration     1          0.593              1.984              5.874
 Vibration     2          0.597              1.971              4.307
 Vibration     3          0.598              1.969              4.183
 Vibration     4          0.611              1.927              3.011
 Vibration     5          0.625              1.881              2.454
 Vibration     6          0.636              1.845              2.166
 Vibration     7          0.642              1.827              2.052
 Vibration     8          0.656              1.783              1.818
 Vibration     9          0.667              1.748              1.672
 Vibration    10          0.679              1.714              1.544
 Vibration    11          0.685              1.696              1.485
 Vibration    12          0.700              1.652              1.355
 Vibration    13          0.711              1.621              1.274
 Vibration    14          0.723              1.588              1.194
 Vibration    15          0.760              1.486              0.991
 Vibration    16          0.788              1.413              0.870
 Vibration    17          0.810              1.359              0.793
 Vibration    18          0.821              1.331              0.756
 Vibration    19          0.839              1.288              0.702
 Vibration    20          0.853              1.256              0.664
 Vibration    21          0.890              1.173              0.577
 Vibration    22          0.912              1.125              0.531
 Vibration    23          0.965              1.018              0.438

                           ! Non-Optimized Parameters !
 Normal termination of Gaussian 16 at Thu Dec 10 21:21:43 2020.

 ----------------------------------------------------------------------
 # B3LYP/6-311++G(d,p) empiricaldispersion=gd3bj scf=xqc pop=npa geom=c
 heck
 ----------------------------------------------------------------------

 ---------------------------------------
 CID_131551881_JID_6011_Energie_neutraal
 ---------------------------------------
 Structure from the checkpoint file:  "JID_6011.chk"
 Charge =  0 Multiplicity = 1

 SCF Done:  E(RB3LYP) =  -708.646342465     A.U. after   15 cycles
 Normal termination of Gaussian 16 at Thu Dec 10 21:25:45 2020.

 ----------------------------------------------------------------------
 # B3LYP/6-311++G(d,p) empiricaldispersion=gd3bj scf=xqc pop=npa geom=c
 heck
 ----------------------------------------------------------------------

 -------------------------------------
 CID_131551881_JID_6011_Energie_kation
 -------------------------------------
 Structure from the checkpoint file:  "JID_6011.chk"
 Charge =  1 Multiplicity = 2

 SCF Done:  E(UB3LYP) =  -708.333157302     A.U. after   25 cycles
 Normal termination of Gaussian 16 at Thu Dec 10 21:36:14 2020.
 Gaussian 16:  ES64L-G16RevA.03 25-Dec-2016

 ----------------------------------------------------------------------
 # B3LYP/6-311++G(d,p) empiricaldispersion=gd3bj scf=xqc pop=npa geom=c
 heck
 ----------------------------------------------------------------------

 ------------------------------------
 CID_131551881_JID_6011_Energie_anion
 ------------------------------------
 Structure from the checkpoint file:  "JID_6011.chk"
 Charge = -1 Multiplicity = 2

                         Standard orientation:
 ---------------------------------------------------------------------
 Center     Atomic      Atomic             Coordinates (Angstroms)
 Number     Number       Type             X           Y           Z
 ---------------------------------------------------------------------
      1          6           0        2.685142   -1.694178   -0.729258
      2          6           0        2.048988   -0.498405   -0.031307
      3          6           0        2.555833    0.831785   -0.600973
      4          6           0        1.780599    2.021849   -0.026386
      5          6           0        0.292285    1.754040   -0.012697
      6          6           0       -0.185489    0.436440   -0.135924
      7          8           0        0.630460   -0.617470   -0.351350
      8          6           0       -1.572640    0.167948   -0.088333
      9          6           0       -2.476521    1.237496    0.024650
     10          6           0       -2.016087    2.540571    0.128870
     11          6           0       -0.638569    2.783730    0.117031
     12          6           0       -2.142033   -1.192110   -0.114053
     13          8           0       -3.334979   -1.422870   -0.251641
     14          6           0       -1.262044   -2.360251    0.115391
     15          7           0       -0.692392   -3.348823    0.334154
     16          6           0        2.197070   -0.600764    1.488464
     17          1           0        2.217416   -2.621187   -0.385786
     18          1           0        2.552663   -1.620728   -1.813037
     19          1           0        3.756806   -1.733769   -0.508787
     20          1           0        3.626948    0.933284   -0.396139
     21          1           0        2.433239    0.800141   -1.690031
     22          1           0        2.124078    2.233093    0.995294
     23          1           0        1.991465    2.925611   -0.609335
     24          1           0       -3.535659    1.005528    0.045361
     25          1           0       -2.715102    3.365016    0.224281
     26          1           0       -0.272390    3.804599    0.201742
     27          1           0        1.644561    0.192044    2.001467
     28          1           0        1.808070   -1.563182    1.832543
     29          1           0        3.251585   -0.524871    1.774439
 ---------------------------------------------------------------------

 SCF Done:  E(UB3LYP) =  -708.687734517     A.U. after   23 cycles

 The electronic state is 2-A.
 Alpha  occ. eigenvalues --  -19.02197 -18.92376 -14.14181 -10.13519 -10.09867
 Alpha  occ. eigenvalues --  -10.08365 -10.07526 -10.07324 -10.06304 -10.06205
 Alpha  occ. eigenvalues --  -10.04863 -10.04184 -10.03748 -10.03656 -10.03247
 Alpha  occ. eigenvalues --  -10.02728  -0.94726  -0.86980  -0.74036  -0.72665
 Alpha  occ. eigenvalues --   -0.71914  -0.66421  -0.62037  -0.60128  -0.59307
 Alpha  occ. eigenvalues --   -0.53349  -0.52390  -0.50411  -0.45905  -0.42033
 Alpha  occ. eigenvalues --   -0.40342  -0.38587  -0.36578  -0.35283  -0.33655
 Alpha  occ. eigenvalues --   -0.33164  -0.31608  -0.30746  -0.29723  -0.29187
 Alpha  occ. eigenvalues --   -0.27843  -0.27500  -0.26983  -0.26769  -0.25766
 Alpha  occ. eigenvalues --   -0.25342  -0.24210  -0.22539  -0.21700  -0.21337
 Alpha  occ. eigenvalues --   -0.20654  -0.19728  -0.17587  -0.16030  -0.11981
 Alpha  occ. eigenvalues --   -0.09903  -0.09646   0.02123
 Alpha virt. eigenvalues --    0.06791   0.08408   0.09094   0.09544   0.10624
 Alpha virt. eigenvalues --    0.11068   0.11265   0.12593   0.12887   0.13317
 Alpha virt. eigenvalues --    0.13533   0.13818   0.14289   0.15050   0.15576

  Beta  occ. eigenvalues --  -19.02175 -18.91614 -14.13901 -10.13520 -10.09737
  Beta  occ. eigenvalues --  -10.07991 -10.07526 -10.07323 -10.06303 -10.06205
  Beta  occ. eigenvalues --  -10.04894 -10.04244 -10.03838 -10.03397 -10.03274
  Beta  occ. eigenvalues --  -10.02511  -0.94653  -0.85639  -0.73618  -0.72460
  Beta  occ. eigenvalues --   -0.71884  -0.66317  -0.61638  -0.60073  -0.59227
  Beta  occ. eigenvalues --   -0.53220  -0.51368  -0.50376  -0.45457  -0.41911
  Beta  occ. eigenvalues --   -0.40252  -0.38438  -0.36532  -0.35224  -0.33571
  Beta  occ. eigenvalues --   -0.32972  -0.31432  -0.30649  -0.29696  -0.29093
  Beta  occ. eigenvalues --   -0.27356  -0.27171  -0.26902  -0.26623  -0.25387
  Beta  occ. eigenvalues --   -0.24115  -0.23731  -0.21849  -0.21307  -0.20962
  Beta  occ. eigenvalues --   -0.20361  -0.19355  -0.15987  -0.15519  -0.10557
  Beta  occ. eigenvalues --   -0.09261  -0.08905
  Beta virt. eigenvalues --    0.06771   0.08372   0.08609   0.09341   0.09513
  Beta virt. eigenvalues --    0.10593   0.11042   0.11628   0.12649   0.13174
  Beta virt. eigenvalues --    0.13345   0.13797   0.14267   0.14662   0.15293

 Mulliken charges and spin densities:
               1          2
     1  C   -0.402720  -0.000426
     2  C    0.466328   0.001095
     3  C   -0.566828   0.002584
     4  C   -0.226700   0.017481
     5  C    0.377322  -0.052425
     6  C   -0.458112   0.065573
     7  O    0.040226   0.017488
     8  C    0.540990  -0.026792
     9  C   -0.125917   0.211939
    10  C   -0.300567  -0.073441
    11  C   -0.337836   0.234174
    12  C   -0.290975   0.257199
    13  O   -0.379626   0.275807
    14  C   -0.233505  -0.056937
    15  N   -0.379485   0.145437
    16  C   -0.608878  -0.000699
    17  H    0.171869  -0.000467
    18  H    0.146875   0.001016
    19  H    0.114463  -0.000142
    20  H    0.151802  -0.000140
    21  H    0.143667   0.001367
    22  H    0.166130   0.002062
    23  H    0.157915   0.003578
    24  H    0.164416  -0.013884
    25  H    0.117879   0.004928
    26  H    0.100421  -0.018415
    27  H    0.140933   0.001289
    28  H    0.180197   0.000622
    29  H    0.129715   0.000128
 Sum of Mulliken charges =  -1.00000   1.00000

 Dipole moment (field-independent basis, Debye):
    X=              9.2666    Y=              6.1887    Z=              0.1861  Tot=             11.1448
 Quadrupole moment (field-independent basis, Debye-Ang):
   XX=           -124.7160   YY=           -133.6406   ZZ=           -101.9358
   XY=            -10.7772   XZ=             -1.6212   YZ=              1.3009

 Summary of Natural Population Analysis:

                                       Natural Population
                Natural  -----------------------------------------------
    Atom  No    Charge         Core      Valence    Rydberg      Total
 -----------------------------------------------------------------------
      C    1   -0.28974      0.99960     2.28421    0.00593     3.28974
      C    2    0.13933      0.99954     1.84678    0.01435     2.86067
      C    3   -0.19800      0.99958     2.19109    0.00733     3.19800
      C    4   -0.19121      0.99961     2.18435    0.00725     3.19121
      C    5   -0.07303      0.99948     2.06603    0.00752     3.07303
      C    6    0.19616      0.99933     1.79106    0.01345     2.80384
      O    7   -0.28344      0.99984     3.27072    0.01289     4.28344
      C    8   -0.08512      0.99946     2.07441    0.01126     3.08512
      C    9   -0.03215      0.99954     2.02419    0.00842     3.03215
      C   10   -0.14449      0.99957     2.13557    0.00934     3.14449
      C   11   -0.04066      0.99954     2.03218    0.00894     3.04066
      C   12    0.25273      0.99951     1.72639    0.02137     2.74727
      O   13   -0.19369      0.99988     3.18820    0.00561     4.19369
      C   14    0.12128      0.99963     1.85658    0.02251     2.87872
      N   15   -0.17359      0.99978     2.66155    0.01226     3.67359
      C   16   -0.30055      0.99961     2.29528    0.00567     3.30055
      H   17    0.11615      0.00000     0.38299    0.00086     0.38385
      H   18    0.10172      0.00000     0.39743    0.00085     0.39828
      H   19    0.09269      0.00000     0.40657    0.00073     0.40731
      H   20    0.09603      0.00000     0.40293    0.00104     0.40397
      H   21    0.10011      0.00000     0.39889    0.00100     0.39989
      H   22    0.09511      0.00000     0.40367    0.00122     0.40489
      H   23    0.09950      0.00000     0.39929    0.00122     0.40050
      H   24    0.10623      0.00000     0.39262    0.00115     0.39377
      H   25    0.09188      0.00000     0.40706    0.00106     0.40812
      H   26    0.08547      0.00000     0.41314    0.00139     0.41453
      H   27    0.10594      0.00000     0.39337    0.00068     0.39406
      H   28    0.11178      0.00000     0.38736    0.00086     0.38822
      H   29    0.09357      0.00000     0.40559    0.00084     0.40643
 =======================================================================
   * Total *   -0.00000     15.99351    40.81949    0.18700    57.00000

 Normal termination of Gaussian 16 at Thu Dec 10 21:45:38 2020.
