 Gaussian 16, Revision A.03,

 -----------------------------------------------------------
 # opt freq B3LYP/6-31G(d) empiricaldispersion=gd3bj scf=xqc
 -----------------------------------------------------------

 ------------------------------
 CID_65698286_JID_4722_neutraal
 ------------------------------
 Symbolic Z-matrix:
 Charge =  0 Multiplicity = 1

 SCF Done:  E(RB3LYP) =  -637.035814969     A.U. after   14 cycles
 SCF Done:  E(RB3LYP) =  -637.038665588     A.U. after   12 cycles
 SCF Done:  E(RB3LYP) =  -637.035649024     A.U. after   13 cycles
 SCF Done:  E(RB3LYP) =  -637.039069037     A.U. after   11 cycles
 SCF Done:  E(RB3LYP) =  -637.040229231     A.U. after   12 cycles
 SCF Done:  E(RB3LYP) =  -637.040563523     A.U. after   11 cycles
 SCF Done:  E(RB3LYP) =  -637.041155499     A.U. after   11 cycles
 SCF Done:  E(RB3LYP) =  -637.041560128     A.U. after   12 cycles
 SCF Done:  E(RB3LYP) =  -637.041448691     A.U. after   12 cycles
 SCF Done:  E(RB3LYP) =  -637.042137570     A.U. after   11 cycles
 SCF Done:  E(RB3LYP) =  -637.046342140     A.U. after    8 cycles
 SCF Done:  E(RB3LYP) =  -637.046342689     A.U. after    8 cycles
 SCF Done:  E(RB3LYP) =  -637.046343109     A.U. after    8 cycles
 SCF Done:  E(RB3LYP) =  -637.046343446     A.U. after    8 cycles
 SCF Done:  E(RB3LYP) =  -637.046343570     A.U. after    6 cycles
 Optimization completed.
    -- Stationary point found.
 Normal termination of Gaussian 16 at Thu Dec 10 10:52:40 2020.

 --------------------------------------------------------------------
 #N Geom=AllCheck Guess=TCheck SCRF=Check GenChk RB3LYP/6-31G(d) Freq
 --------------------------------------------------------------------

 Structure from the checkpoint file:  "JID_4722.chk"
 ------------------------------
 CID_65698286_JID_4722_neutraal
 ------------------------------
 Charge =  0 Multiplicity = 1

 SCF Done:  E(RB3LYP) =  -637.046343570     A.U. after    1 cycles

  Exact polarizability: 142.077   0.267 123.682   0.873  -0.027 109.496
 Approx polarizability: 179.600   0.332 171.005   4.928  -6.981 173.900

                      1                      2                      3
                      A                      A                      A
 Frequencies --     20.9346                53.4665                58.9811
 Red. masses --      4.0873                 5.3884                 3.7814
 Frc consts  --      0.0011                 0.0091                 0.0078
 IR Inten    --      0.1487                 1.2768                 0.3750

                      4                      5                      6
                      A                      A                      A
 Frequencies --     78.4833               111.3351               153.5630
 Red. masses --      3.4797                 2.6935                 2.8734
 Frc consts  --      0.0126                 0.0197                 0.0399
 IR Inten    --      0.1520                 0.5338                 0.9899

                      7                      8                      9
                      A                      A                      A
 Frequencies --    162.7375               202.3166               215.5397
 Red. masses --      3.1913                 2.1349                 2.5007
 Frc consts  --      0.0498                 0.0515                 0.0684
 IR Inten    --      0.5752                 1.0439                 0.4070

                     10                     11                     12
                      A                      A                      A
 Frequencies --    237.8841               245.3577               259.1220
 Red. masses --      1.2590                 1.2434                 2.9571
 Frc consts  --      0.0420                 0.0441                 0.1170
 IR Inten    --      0.1382                 0.1852                 0.8922

                     13                     14                     15
                      A                      A                      A
 Frequencies --    291.6139               303.8604               332.6040
 Red. masses --      2.3659                 1.0954                 1.1070
 Frc consts  --      0.1185                 0.0596                 0.0722
 IR Inten    --      0.1926                 0.0963                 0.5889

                     16                     17                     18
                      A                      A                      A
 Frequencies --    336.2820               357.4634               379.6389
 Red. masses --      3.1637                 2.8455                 3.0033
 Frc consts  --      0.2108                 0.2142                 0.2550
 IR Inten    --      1.6787                 1.3401                 2.7838

                     19                     20                     21
                      A                      A                      A
 Frequencies --    390.9262               403.1741               429.5585
 Red. masses --      2.8441                 2.4247                 2.1178
 Frc consts  --      0.2561                 0.2322                 0.2302
 IR Inten    --      0.9650                 1.1656                 1.3656

                     22                     23                     24
                      A                      A                      A
 Frequencies --    445.6355               483.6346               571.5643
 Red. masses --      2.5862                 2.3671                 2.8332
 Frc consts  --      0.3026                 0.3262                 0.5453
 IR Inten    --      3.4903                 0.6169                13.8778

                     25                     26                     27
                      A                      A                      A
 Frequencies --    631.4925               672.5097               754.4399
 Red. masses --      1.4029                 3.9055                 3.4297
 Frc consts  --      0.3296                 1.0407                 1.1502
 IR Inten    --     63.6736                37.4733                 1.1045

                     28                     29                     30
                      A                      A                      A
 Frequencies --    758.5078               789.6746               839.7551
 Red. masses --      2.8769                 1.1859                 1.2594
 Frc consts  --      0.9752                 0.4357                 0.5232
 IR Inten    --     43.5307                 5.6640                14.9629

                     31                     32                     33
                      A                      A                      A
 Frequencies --    882.6661               889.5925               904.7649
 Red. masses --      2.1171                 3.1718                 3.2005
 Frc consts  --      0.9718                 1.4789                 1.5436
 IR Inten    --      8.9225                11.5566                11.4507

                     34                     35                     36
                      A                      A                      A
 Frequencies --    915.4116               932.7312               953.0322
 Red. masses --      2.1982                 2.8372                 1.6581
 Frc consts  --      1.0853                 1.4543                 0.8873
 IR Inten    --     12.8647                 2.0436                 2.2137

                     37                     38                     39
                      A                      A                      A
 Frequencies --    955.3329               974.5303               983.5547
 Red. masses --      1.5455                 1.2486                 2.2699
 Frc consts  --      0.8311                 0.6986                 1.2938
 IR Inten    --      0.4952                 0.6997                 7.1048

                     40                     41                     42
                      A                      A                      A
 Frequencies --   1007.5130              1061.7927              1068.7680
 Red. masses --      2.5463                 1.4509                 1.3884
 Frc consts  --      1.5228                 0.9638                 0.9344
 IR Inten    --      5.0520                 4.8608                 4.7216

                     43                     44                     45
                      A                      A                      A
 Frequencies --   1073.4541              1086.2848              1089.9444
 Red. masses --      1.5147                 1.7749                 1.4447
 Frc consts  --      1.0283                 1.2340                 1.0112
 IR Inten    --     16.8984               100.0948                12.6001

                     46                     47                     48
                      A                      A                      A
 Frequencies --   1139.8199              1153.3281              1157.7604
 Red. masses --      2.4018                 1.1104                 1.3883
 Frc consts  --      1.8384                 0.8702                 1.0964
 IR Inten    --    106.5587                 1.0664                10.1227

                     49                     50                     51
                      A                      A                      A
 Frequencies --   1175.7750              1191.2670              1213.1251
 Red. masses --      2.2636                 1.9780                 1.4007
 Frc consts  --      1.8437                 1.6539                 1.2145
 IR Inten    --     89.0408                89.0998                 1.5523

                     52                     53                     54
                      A                      A                      A
 Frequencies --   1234.3633              1255.0066              1265.6774
 Red. masses --      1.8656                 2.3858                 2.4175
 Frc consts  --      1.6748                 2.2139                 2.2818
 IR Inten    --      2.2009                 7.9555                35.2491

                     55                     56                     57
                      A                      A                      A
 Frequencies --   1291.9472              1298.9996              1316.0988
 Red. masses --      2.3980                 2.2904                 1.8836
 Frc consts  --      2.3583                 2.2771                 1.9223
 IR Inten    --      8.4049                 1.3835                11.2852

                     58                     59                     60
                      A                      A                      A
 Frequencies --   1334.7477              1379.2445              1405.8522
 Red. masses --      1.3476                 1.3668                 1.6382
 Frc consts  --      1.4145                 1.5320                 1.9076
 IR Inten    --      9.2582                 4.1815                 5.8719

                     61                     62                     63
                      A                      A                      A
 Frequencies --   1417.5097              1422.0363              1424.7167
 Red. masses --      1.5065                 1.2788                 1.3243
 Frc consts  --      1.7835                 1.5236                 1.5838
 IR Inten    --     22.2264                 5.2906                 8.3700

                     64                     65                     66
                      A                      A                      A
 Frequencies --   1432.0798              1456.8054              1489.6876
 Red. masses --      1.4503                 1.2328                 1.1766
 Frc consts  --      1.7524                 1.5415                 1.5383
 IR Inten    --      6.0566                12.2611                 1.7084

                     67                     68                     69
                      A                      A                      A
 Frequencies --   1496.0707              1510.7048              1515.4319
 Red. masses --      1.0939                 1.0502                 1.0650
 Frc consts  --      1.4425                 1.4121                 1.4410
 IR Inten    --      0.8222                 0.0995                 0.7009

                     70                     71                     72
                      A                      A                      A
 Frequencies --   1523.5826              1523.9875              1529.5751
 Red. masses --      1.0759                 1.0514                 1.0556
 Frc consts  --      1.4715                 1.4387                 1.4551
 IR Inten    --      0.7870                 0.7193                 4.0582

                     73                     74                     75
                      A                      A                      A
 Frequencies --   1533.4914              1535.2227              1539.4195
 Red. masses --      1.0514                 1.3313                 1.0625
 Frc consts  --      1.4568                 1.8488                 1.4835
 IR Inten    --     10.3060                 2.7297                 1.8502

                     76                     77                     78
                      A                      A                      A
 Frequencies --   1544.7585              1557.7237              1854.3646
 Red. masses --      1.0569                 1.0593                 9.6950
 Frc consts  --      1.4860                 1.5144                19.6422
 IR Inten    --      5.1164                19.1853               218.2629

                     79                     80                     81
                      A                      A                      A
 Frequencies --   2928.5289              2942.7530              2984.3217
 Red. masses --      1.0809                 1.0634                 1.0735
 Frc consts  --      5.4619                 5.4257                 5.6329
 IR Inten    --     44.7198                96.7047                61.4530

                     82                     83                     84
                      A                      A                      A
 Frequencies --   3033.9826              3037.3299              3044.8659
 Red. masses --      1.0353                 1.0362                 1.0375
 Frc consts  --      5.6150                 5.6320                 5.6672
 IR Inten    --     27.6326                44.1227                11.6613

                     85                     86                     87
                      A                      A                      A
 Frequencies --   3096.1884              3099.2311              3101.7583
 Red. masses --      1.1020                 1.1014                 1.1016
 Frc consts  --      6.2242                 6.2331                 6.2445
 IR Inten    --      3.5296                36.6630                28.1143

                     88                     89                     90
                      A                      A                      A
 Frequencies --   3108.4978              3109.1312              3125.6989
 Red. masses --      1.0748                 1.0996                 1.1007
 Frc consts  --      6.1191                 6.2629                 6.3357
 IR Inten    --     22.3335                79.0629                13.6237

                     91                     92                     93
                      A                      A                      A
 Frequencies --   3129.0489              3131.4510              3143.5463
 Red. masses --      1.0890                 1.0995                 1.0535
 Frc consts  --      6.2820                 6.3523                 6.1337
 IR Inten    --     16.6084                37.0783                15.1475

                     94                     95                     96
                      A                      A                      A
 Frequencies --   3155.5742              3165.9980              3198.9382
 Red. masses --      1.0557                 1.0987                 1.0897
 Frc consts  --      6.1937                 6.4889                 6.5699
 IR Inten    --     11.0161                17.3902                 1.7327

                     97                     98                     99
                      A                      A                      A
 Frequencies --   3221.0149              3239.2704              3677.3271
 Red. masses --      1.1189                 1.1159                 1.0638
 Frc consts  --      6.8396                 6.8986                 8.4758
 IR Inten    --      2.9571                14.4239                45.3240

 - Thermochemistry -
 -------------------
 Temperature   298.150 Kelvin.  Pressure   1.00000 Atm.
 Atom     1 has atomic number  6 and mass  12.00000

 Molecular mass:   199.15723 amu.
 Principal axes and moments of inertia in atomic units:
                           1         2         3
     Eigenvalues --  1806.363303886.806234785.47042
           X            0.99984  -0.01715   0.00562
           Y            0.01702   0.99959   0.02315
           Z           -0.00602  -0.02305   0.99972
 This molecule is an asymmetric top.
 Rotational symmetry number  1.
 Warning -- assumption of classical behavior for rotation
           may cause significant error
 Rotational temperatures (Kelvin)      0.04795     0.02228     0.01810
 Rotational constants (GHZ):           0.99910     0.46432     0.37713
 Zero-point vibrational energy     822708.2 (Joules/Mol)
                                  196.63198 (Kcal/Mol)
 Warning -- explicit consideration of  24 degrees of freedom as
           vibrations may cause significant error
 Vibrational temperatures:     30.12    76.93    84.86   112.92   160.19
          (Kelvin)            220.94   234.14   291.09   310.11   342.26
                              353.01   372.82   419.57   437.19   478.54
                              483.83   514.31   546.22   562.46   580.08
                              618.04   641.17   695.84   822.35   908.58
                              967.59  1085.47  1091.32  1136.17  1208.22
                             1269.96  1279.93  1301.75  1317.07  1341.99
                             1371.20  1374.51  1402.13  1415.12  1449.59
                             1527.68  1537.72  1544.46  1562.92  1568.19
                             1639.95  1659.38  1665.76  1691.68  1713.97
                             1745.42  1775.97  1805.67  1821.03  1858.82
                             1868.97  1893.57  1920.40  1984.43  2022.71
                             2039.48  2045.99  2049.85  2060.44  2096.02
                             2143.33  2152.51  2173.57  2180.37  2192.10
                             2192.68  2200.72  2206.35  2208.84  2214.88
                             2222.56  2241.22  2668.02  4213.50  4233.97
                             4293.77  4365.22  4370.04  4380.88  4454.72
                             4459.10  4462.74  4472.43  4473.35  4497.18
                             4502.00  4505.46  4522.86  4540.17  4555.16
                             4602.56  4634.32  4660.59  5290.85

 Zero-point correction=                           0.313353 (Hartree/Particle)
 Thermal correction to Energy=                    0.329419
 Thermal correction to Enthalpy=                  0.330363
 Thermal correction to Gibbs Free Energy=         0.269885
 Sum of electronic and zero-point Energies=           -636.732991
 Sum of electronic and thermal Energies=              -636.716925
 Sum of electronic and thermal Enthalpies=            -636.715980
 Sum of electronic and thermal Free Energies=         -636.776459

                     E (Thermal)             CV                S
                      KCal/Mol        Cal/Mol-Kelvin    Cal/Mol-Kelvin
 Total                  206.714             60.837            127.288
 Electronic               0.000              0.000              0.000
 Translational            0.889              2.981             41.772
 Rotational               0.889              2.981             31.886
 Vibrational            204.936             54.875             53.631
 Vibration     1          0.593              1.986              6.544
 Vibration     2          0.596              1.976              4.685
 Vibration     3          0.596              1.974              4.491
 Vibration     4          0.600              1.964              3.928
 Vibration     5          0.607              1.940              3.246
 Vibration     6          0.619              1.899              2.628
 Vibration     7          0.623              1.888              2.518
 Vibration     8          0.639              1.837              2.112
 Vibration     9          0.645              1.817              1.996
 Vibration    10          0.656              1.783              1.819
 Vibration    11          0.660              1.770              1.764
 Vibration    12          0.668              1.747              1.668
 Vibration    13          0.687              1.689              1.465
 Vibration    14          0.695              1.666              1.396
 Vibration    15          0.715              1.610              1.247
 Vibration    16          0.717              1.603              1.230
 Vibration    17          0.733              1.560              1.133
 Vibration    18          0.750              1.514              1.041
 Vibration    19          0.759              1.490              0.997
 Vibration    20          0.769              1.463              0.951
 Vibration    21          0.791              1.406              0.860
 Vibration    22          0.805              1.371              0.809
 Vibration    23          0.840              1.286              0.700
 Vibration    24          0.928              1.093              0.501

 Optimization completed.
    -- Stationary point found.
 Normal termination of Gaussian 16 at Thu Dec 10 11:04:06 2020.

 ----------------------------------------------------------------------
 # B3LYP/6-311++G(d,p) empiricaldispersion=gd3bj scf=xqc pop=npa geom=c
 heck
 ----------------------------------------------------------------------

 --------------------------------------
 CID_65698286_JID_4722_Energie_neutraal
 --------------------------------------
 Structure from the checkpoint file:  "JID_4722.chk"
 Charge =  0 Multiplicity = 1

 SCF Done:  E(RB3LYP) =  -637.236663653     A.U. after   14 cycles
 Normal termination of Gaussian 16 at Thu Dec 10 11:10:01 2020.

 ----------------------------------------------------------------------
 # B3LYP/6-311++G(d,p) empiricaldispersion=gd3bj scf=xqc pop=npa geom=c
 heck
 ----------------------------------------------------------------------

 ------------------------------------
 CID_65698286_JID_4722_Energie_kation
 ------------------------------------
 Structure from the checkpoint file:  "JID_4722.chk"
 Charge =  1 Multiplicity = 2

 SCF Done:  E(UB3LYP) =  -636.942774579     A.U. after   19 cycles
 Normal termination of Gaussian 16 at Thu Dec 10 11:20:16 2020.
 Gaussian 16:  ES64L-G16RevA.03 25-Dec-2016

 ----------------------------------------------------------------------
 # B3LYP/6-311++G(d,p) empiricaldispersion=gd3bj scf=xqc pop=npa geom=c
 heck
 ----------------------------------------------------------------------

 -----------------------------------
 CID_65698286_JID_4722_Energie_anion
 -----------------------------------
 Structure from the checkpoint file:  "JID_4722.chk"
 Charge = -1 Multiplicity = 2

                         Standard orientation:
 ---------------------------------------------------------------------
 Center     Atomic      Atomic             Coordinates (Angstroms)
 Number     Number       Type             X           Y           Z
 ---------------------------------------------------------------------
      1          6           0       -3.021881    1.341598   -0.376254
      2          6           0       -2.472986   -0.075039   -0.148486
      3          6           0       -3.567422   -0.953846    0.478156
      4          6           0       -2.039577   -0.664940   -1.498578
      5          6           0       -1.269488   -0.063778    0.826499
      6          7           0       -0.132780    0.746523    0.369420
      7          6           0       -0.076855    2.047068    1.028744
      8          6           0        1.167403    0.087123    0.416743
      9          6           0        1.197872   -1.269151   -0.275824
     10          6           0        2.397256   -2.164799   -0.078093
     11          6           0        1.067187   -2.551749    0.510175
     12          6           0        2.196981    0.937077   -0.330098
     13          8           0        2.027865    1.492635   -1.390087
     14          8           0        3.390950    0.943451    0.318043
     15          1           0       -3.899640    1.311057   -1.032846
     16          1           0       -2.270806    1.979403   -0.852404
     17          1           0       -3.329973    1.809183    0.567607
     18          1           0       -4.443371   -1.012846   -0.178161
     19          1           0       -3.207252   -1.976299    0.647557
     20          1           0       -3.899213   -0.550053    1.442923
     21          1           0       -1.228041   -0.069606   -1.927936
     22          1           0       -1.688444   -1.697895   -1.384191
     23          1           0       -2.876969   -0.672196   -2.206362
     24          1           0       -1.611054    0.285606    1.815123
     25          1           0       -0.946762   -1.097980    0.962568
     26          1           0        0.220535    1.972525    2.092796
     27          1           0        0.632979    2.701013    0.514188
     28          1           0       -1.055583    2.526087    0.985004
     29          1           0        1.537455   -0.041701    1.452299
     30          1           0        0.765299   -1.247981   -1.271030
     31          1           0        2.765279   -2.714909   -0.938864
     32          1           0        3.174433   -1.821968    0.598793
     33          1           0        0.950482   -2.473807    1.588127
     34          1           0        0.513499   -3.371053    0.060045
     35          1           0        4.005157    1.431686   -0.262718
 ---------------------------------------------------------------------

 SCF Done:  E(UB3LYP) =  -637.221969905     A.U. after   33 cycles
 SCF Done:  E(UB3LYP) =  -637.221969905     a.u. after    1 cycles

 The electronic state is 2-A.
 Alpha  occ. eigenvalues --  -19.07260 -19.01828 -14.21265 -10.20780 -10.12338
 Alpha  occ. eigenvalues --  -10.09249 -10.09205 -10.09084 -10.08421 -10.08302
 Alpha  occ. eigenvalues --  -10.08086 -10.06081 -10.05982 -10.05484  -1.01281
 Alpha  occ. eigenvalues --   -0.92424  -0.83657  -0.77200  -0.72203  -0.65225
 Alpha  occ. eigenvalues --   -0.60879  -0.58969  -0.58599  -0.54445  -0.51563
 Alpha  occ. eigenvalues --   -0.51291  -0.46976  -0.44360  -0.41994  -0.40237
 Alpha  occ. eigenvalues --   -0.39286  -0.38969  -0.37418  -0.35590  -0.35320
 Alpha  occ. eigenvalues --   -0.34439  -0.33292  -0.32628  -0.32119  -0.30420
 Alpha  occ. eigenvalues --   -0.30019  -0.28804  -0.28128  -0.27672  -0.26767
 Alpha  occ. eigenvalues --   -0.26397  -0.25619  -0.23524  -0.23042  -0.22845
 Alpha  occ. eigenvalues --   -0.22750  -0.20954  -0.20640  -0.17955  -0.12532
 Alpha  occ. eigenvalues --    0.04343
 Alpha virt. eigenvalues --    0.05971   0.06839   0.07451   0.08159   0.08644
 Alpha virt. eigenvalues --    0.09017   0.09222   0.09648   0.10241   0.10988
 Alpha virt. eigenvalues --    0.11226   0.11811   0.12156   0.12463   0.13653

  Beta  occ. eigenvalues --  -19.07210 -19.01817 -14.21255 -10.20777 -10.12324
  Beta  occ. eigenvalues --  -10.09245 -10.09194 -10.09068 -10.08417 -10.08280
  Beta  occ. eigenvalues --  -10.08067 -10.06053 -10.05964 -10.05469  -1.01220
  Beta  occ. eigenvalues --   -0.92372  -0.83636  -0.77184  -0.72187  -0.65189
  Beta  occ. eigenvalues --   -0.60851  -0.58924  -0.58567  -0.54374  -0.51518
  Beta  occ. eigenvalues --   -0.51225  -0.46920  -0.44325  -0.41955  -0.40210
  Beta  occ. eigenvalues --   -0.39258  -0.38928  -0.37389  -0.35562  -0.35291
  Beta  occ. eigenvalues --   -0.34411  -0.33261  -0.32601  -0.32091  -0.30396
  Beta  occ. eigenvalues --   -0.29991  -0.28779  -0.28105  -0.27647  -0.26743
  Beta  occ. eigenvalues --   -0.26374  -0.25593  -0.23501  -0.23011  -0.22821
  Beta  occ. eigenvalues --   -0.22728  -0.20933  -0.20613  -0.17919  -0.12486
  Beta virt. eigenvalues --    0.06385   0.07241   0.07514   0.08036   0.08664
  Beta virt. eigenvalues --    0.08917   0.09385   0.09497   0.09898   0.10552
  Beta virt. eigenvalues --    0.11282   0.11493   0.11949   0.12512   0.12782

 Mulliken charges and spin densities:
               1          2
     1  C    0.180326  -0.829246
     2  C   -0.290908   1.346196
     3  C    0.380064  -0.951748
     4  C   -0.359951  -0.357109
     5  C   -0.642528  -0.369747
     6  N    0.508128   0.081293
     7  C    0.434335  -0.724077
     8  C    0.885810  -1.891561
     9  C   -1.976469   2.584583
    10  C    0.364723  -0.978128
    11  C    0.643008  -1.089250
    12  C    0.373033  -0.510033
    13  O   -0.261113   0.031859
    14  O   -0.117950   0.044704
    15  H   -0.037846   0.184757
    16  H    0.130292   0.022438
    17  H   -0.117687   0.261403
    18  H   -0.157104   0.303309
    19  H   -0.148902   0.281837
    20  H   -0.203500   0.333657
    21  H    0.201739  -0.029977
    22  H   -0.000847   0.147249
    23  H   -0.045087   0.195962
    24  H   -0.042937   0.219154
    25  H    0.255236  -0.076823
    26  H   -0.090997   0.211821
    27  H   -0.077895   0.244679
    28  H    0.140340  -0.005550
    29  H    0.117515   0.119223
    30  H   -0.005531   0.246748
    31  H   -0.189450   0.345637
    32  H   -0.037553   0.196564
    33  H   -0.210902   0.364769
    34  H   -0.149145   0.304722
    35  H   -0.450249   0.740683
 Sum of Mulliken charges =  -1.00000   1.00000

 Dipole moment (field-independent basis, Debye):
    X=             -1.7136    Y=              0.3235    Z=             -0.0210  Tot=              1.7440
 Quadrupole moment (field-independent basis, Debye-Ang):
   XX=           -169.4231   YY=           -135.5165   ZZ=           -123.6918
   XY=             -8.0036   XZ=              3.2431   YZ=              1.7114

 Summary of Natural Population Analysis:

                                       Natural Population
                Natural  -----------------------------------------------
    Atom  No    Charge         Core      Valence    Rydberg      Total
 -----------------------------------------------------------------------
      C    1   -0.28738      0.99962     2.28055    0.00721     3.28738
      C    2   -0.05367      0.99958     2.04260    0.01149     3.05367
      C    3   -0.28475      0.99963     2.27776    0.00737     3.28475
      C    4   -0.28698      0.99962     2.28004    0.00731     3.28698
      C    5   -0.08204      0.99955     2.07032    0.01217     3.08204
      N    6   -0.28120      0.99970     2.76895    0.01255     3.78120
      C    7   -0.17729      0.99964     2.16977    0.00788     3.17729
      C    8   -0.04445      0.99950     2.02960    0.01536     3.04445
      C    9   -0.12195      0.99956     2.11218    0.01021     3.12195
      C   10   -0.19415      0.99961     2.18569    0.00885     3.19415
      C   11   -0.19708      0.99961     2.18845    0.00902     3.19708
      C   12    0.41079      0.99969     1.56224    0.02728     2.58921
      O   13   -0.30307      0.99986     3.29700    0.00621     4.30307
      O   14   -0.34507      0.99988     3.33806    0.00713     4.34507
      H   15    0.09876      0.00000     0.40047    0.00077     0.40124
      H   16    0.10398      0.00000     0.39496    0.00106     0.39602
      H   17    0.09760      0.00000     0.40153    0.00087     0.40240
      H   18    0.10003      0.00000     0.39896    0.00101     0.39997
      H   19    0.09994      0.00000     0.39889    0.00117     0.40006
      H   20    0.09923      0.00000     0.39968    0.00110     0.40077
      H   21    0.10760      0.00000     0.39105    0.00135     0.39240
      H   22    0.09824      0.00000     0.40070    0.00106     0.40176
      H   23    0.09721      0.00000     0.40203    0.00077     0.40279
      H   24    0.08972      0.00000     0.40881    0.00147     0.41028
      H   25    0.10267      0.00000     0.39518    0.00214     0.39733
      H   26    0.08171      0.00000     0.41721    0.00108     0.41829
      H   27    0.09958      0.00000     0.39940    0.00102     0.40042
      H   28    0.09936      0.00000     0.39970    0.00094     0.40064
      H   29    0.09396      0.00000     0.40368    0.00236     0.40604
      H   30    0.11376      0.00000     0.38427    0.00197     0.38624
      H   31    0.10435      0.00000     0.39475    0.00090     0.39565
      H   32    0.10810      0.00000     0.39070    0.00120     0.39190
      H   33    0.10307      0.00000     0.39573    0.00120     0.39693
      H   34    0.10581      0.00000     0.39302    0.00117     0.39419
      H   35    0.24363      0.00000     0.24082    0.01556     0.25637
 =======================================================================
   * Total *   -0.00000     13.99504    40.81475    0.19021    55.00000

 Normal termination of Gaussian 16 at Thu Dec 10 11:37:57 2020.
