 Gaussian 16, Revision A.03,

 -----------------------------------------------------------
 # opt freq B3LYP/6-31G(d) empiricaldispersion=gd3bj scf=xqc
 -----------------------------------------------------------

 -------------------------------
 CID_151035940_JID_5079_neutraal
 -------------------------------
 Symbolic Z-matrix:
 Charge =  0 Multiplicity = 1

 SCF Done:  E(RB3LYP) =  -661.411564041     A.U. after   16 cycles
 SCF Done:  E(RB3LYP) =  -661.412812678     A.U. after   15 cycles
 SCF Done:  E(RB3LYP) =  -661.414640046     A.U. after   13 cycles
 SCF Done:  E(RB3LYP) =  -661.414917566     A.U. after   13 cycles
 SCF Done:  E(RB3LYP) =  -661.415094094     A.U. after   12 cycles
 SCF Done:  E(RB3LYP) =  -661.415236082     A.U. after   13 cycles
 SCF Done:  E(RB3LYP) =  -661.415452556     A.U. after   16 cycles
 SCF Done:  E(RB3LYP) =  -661.415757350     A.U. after   12 cycles
 SCF Done:  E(RB3LYP) =  -661.416842835     A.U. after   16 cycles
 SCF Done:  E(RB3LYP) =  -661.416350751     A.U. after   16 cycles
 SCF Done:  E(RB3LYP) =  -661.418162066     A.U. after   10 cycles
 SCF Done:  E(RB3LYP) =  -661.418162215     A.U. after    7 cycles
 SCF Done:  E(RB3LYP) =  -661.418162318     A.U. after    8 cycles
 SCF Done:  E(RB3LYP) =  -661.418162394     A.U. after    8 cycles
 SCF Done:  E(RB3LYP) =  -661.418162419     A.U. after    7 cycles
 Optimization completed.
    -- Stationary point found.
 Normal termination of Gaussian 16 at Thu Dec 10 15:01:23 2020.

 --------------------------------------------------------------------
 #N Geom=AllCheck Guess=TCheck SCRF=Check GenChk RB3LYP/6-31G(d) Freq
 --------------------------------------------------------------------

 Structure from the checkpoint file:  "JID_5079.chk"
 -------------------------------
 CID_151035940_JID_5079_neutraal
 -------------------------------
 Charge =  0 Multiplicity = 1

 SCF Done:  E(RB3LYP) =  -661.418162419     A.U. after    1 cycles

  Exact polarizability: 200.475  -1.466 157.922  -6.913   1.453  66.379
 Approx polarizability: 300.217  -9.861 259.805 -19.074   5.693 101.958

                      1                      2                      3
                      A                      A                      A
 Frequencies --     24.7187                30.4182                36.4756
 Red. masses --      6.4906                 1.0531                 6.6905
 Frc consts  --      0.0023                 0.0006                 0.0052
 IR Inten    --      0.4206                 0.1282                 0.3114

                      4                      5                      6
                      A                      A                      A
 Frequencies --     60.1531                88.0219               131.0386
 Red. masses --      4.3506                 6.3518                 6.1970
 Frc consts  --      0.0093                 0.0290                 0.0627
 IR Inten    --      0.8447                 0.3777                 6.5280

                      7                      8                      9
                      A                      A                      A
 Frequencies --    142.8132               157.8260               200.4722
 Red. masses --      6.0616                 4.6581                 4.7995
 Frc consts  --      0.0728                 0.0684                 0.1136
 IR Inten    --      4.7525                 1.1037                 3.6442

                     10                     11                     12
                      A                      A                      A
 Frequencies --    212.8347               240.7369               267.7737
 Red. masses --      3.2515                 3.7285                 2.1315
 Frc consts  --      0.0868                 0.1273                 0.0900
 IR Inten    --      3.4235                 0.1758                 2.0093

                     13                     14                     15
                      A                      A                      A
 Frequencies --    320.9814               409.7676               415.3692
 Red. masses --      3.3705                 4.6683                 5.5464
 Frc consts  --      0.2046                 0.4618                 0.5638
 IR Inten    --      5.7406                 6.8325                 5.4199

                     16                     17                     18
                      A                      A                      A
 Frequencies --    459.6415               469.2999               535.9248
 Red. masses --      3.7035                 6.9912                 4.3736
 Frc consts  --      0.4610                 0.9072                 0.7401
 IR Inten    --      4.5950                 3.4034                 3.3483

                     19                     20                     21
                      A                      A                      A
 Frequencies --    559.0077               569.2861               580.0678
 Red. masses --      2.5137                 4.8911                 3.1407
 Frc consts  --      0.4628                 0.9339                 0.6226
 IR Inten    --     47.5503                13.0660                68.2220

                     22                     23                     24
                      A                      A                      A
 Frequencies --    595.8778               636.2629               639.0890
 Red. masses --      5.2306                 6.7360                 5.6927
 Frc consts  --      1.0943                 1.6067                 1.3699
 IR Inten    --      0.8456                 2.5788                25.3051

                     25                     26                     27
                      A                      A                      A
 Frequencies --    697.8282               707.8675               850.1941
 Red. masses --      2.2467                 2.4837                 1.6006
 Frc consts  --      0.6446                 0.7333                 0.6817
 IR Inten    --      2.4721                20.3287                 9.3496

                     28                     29                     30
                      A                      A                      A
 Frequencies --    858.9322               866.3652               877.8396
 Red. masses --      1.5734                 1.6841                 1.4130
 Frc consts  --      0.6839                 0.7448                 0.6416
 IR Inten    --      6.0197                36.5880                 0.2013

                     31                     32                     33
                      A                      A                      A
 Frequencies --    906.2813               969.1233              1003.6713
 Red. masses --      2.9387                 4.0833                 2.9112
 Frc consts  --      1.4221                 2.2595                 1.7279
 IR Inten    --      8.2245                 2.3828                 1.2894

                     34                     35                     36
                      A                      A                      A
 Frequencies --   1020.8469              1048.2225              1072.5173
 Red. masses --      3.1965                 2.4301                 2.0081
 Frc consts  --      1.9626                 1.5732                 1.3609
 IR Inten    --     11.2760                10.5608                 4.9092

                     37                     38                     39
                      A                      A                      A
 Frequencies --   1075.6537              1112.9630              1160.9036
 Red. masses --      1.5118                 1.8343                 2.7312
 Frc consts  --      1.0306                 1.3387                 2.1687
 IR Inten    --      5.9911                 3.5245                12.2653

                     40                     41                     42
                      A                      A                      A
 Frequencies --   1191.4006              1228.3126              1252.2231
 Red. masses --      1.5046                 1.8330                 1.1228
 Frc consts  --      1.2583                 1.6294                 1.0374
 IR Inten    --      2.3472                32.9004                24.6724

                     43                     44                     45
                      A                      A                      A
 Frequencies --   1286.0923              1318.7642              1342.5522
 Red. masses --      1.3111                 1.6853                 6.8961
 Frc consts  --      1.2777                 1.7269                 7.3234
 IR Inten    --     39.6042                44.0447               184.3508

                     46                     47                     48
                      A                      A                      A
 Frequencies --   1354.0179              1390.7298              1401.1337
 Red. masses --      1.9946                 2.5643                 1.7738
 Frc consts  --      2.1546                 2.9222                 2.0517
 IR Inten    --     14.1632                67.5055                40.0771

                     49                     50                     51
                      A                      A                      A
 Frequencies --   1419.0645              1443.6664              1471.7267
 Red. masses --      1.5458                 1.2664                 2.4593
 Frc consts  --      1.8341                 1.5551                 3.1384
 IR Inten    --     25.0889                 0.1664                19.5263

                     52                     53                     54
                      A                      A                      A
 Frequencies --   1489.6108              1514.5285              1516.7064
 Red. masses --      2.2555                 1.0887                 1.0510
 Frc consts  --      2.9487                 1.4714                 1.4244
 IR Inten    --     32.2745                21.1688                 7.2356

                     55                     56                     57
                      A                      A                      A
 Frequencies --   1533.5646              1539.8937              1564.8130
 Red. masses --      1.2901                 1.1224                 1.7272
 Frc consts  --      1.7877                 1.5681                 2.4918
 IR Inten    --     81.4787                 4.7742               141.2595

                     58                     59                     60
                      A                      A                      A
 Frequencies --   1654.5827              1660.4174              2273.1491
 Red. masses --      5.0084                 5.3807                13.4676
 Frc consts  --      8.0784                 8.7402                41.0012
 IR Inten    --     26.6793               219.3509               598.4752

                     61                     62                     63
                      A                      A                      A
 Frequencies --   2351.4983              2992.9502              3042.0199
 Red. masses --     12.6816                 1.0713                 1.0569
 Frc consts  --     41.3156                 5.6543                 5.7627
 IR Inten    --     35.3659                44.1217                20.7056

                     64                     65                     66
                      A                      A                      A
 Frequencies --   3048.1765              3079.3406              3090.4294
 Red. masses --      1.0384                 1.0907                 1.1094
 Frc consts  --      5.6847                 6.0934                 6.2428
 IR Inten    --     27.2360                27.9712                31.9414

                     67                     68                     69
                      A                      A                      A
 Frequencies --   3102.8827              3134.5666              3204.8453
 Red. masses --      1.0997                 1.1013                 1.0913
 Frc consts  --      6.2382                 6.3755                 6.6037
 IR Inten    --     18.2794                15.4731                 4.8318

                     70                     71                     72
                      A                      A                      A
 Frequencies --   3205.8786              3217.8545              3563.0949
 Red. masses --      1.0889                 1.0916                 1.0751
 Frc consts  --      6.5939                 6.6597                 8.0418
 IR Inten    --     13.4733                 2.3338                40.7416

 - Thermochemistry -
 -------------------
 Temperature   298.150 Kelvin.  Pressure   1.00000 Atm.
 Atom     1 has atomic number  6 and mass  12.00000

 Molecular mass:   201.10145 amu.
 Principal axes and moments of inertia in atomic units:
                           1         2         3
     Eigenvalues --  1761.767317186.667698832.54337
           X            0.99992  -0.01181  -0.00449
           Y            0.01183   0.99992   0.00385
           Z            0.00445  -0.00390   0.99998
 This molecule is an asymmetric top.
 Rotational symmetry number  1.
 Warning -- assumption of classical behavior for rotation
           may cause significant error
 Rotational temperatures (Kelvin)      0.04916     0.01205     0.00981
 Rotational constants (GHZ):           1.02439     0.25112     0.20433
 Zero-point vibrational energy     537682.9 (Joules/Mol)
                                  128.50929 (Kcal/Mol)
 Warning -- explicit consideration of  22 degrees of freedom as
           vibrations may cause significant error
 Vibrational temperatures:     35.56    43.77    52.48    86.55   126.64
          (Kelvin)            188.54   205.48   227.08   288.43   306.22
                              346.37   385.27   461.82   589.56   597.62
                              661.32   675.22   771.08   804.29   819.08
                              834.59   857.34   915.44   919.51  1004.02
                             1018.46  1223.24  1235.81  1246.51  1263.02
                             1303.94  1394.35  1444.06  1468.77  1508.16
                             1543.11  1547.63  1601.31  1670.28  1714.16
                             1767.27  1801.67  1850.40  1897.41  1931.63
                             1948.13  2000.95  2015.92  2041.72  2077.11
                             2117.49  2143.22  2179.07  2182.20  2206.46
                             2215.56  2251.42  2380.58  2388.97  3270.55
                             3383.28  4306.19  4376.79  4385.65  4430.48
                             4446.44  4464.36  4509.94  4611.06  4612.54
                             4629.77  5126.50

 Zero-point correction=                           0.204793 (Hartree/Particle)
 Thermal correction to Energy=                    0.219435
 Thermal correction to Enthalpy=                  0.220380
 Thermal correction to Gibbs Free Energy=         0.160199
 Sum of electronic and zero-point Energies=           -661.213370
 Sum of electronic and thermal Energies=              -661.198727
 Sum of electronic and thermal Enthalpies=            -661.197783
 Sum of electronic and thermal Free Energies=         -661.257963

                     E (Thermal)             CV                S
                      KCal/Mol        Cal/Mol-Kelvin    Cal/Mol-Kelvin
 Total                  137.698             52.358            126.660
 Electronic               0.000              0.000              0.000
 Translational            0.889              2.981             41.801
 Rotational               0.889              2.981             33.080
 Vibrational            135.920             46.397             51.779
 Vibration     1          0.593              1.985              6.214
 Vibration     2          0.594              1.984              5.802
 Vibration     3          0.594              1.982              5.442
 Vibration     4          0.597              1.973              4.452
 Vibration     5          0.601              1.958              3.704
 Vibration     6          0.612              1.922              2.931
 Vibration     7          0.616              1.910              2.766
 Vibration     8          0.621              1.894              2.576
 Vibration     9          0.638              1.839              2.129
 Vibration    10          0.644              1.821              2.019
 Vibration    11          0.658              1.778              1.797
 Vibration    12          0.673              1.732              1.611
 Vibration    13          0.706              1.633              1.305
 Vibration    14          0.774              1.449              0.927
 Vibration    15          0.779              1.437              0.908
 Vibration    16          0.818              1.340              0.767
 Vibration    17          0.826              1.318              0.740
 Vibration    18          0.891              1.171              0.574
 Vibration    19          0.915              1.120              0.526
 Vibration    20          0.925              1.098              0.506
 Vibration    21          0.937              1.074              0.485
 Vibration    22          0.954              1.041              0.457

                           ! Non-Optimized Parameters !
 Normal termination of Gaussian 16 at Thu Dec 10 15:08:07 2020.

 ----------------------------------------------------------------------
 # B3LYP/6-311++G(d,p) empiricaldispersion=gd3bj scf=xqc pop=npa geom=c
 heck
 ----------------------------------------------------------------------

 ---------------------------------------
 CID_151035940_JID_5079_Energie_neutraal
 ---------------------------------------
 Structure from the checkpoint file:  "JID_5079.chk"
 Charge =  0 Multiplicity = 1

 SCF Done:  E(RB3LYP) =  -661.597534963     A.U. after   16 cycles
 Normal termination of Gaussian 16 at Thu Dec 10 15:11:13 2020.

 ----------------------------------------------------------------------
 # B3LYP/6-311++G(d,p) empiricaldispersion=gd3bj scf=xqc pop=npa geom=c
 heck
 ----------------------------------------------------------------------

 -------------------------------------
 CID_151035940_JID_5079_Energie_kation
 -------------------------------------
 Structure from the checkpoint file:  "JID_5079.chk"
 Charge =  1 Multiplicity = 2

 SCF Done:  E(UB3LYP) =  -661.305234715     A.U. after   28 cycles
 Normal termination of Gaussian 16 at Thu Dec 10 15:21:25 2020.
 Gaussian 16:  ES64L-G16RevA.03 25-Dec-2016

 ----------------------------------------------------------------------
 # B3LYP/6-311++G(d,p) empiricaldispersion=gd3bj scf=xqc pop=npa geom=c
 heck
 ----------------------------------------------------------------------

 ------------------------------------
 CID_151035940_JID_5079_Energie_anion
 ------------------------------------
 Structure from the checkpoint file:  "JID_5079.chk"
 Charge = -1 Multiplicity = 2

                         Standard orientation:
 ---------------------------------------------------------------------
 Center     Atomic      Atomic             Coordinates (Angstroms)
 Number     Number       Type             X           Y           Z
 ---------------------------------------------------------------------
      1          6           0        3.222402   -2.725853   -0.246310
      2          6           0        2.510218   -1.402183   -0.106704
      3          6           0        3.222646   -0.204989   -0.124115
      4          6           0        2.533882    1.011401    0.019904
      5          6           0        1.148418    1.038635    0.182819
      6          6           0        0.420844   -0.164063    0.202403
      7          6           0        1.118672   -1.372984    0.048975
      8          7           0       -0.953458   -0.116710    0.405786
      9          6           0       -1.796945   -1.257073    0.106760
     10          6           0       -3.249303   -0.907320    0.391478
     11          7           0       -3.612353    0.245649   -0.466865
     12          7           0       -4.731254    0.729720   -0.264236
     13          7           0       -5.738115    1.258560   -0.171654
     14          6           0        3.263460    2.245610   -0.003490
     15          7           0        3.858160    3.245013   -0.022968
     16          1           0        4.263045   -2.588045   -0.553293
     17          1           0        3.224960   -3.273875    0.704212
     18          1           0        2.731444   -3.365577   -0.988341
     19          1           0        4.299687   -0.201876   -0.250753
     20          1           0        0.635402    1.988340    0.298391
     21          1           0        0.576711   -2.313040    0.047246
     22          1           0       -1.380428    0.758088    0.121240
     23          1           0       -1.695287   -1.593708   -0.938325
     24          1           0       -1.521514   -2.098837    0.752497
     25          1           0       -3.890398   -1.768489    0.166070
     26          1           0       -3.370249   -0.645688    1.450292
 ---------------------------------------------------------------------

 SCF Done:  E(UB3LYP) =  -661.606399007     A.U. after   33 cycles
 SCF Done:  E(UB3LYP) =  -661.606399007     a.u. after    1 cycles

 The electronic state is 2-A.
 Alpha  occ. eigenvalues --  -14.34861 -14.25237 -14.24251 -14.21320 -14.18033
 Alpha  occ. eigenvalues --  -10.11473 -10.10491 -10.10252 -10.08139 -10.07836
 Alpha  occ. eigenvalues --  -10.07286 -10.07105 -10.05760 -10.05347 -10.04790
 Alpha  occ. eigenvalues --   -1.01869  -0.86377  -0.83004  -0.78248  -0.74281
 Alpha  occ. eigenvalues --   -0.68268  -0.66901  -0.62358  -0.58748  -0.55168
 Alpha  occ. eigenvalues --   -0.51596  -0.49031  -0.44246  -0.42265  -0.40728
 Alpha  occ. eigenvalues --   -0.39861  -0.38353  -0.37609  -0.36505  -0.35307
 Alpha  occ. eigenvalues --   -0.33617  -0.32570  -0.31719  -0.30552  -0.30055
 Alpha  occ. eigenvalues --   -0.28753  -0.27992  -0.27258  -0.25702  -0.25083
 Alpha  occ. eigenvalues --   -0.23557  -0.23225  -0.20999  -0.19816  -0.18292
 Alpha  occ. eigenvalues --   -0.14399  -0.13887  -0.09975   0.03803
 Alpha virt. eigenvalues --    0.05550   0.06814   0.07549   0.09194   0.09316
 Alpha virt. eigenvalues --    0.10058   0.10185   0.10474   0.11253   0.11559
 Alpha virt. eigenvalues --    0.12459   0.12731   0.13513   0.14192   0.14976

  Beta  occ. eigenvalues --  -14.34594 -14.24868 -14.24309 -14.21314 -14.17847
  Beta  occ. eigenvalues --  -10.11381 -10.10475 -10.10294 -10.08132 -10.07657
  Beta  occ. eigenvalues --  -10.07288 -10.07064 -10.05753 -10.05180 -10.04603
  Beta  occ. eigenvalues --   -1.01345  -0.86133  -0.82946  -0.77961  -0.74053
  Beta  occ. eigenvalues --   -0.68130  -0.66606  -0.62114  -0.58573  -0.54958
  Beta  occ. eigenvalues --   -0.51170  -0.48983  -0.44135  -0.42149  -0.40300
  Beta  occ. eigenvalues --   -0.39550  -0.37771  -0.37338  -0.36222  -0.35149
  Beta  occ. eigenvalues --   -0.32892  -0.32429  -0.31621  -0.30458  -0.29940
  Beta  occ. eigenvalues --   -0.28659  -0.27752  -0.26590  -0.25562  -0.24896
  Beta  occ. eigenvalues --   -0.23354  -0.22664  -0.20885  -0.19194  -0.17925
  Beta  occ. eigenvalues --   -0.14308  -0.12696  -0.09433
  Beta virt. eigenvalues --    0.06690   0.07469   0.07887   0.08812   0.09298
  Beta virt. eigenvalues --    0.09513   0.10093   0.10282   0.10529   0.11413
  Beta virt. eigenvalues --    0.11650   0.12469   0.12725   0.13515   0.14167

 Mulliken charges and spin densities:
               1          2
     1  C   -0.437090  -0.070552
     2  C    0.997180   0.141197
     3  C   -2.021206   0.043122
     4  C    2.008092   0.043313
     5  C   -0.699858   0.135632
     6  C   -0.021066  -0.244471
     7  C    0.492497   0.339130
     8  N    0.029396   0.047940
     9  C   -0.218054   0.192334
    10  C    0.199211  -1.004855
    11  N   -0.719887   0.480908
    12  N    0.620234  -0.076932
    13  N   -0.174094  -0.051429
    14  C   -1.448870  -0.091092
    15  N   -0.283901   0.100714
    16  H    0.128451   0.008513
    17  H    0.085711   0.070028
    18  H    0.144364  -0.006102
    19  H    0.109544   0.001707
    20  H    0.146970   0.009182
    21  H    0.078334   0.007291
    22  H    0.132330   0.077466
    23  H    0.103581   0.071937
    24  H   -0.133747   0.294605
    25  H   -0.161083   0.337194
    26  H    0.042960   0.143220
 Sum of Mulliken charges =  -1.00000   1.00000

 Dipole moment (field-independent basis, Debye):
    X=              0.4430    Y=             -5.5695    Z=             -0.0684  Tot=              5.5875
 Quadrupole moment (field-independent basis, Debye-Ang):
   XX=           -177.4499   YY=           -124.7825   ZZ=           -101.8661
   XY=            -15.4677   XZ=             -2.7615   YZ=              3.4661

 Summary of Natural Population Analysis:

                                       Natural Population
                Natural  -----------------------------------------------
    Atom  No    Charge         Core      Valence    Rydberg      Total
 -----------------------------------------------------------------------
      C    1   -0.28922      0.99964     2.28463    0.00496     3.28922
      C    2   -0.00774      0.99953     2.00031    0.00790     3.00774
      C    3   -0.10260      0.99949     2.09566    0.00745     3.10260
      C    4   -0.05875      0.99943     2.04924    0.01008     3.05875
      C    5   -0.07029      0.99951     2.06169    0.00909     3.07029
      C    6    0.08986      0.99950     1.90094    0.00970     2.91014
      C    7   -0.09668      0.99948     2.08937    0.00782     3.09668
      N    8   -0.31665      0.99967     2.80696    0.01002     3.81665
      C    9   -0.09062      0.99962     2.07708    0.01392     3.09062
      C   10   -0.08633      0.99960     2.07678    0.00995     3.08633
      N   11   -0.22199      0.99970     2.70828    0.01402     3.72199
      N   12    0.13865      0.99971     2.34620    0.01544     3.36135
      N   13   -0.01392      0.99982     2.50007    0.01403     3.51392
      C   14    0.15414      0.99964     1.82797    0.01825     2.84586
      N   15   -0.17551      0.99979     2.66496    0.01076     3.67551
      H   16    0.09772      0.00000     0.40141    0.00087     0.40228
      H   17    0.10074      0.00000     0.39796    0.00131     0.39926
      H   18    0.09928      0.00000     0.39972    0.00100     0.40072
      H   19    0.09748      0.00000     0.40161    0.00091     0.40252
      H   20    0.09864      0.00000     0.40027    0.00109     0.40136
      H   21    0.09470      0.00000     0.40380    0.00150     0.40530
      H   22    0.19038      0.00000     0.30663    0.00299     0.30962
      H   23    0.08812      0.00000     0.41027    0.00161     0.41188
      H   24    0.09688      0.00000     0.40178    0.00134     0.40312
      H   25    0.09197      0.00000     0.40609    0.00194     0.40803
      H   26    0.09175      0.00000     0.40639    0.00186     0.40825
 =======================================================================
   * Total *    0.00000     14.99412    37.82609    0.17980    53.00000

 Normal termination of Gaussian 16 at Thu Dec 10 15:34:00 2020.
