 Gaussian 16, Revision A.03,

 -----------------------------------------------------------
 # opt freq B3LYP/6-31G(d) empiricaldispersion=gd3bj scf=xqc
 -----------------------------------------------------------

 ------------------------------
 CID_78973009_JID_8732_neutraal
 ------------------------------
 Symbolic Z-matrix:
 Charge =  0 Multiplicity = 1

 SCF Done:  E(RB3LYP) =  -825.241730730     A.U. after   15 cycles
 SCF Done:  E(RB3LYP) =  -825.246295542     A.U. after   12 cycles
 SCF Done:  E(RB3LYP) =  -825.246616651     A.U. after   12 cycles
 SCF Done:  E(RB3LYP) =  -825.247186189     A.U. after   11 cycles
 SCF Done:  E(RB3LYP) =  -825.247368568     A.U. after   11 cycles
 SCF Done:  E(RB3LYP) =  -825.247384982     A.U. after   11 cycles
 SCF Done:  E(RB3LYP) =  -825.247422827     A.U. after   10 cycles
 SCF Done:  E(RB3LYP) =  -825.247431940     A.U. after   10 cycles
 SCF Done:  E(RB3LYP) =  -825.247434536     A.U. after    9 cycles
 SCF Done:  E(RB3LYP) =  -825.247435500     A.U. after    9 cycles
 SCF Done:  E(RB3LYP) =  -825.247436717     A.U. after    8 cycles
 SCF Done:  E(RB3LYP) =  -825.247436888     A.U. after    7 cycles
 SCF Done:  E(RB3LYP) =  -825.247436947     A.U. after    6 cycles
 SCF Done:  E(RB3LYP) =  -825.247436992     A.U. after    6 cycles
 SCF Done:  E(RB3LYP) =  -825.247437005     A.U. after    6 cycles
 Optimization completed.
    -- Stationary point found.
 Normal termination of Gaussian 16 at Fri Dec 11 21:03:41 2020.

 --------------------------------------------------------------------
 #N Geom=AllCheck Guess=TCheck SCRF=Check GenChk RB3LYP/6-31G(d) Freq
 --------------------------------------------------------------------

 Structure from the checkpoint file:  "JID_8732.chk"
 ------------------------------
 CID_78973009_JID_8732_neutraal
 ------------------------------
 Charge =  0 Multiplicity = 1

 SCF Done:  E(RB3LYP) =  -825.247437005     A.U. after    1 cycles

  Exact polarizability: 192.436   1.177 157.969  -6.164  -5.611 126.883
 Approx polarizability: 225.548   6.486 248.624 -12.911 -18.288 198.088

                      1                      2                      3
                      A                      A                      A
 Frequencies --     19.4590                36.0550                36.7909
 Red. masses --      3.0600                 3.5505                 4.3522
 Frc consts  --      0.0007                 0.0027                 0.0035
 IR Inten    --      0.0666                 0.4536                 1.3531

                      4                      5                      6
                      A                      A                      A
 Frequencies --     53.2593                74.3668                99.4154
 Red. masses --      4.8833                 5.9550                 3.3991
 Frc consts  --      0.0082                 0.0194                 0.0198
 IR Inten    --      3.6277                 0.7936                 4.1062

                      7                      8                      9
                      A                      A                      A
 Frequencies --    104.4350               127.3479               139.9732
 Red. masses --      3.5950                 2.5762                 1.2487
 Frc consts  --      0.0231                 0.0246                 0.0144
 IR Inten    --      4.1098                 8.5984                 0.6625

                     10                     11                     12
                      A                      A                      A
 Frequencies --    145.2731               188.8526               210.7507
 Red. masses --      2.5591                 2.1012                 3.5220
 Frc consts  --      0.0318                 0.0442                 0.0922
 IR Inten    --      0.8876                 0.8542                 0.2511

                     13                     14                     15
                      A                      A                      A
 Frequencies --    229.5611               271.0176               281.2435
 Red. masses --      1.1136                 1.0447                 1.0826
 Frc consts  --      0.0346                 0.0452                 0.0505
 IR Inten    --      0.3521                 0.2669                 0.2130

                     16                     17                     18
                      A                      A                      A
 Frequencies --    293.7567               307.8571               336.9715
 Red. masses --      4.0738                 2.9755                 2.5439
 Frc consts  --      0.2071                 0.1662                 0.1702
 IR Inten    --      0.4136                 0.3707                 3.6223

                     19                     20                     21
                      A                      A                      A
 Frequencies --    342.3332               347.9618               363.0423
 Red. masses --      2.5392                 2.2759                 3.3458
 Frc consts  --      0.1753                 0.1624                 0.2598
 IR Inten    --      3.1383                 0.8234                 0.2620

                     22                     23                     24
                      A                      A                      A
 Frequencies --    395.9719               413.4309               446.6321
 Red. masses --      2.5690                 2.7596                 2.2090
 Frc consts  --      0.2373                 0.2779                 0.2596
 IR Inten    --      5.4423                 5.8945                 1.6781

                     25                     26                     27
                      A                      A                      A
 Frequencies --    454.9488               462.5739               483.6507
 Red. masses --      2.2267                 3.2108                 2.6730
 Frc consts  --      0.2715                 0.4048                 0.3684
 IR Inten    --      5.6022                13.4071                 1.0561

                     28                     29                     30
                      A                      A                      A
 Frequencies --    490.9794               538.7627               560.6288
 Red. masses --      2.6099                 2.7114                 3.1750
 Frc consts  --      0.3707                 0.4637                 0.5880
 IR Inten    --      0.7871                 6.7886                 3.7299

                     31                     32                     33
                      A                      A                      A
 Frequencies --    602.0042               623.5126               635.6001
 Red. masses --      3.2448                 3.1436                 3.4834
 Frc consts  --      0.6928                 0.7200                 0.8291
 IR Inten    --     12.4885                17.5604                 0.6827

                     34                     35                     36
                      A                      A                      A
 Frequencies --    686.8283               719.8476               746.6150
 Red. masses --      4.7987                 2.2031                 3.3883
 Frc consts  --      1.3337                 0.6726                 1.1128
 IR Inten    --     12.2552                 9.5094                 0.6480

                     37                     38                     39
                      A                      A                      A
 Frequencies --    771.7973               792.4884               800.9190
 Red. masses --      1.5126                 1.4641                 2.9300
 Frc consts  --      0.5309                 0.5418                 1.1074
 IR Inten    --     12.1194                42.2008                21.9917

                     40                     41                     42
                      A                      A                      A
 Frequencies --    873.1136               910.5003               923.2609
 Red. masses --      2.8773                 2.6244                 1.7871
 Frc consts  --      1.2923                 1.2819                 0.8975
 IR Inten    --      1.1474                 0.4498                 3.1989

                     43                     44                     45
                      A                      A                      A
 Frequencies --    933.9571               948.2279               954.2149
 Red. masses --      2.0609                 2.0988                 1.8648
 Frc consts  --      1.0592                 1.1119                 1.0004
 IR Inten    --      3.2637                25.6874                30.6587

                     46                     47                     48
                      A                      A                      A
 Frequencies --    972.3781               984.3854               993.3398
 Red. masses --      1.2089                 2.2278                 2.0591
 Frc consts  --      0.6734                 1.2719                 1.1971
 IR Inten    --      0.2354                 4.8995                 6.9672

                     49                     50                     51
                      A                      A                      A
 Frequencies --   1015.5899              1023.8960              1048.9244
 Red. masses --      1.8038                 1.6130                 2.1058
 Frc consts  --      1.0961                 0.9963                 1.3651
 IR Inten    --      5.2510                25.3051                 7.2509

                     52                     53                     54
                      A                      A                      A
 Frequencies --   1060.2906              1063.2867              1072.6340
 Red. masses --      1.4838                 1.7292                 1.6847
 Frc consts  --      0.9828                 1.1519                 1.1420
 IR Inten    --      2.7174                 5.3055                 6.7916

                     55                     56                     57
                      A                      A                      A
 Frequencies --   1074.1053              1124.4990              1135.4969
 Red. masses --      2.3349                 3.0010                 2.1647
 Frc consts  --      1.5871                 2.2358                 1.6445
 IR Inten    --     25.6104                17.2199                 5.0153

                     58                     59                     60
                      A                      A                      A
 Frequencies --   1143.8474              1215.8001              1221.4363
 Red. masses --      2.1088                 2.1274                 1.4902
 Frc consts  --      1.6256                 1.8528                 1.3099
 IR Inten    --      2.7295                13.8300                22.3754

                     61                     62                     63
                      A                      A                      A
 Frequencies --   1232.7673              1255.2535              1265.3747
 Red. masses --      2.2389                 2.3327                 1.5366
 Frc consts  --      2.0047                 2.1656                 1.4496
 IR Inten    --     32.2435                34.5459                72.1082

                     64                     65                     66
                      A                      A                      A
 Frequencies --   1270.5651              1278.0663              1301.2997
 Red. masses --      2.3721                 2.0759                 1.4915
 Frc consts  --      2.2562                 1.9979                 1.4881
 IR Inten    --     32.8089               111.0677                21.1974

                     67                     68                     69
                      A                      A                      A
 Frequencies --   1315.1756              1328.8641              1345.1987
 Red. masses --      1.6958                 1.5868                 1.3521
 Frc consts  --      1.7282                 1.6509                 1.4416
 IR Inten    --     12.8341                 5.2285                19.5634

                     70                     71                     72
                      A                      A                      A
 Frequencies --   1380.1359              1384.5500              1389.1050
 Red. masses --      1.3801                 1.3731                 1.3966
 Frc consts  --      1.5489                 1.5509                 1.5877
 IR Inten    --     11.6069                41.1949                19.2093

                     73                     74                     75
                      A                      A                      A
 Frequencies --   1405.8226              1414.5844              1415.9384
 Red. masses --      1.3587                 1.3072                 1.3091
 Frc consts  --      1.5821                 1.5412                 1.5463
 IR Inten    --     11.6706                28.8229                35.0936

                     76                     77                     78
                      A                      A                      A
 Frequencies --   1425.7438              1428.2625              1431.6575
 Red. masses --      1.2443                 1.2914                 1.4183
 Frc consts  --      1.4902                 1.5522                 1.7128
 IR Inten    --     10.5074                 7.2501                 7.1881

                     79                     80                     81
                      A                      A                      A
 Frequencies --   1453.7530              1467.9946              1480.6229
 Red. masses --      1.2280                 1.7966                 2.0161
 Frc consts  --      1.5291                 2.2812                 2.6041
 IR Inten    --     11.6251                76.3244               172.5786

                     82                     83                     84
                      A                      A                      A
 Frequencies --   1496.5223              1500.8494              1505.2714
 Red. masses --      1.1308                 1.0660                 1.0941
 Frc consts  --      1.4921                 1.4147                 1.4606
 IR Inten    --     12.3260                23.5447                 3.7788

                     85                     86                     87
                      A                      A                      A
 Frequencies --   1507.2411              1512.3468              1514.3879
 Red. masses --      1.1247                 1.0788                 1.1117
 Frc consts  --      1.5054                 1.4538                 1.5021
 IR Inten    --      8.6157                 5.7788                14.6533

                     88                     89                     90
                      A                      A                      A
 Frequencies --   1515.4922              1518.6524              1525.1222
 Red. masses --      1.0736                 1.0519                 1.0789
 Frc consts  --      1.4528                 1.4294                 1.4785
 IR Inten    --      0.7608                 0.9000                21.2981

                     91                     92                     93
                      A                      A                      A
 Frequencies --   1533.3224              1536.1607              1539.1667
 Red. masses --      1.0702                 1.0899                 1.1700
 Frc consts  --      1.4824                 1.5153                 1.6331
 IR Inten    --     13.1651                14.3291                20.6468

                     94                     95                     96
                      A                      A                      A
 Frequencies --   1547.2410              1548.8101              1552.7743
 Red. masses --      1.0958                 1.1298                 1.0867
 Frc consts  --      1.5456                 1.5967                 1.5437
 IR Inten    --     14.4097                 8.8505                 5.3623

                     97                     98                     99
                      A                      A                      A
 Frequencies --   1749.5100              1762.8200              3034.8223
 Red. masses --      9.4131                 9.3847                 1.0578
 Frc consts  --     16.9752                17.1824                 5.7399
 IR Inten    --    266.7420               268.5899                12.9692

                    100                    101                    102
                      A                      A                      A
 Frequencies --   3043.7411              3047.1283              3051.9046
 Red. masses --      1.0382                 1.0365                 1.0695
 Frc consts  --      5.6669                 5.6704                 5.8692
 IR Inten    --     25.8990                31.1305                25.3065

                    103                    104                    105
                      A                      A                      A
 Frequencies --   3056.8098              3056.8907              3063.3312
 Red. masses --      1.0488                 1.0536                 1.0407
 Frc consts  --      5.7741                 5.8010                 5.7539
 IR Inten    --     19.8096                 7.3814                 8.3248

                    106                    107                    108
                      A                      A                      A
 Frequencies --   3076.1676              3079.2908              3081.0867
 Red. masses --      1.0628                 1.0646                 1.0996
 Frc consts  --      5.9256                 5.9473                 6.1502
 IR Inten    --     13.9587                24.1659                32.3460

                    109                    110                    111
                      A                      A                      A
 Frequencies --   3085.2229              3108.3447              3110.7436
 Red. masses --      1.0633                 1.1005                 1.0963
 Frc consts  --      5.9631                 6.2647                 6.2504
 IR Inten    --     43.5316                 2.6512                14.3168

                    112                    113                    114
                      A                      A                      A
 Frequencies --   3114.2113              3118.9498              3122.3425
 Red. masses --      1.1002                 1.1016                 1.1042
 Frc consts  --      6.2868                 6.3136                 6.3424
 IR Inten    --     44.5687                 4.8205                40.1041

                    115                    116                    117
                      A                      A                      A
 Frequencies --   3124.0137              3125.1432              3127.2412
 Red. masses --      1.1009                 1.1000                 1.1033
 Frc consts  --      6.3301                 6.3295                 6.3574
 IR Inten    --     61.6600                16.6804                10.0143

                    118                    119                    120
                      A                      A                      A
 Frequencies --   3135.6594              3139.4705              3151.2240
 Red. masses --      1.1028                 1.1050                 1.0948
 Frc consts  --      6.3889                 6.4170                 6.4054
 IR Inten    --     53.7754                18.7657                 5.3518

                    121                    122                    123
                      A                      A                      A
 Frequencies --   3153.2912              3179.8064              3477.5145
 Red. masses --      1.1001                 1.1007                 1.0738
 Frc consts  --      6.4450                 6.5570                 7.6509
 IR Inten    --      4.2472                 7.7988                 0.0684

 - Thermochemistry -
 -------------------
 Temperature   298.150 Kelvin.  Pressure   1.00000 Atm.
 Atom     1 has atomic number  6 and mass  12.00000

 Molecular mass:   255.19468 amu.
 Principal axes and moments of inertia in atomic units:
                           1         2         3
     Eigenvalues --  2248.129078576.431469852.20817
           X            0.99981  -0.01940  -0.00046
           Y            0.01940   0.99981   0.00328
           Z            0.00040  -0.00328   0.99999
 This molecule is an asymmetric top.
 Rotational symmetry number  1.
 Warning -- assumption of classical behavior for rotation
           may cause significant error
 Rotational temperatures (Kelvin)      0.03853     0.01010     0.00879
 Rotational constants (GHZ):           0.80277     0.21043     0.18318
 Zero-point vibrational energy    1012225.4 (Joules/Mol)
                                  241.92769 (Kcal/Mol)
 Warning -- explicit consideration of  31 degrees of freedom as
           vibrations may cause significant error
 Vibrational temperatures:     28.00    51.88    52.93    76.63   107.00
          (Kelvin)            143.04   150.26   183.23   201.39   209.02
                              271.72   303.22   330.29   389.93   404.65
                              422.65   442.94   484.83   492.54   500.64
                              522.34   569.72   594.83   642.60   654.57
                              665.54   695.87   706.41   775.16   806.62
                              866.15   897.10   914.49   988.19  1035.70
                             1074.21  1110.44  1140.21  1152.34  1256.22
                             1310.01  1328.37  1343.76  1364.29  1372.90
                             1399.04  1416.31  1429.19  1461.21  1473.16
                             1509.17  1525.52  1529.83  1543.28  1545.40
                             1617.90  1633.73  1645.74  1749.27  1757.37
                             1773.68  1806.03  1820.59  1828.06  1838.85
                             1872.28  1892.24  1911.94  1935.44  1985.71
                             1992.06  1998.61  2022.67  2035.27  2037.22
                             2051.33  2054.95  2059.84  2091.63  2112.12
                             2130.29  2153.16  2159.39  2165.75  2168.58
                             2175.93  2178.87  2180.46  2185.00  2194.31
                             2206.11  2210.19  2214.52  2226.13  2228.39
                             2234.10  2517.15  2536.30  4366.43  4379.26
                             4384.14  4391.01  4398.07  4398.18  4407.45
                             4425.92  4430.41  4433.00  4438.95  4472.21
                             4475.67  4480.66  4487.47  4492.35  4494.76
                             4496.38  4499.40  4511.51  4517.00  4533.91
                             4536.88  4575.03  5003.37

 Zero-point correction=                           0.385536 (Hartree/Particle)
 Thermal correction to Energy=                    0.405134
 Thermal correction to Enthalpy=                  0.406078
 Thermal correction to Gibbs Free Energy=         0.336456
 Sum of electronic and zero-point Energies=           -824.861901
 Sum of electronic and thermal Energies=              -824.842303
 Sum of electronic and thermal Enthalpies=            -824.841359
 Sum of electronic and thermal Free Energies=         -824.910981

                     E (Thermal)             CV                S
                      KCal/Mol        Cal/Mol-Kelvin    Cal/Mol-Kelvin
 Total                  254.225             74.338            146.531
 Electronic               0.000              0.000              0.000
 Translational            0.889              2.981             42.511
 Rotational               0.889              2.981             33.607
 Vibrational            252.448             68.376             70.414
 Vibration     1          0.593              1.986              6.689
 Vibration     2          0.594              1.982              5.465
 Vibration     3          0.594              1.982              5.425
 Vibration     4          0.596              1.976              4.693
 Vibration     5          0.599              1.966              4.034
 Vibration     6          0.604              1.950              3.466
 Vibration     7          0.605              1.946              3.370
 Vibration     8          0.611              1.926              2.986
 Vibration     9          0.615              1.913              2.804
 Vibration    10          0.617              1.908              2.733
 Vibration    11          0.633              1.855              2.239
 Vibration    12          0.643              1.824              2.037
 Vibration    13          0.652              1.796              1.882
 Vibration    14          0.675              1.727              1.590
 Vibration    15          0.681              1.708              1.526
 Vibration    16          0.689              1.685              1.452
 Vibration    17          0.698              1.659              1.374
 Vibration    18          0.718              1.602              1.226
 Vibration    19          0.721              1.591              1.201
 Vibration    20          0.726              1.579              1.175
 Vibration    21          0.737              1.548              1.109
 Vibration    22          0.763              1.479              0.978
 Vibration    23          0.777              1.441              0.915
 Vibration    24          0.806              1.368              0.806
 Vibration    25          0.813              1.350              0.781
 Vibration    26          0.820              1.333              0.759
 Vibration    27          0.840              1.286              0.700
 Vibration    28          0.847              1.270              0.681
 Vibration    29          0.894              1.164              0.568
 Vibration    30          0.916              1.116              0.523
 Vibration    31          0.960              1.028              0.446

                           ! Non-Optimized Parameters !
 Normal termination of Gaussian 16 at Fri Dec 11 21:24:46 2020.

 ----------------------------------------------------------------------
 # B3LYP/6-311++G(d,p) empiricaldispersion=gd3bj scf=xqc pop=npa geom=c
 heck
 ----------------------------------------------------------------------

 --------------------------------------
 CID_78973009_JID_8732_Energie_neutraal
 --------------------------------------
 Structure from the checkpoint file:  "JID_8732.chk"
 Charge =  0 Multiplicity = 1

 SCF Done:  E(RB3LYP) =  -825.485882100     A.U. after   14 cycles
 Normal termination of Gaussian 16 at Fri Dec 11 21:34:37 2020.

 ----------------------------------------------------------------------
 # B3LYP/6-311++G(d,p) empiricaldispersion=gd3bj scf=xqc pop=npa geom=c
 heck
 ----------------------------------------------------------------------

 ------------------------------------
 CID_78973009_JID_8732_Energie_kation
 ------------------------------------
 Structure from the checkpoint file:  "JID_8732.chk"
 Charge =  1 Multiplicity = 2

 SCF Done:  E(UB3LYP) =  -825.187663152     A.U. after   29 cycles
 Normal termination of Gaussian 16 at Fri Dec 11 22:03:20 2020.
 Gaussian 16:  ES64L-G16RevA.03 25-Dec-2016

 ----------------------------------------------------------------------
 # B3LYP/6-311++G(d,p) empiricaldispersion=gd3bj scf=xqc pop=npa geom=c
 heck
 ----------------------------------------------------------------------

 -----------------------------------
 CID_78973009_JID_8732_Energie_anion
 -----------------------------------
 Structure from the checkpoint file:  "JID_8732.chk"
 Charge = -1 Multiplicity = 2

                         Standard orientation:
 ---------------------------------------------------------------------
 Center     Atomic      Atomic             Coordinates (Angstroms)
 Number     Number       Type             X           Y           Z
 ---------------------------------------------------------------------
      1          6           0       -4.989043   -0.620357    0.010575
      2          6           0       -3.612946   -1.269506    0.016494
      3          8           0       -3.426870   -2.364009    0.540610
      4          7           0       -2.599159   -0.586926   -0.614320
      5          6           0       -2.701494    0.803134   -1.061077
      6          6           0       -2.523790    1.864142    0.045409
      7          6           0       -1.522661    1.448981    1.136039
      8          7           0       -0.337861    0.760495    0.622067
      9          6           0       -0.398935   -0.699613    0.550779
     10          6           0       -1.265369   -1.187675   -0.614253
     11          6           0        0.620546    1.526177    0.017761
     12          8           0        0.527497    2.751953   -0.038148
     13          6           0        1.838433    0.819330   -0.584477
     14          7           0        2.597383    0.106506    0.442266
     15          6           0        3.837155   -0.579942    0.009965
     16          6           0        4.842598    0.367998   -0.672955
     17          6           0        4.462180   -1.158828    1.286864
     18          6           0        3.470579   -1.729488   -0.939974
     19          1           0       -5.674409   -1.297439    0.520689
     20          1           0       -5.347511   -0.449265   -1.010726
     21          1           0       -4.988621    0.344537    0.527950
     22          1           0       -3.654433    0.955817   -1.575644
     23          1           0       -1.919336    0.940545   -1.813470
     24          1           0       -2.182920    2.791707   -0.424249
     25          1           0       -3.483248    2.080751    0.530897
     26          1           0       -1.196633    2.336286    1.683376
     27          1           0       -2.001304    0.764892    1.842495
     28          1           0       -0.834287   -1.062697    1.487597
     29          1           0        0.617542   -1.090646    0.488053
     30          1           0       -1.387280   -2.270247   -0.552572
     31          1           0       -0.785773   -0.938314   -1.568640
     32          1           0        1.505646    0.097683   -1.339829
     33          1           0        2.397703    1.608023   -1.104725
     34          1           0        2.840600    0.771209    1.175927
     35          1           0        5.095482    1.206313   -0.012509
     36          1           0        5.771344   -0.159769   -0.917285
     37          1           0        4.442408    0.780159   -1.605129
     38          1           0        3.754448   -1.825735    1.789086
     39          1           0        5.372981   -1.720621    1.055038
     40          1           0        4.733213   -0.358290    1.986879
     41          1           0        2.734531   -2.392402   -0.473073
     42          1           0        3.057133   -1.364070   -1.886041
     43          1           0        4.361646   -2.318603   -1.180785
 ---------------------------------------------------------------------

 SCF Done:  E(UB3LYP) =  -825.477062191     A.U. after   33 cycles
 SCF Done:  E(UB3LYP) =  -825.477062191     a.u. after    1 cycles

 The electronic state is 2-A.
 Alpha  occ. eigenvalues --  -18.99921 -18.99819 -14.25534 -14.25472 -14.21650
 Alpha  occ. eigenvalues --  -10.18539 -10.18008 -10.12541 -10.12468 -10.11883
 Alpha  occ. eigenvalues --  -10.11791 -10.11689 -10.11326 -10.08655 -10.08647
 Alpha  occ. eigenvalues --  -10.07290 -10.07144 -10.07050  -0.95246  -0.94976
 Alpha  occ. eigenvalues --   -0.86488  -0.83877  -0.82834  -0.71279  -0.70275
 Alpha  occ. eigenvalues --   -0.67215  -0.63860  -0.62844  -0.60940  -0.60357
 Alpha  occ. eigenvalues --   -0.59185  -0.56298  -0.53799  -0.47153  -0.45948
 Alpha  occ. eigenvalues --   -0.44782  -0.42701  -0.41828  -0.40499  -0.39760
 Alpha  occ. eigenvalues --   -0.38893  -0.38007  -0.37274  -0.36304  -0.35495
 Alpha  occ. eigenvalues --   -0.34948  -0.34210  -0.33661  -0.33131  -0.33054
 Alpha  occ. eigenvalues --   -0.31984  -0.31505  -0.30957  -0.29681  -0.29559
 Alpha  occ. eigenvalues --   -0.29053  -0.28782  -0.28299  -0.27667  -0.27311
 Alpha  occ. eigenvalues --   -0.27040  -0.26789  -0.25879  -0.25268  -0.24417
 Alpha  occ. eigenvalues --   -0.17342  -0.17102  -0.16693  -0.15090  -0.14764
 Alpha  occ. eigenvalues --    0.03662
 Alpha virt. eigenvalues --    0.05032   0.06474   0.07395   0.07451   0.07559
 Alpha virt. eigenvalues --    0.08098   0.09031   0.09266   0.09422   0.09599
 Alpha virt. eigenvalues --    0.09936   0.10163   0.10255   0.11032   0.11210

  Beta  occ. eigenvalues --  -18.99912 -18.99794 -14.25536 -14.25476 -14.21635
  Beta  occ. eigenvalues --  -10.18533 -10.17987 -10.12538 -10.12448 -10.11878
  Beta  occ. eigenvalues --  -10.11779 -10.11684 -10.11315 -10.08629 -10.08616
  Beta  occ. eigenvalues --  -10.07262 -10.07115 -10.07013  -0.95224  -0.94942
  Beta  occ. eigenvalues --   -0.86477  -0.83865  -0.82817  -0.71254  -0.70249
  Beta  occ. eigenvalues --   -0.67179  -0.63817  -0.62810  -0.60892  -0.60299
  Beta  occ. eigenvalues --   -0.59138  -0.56269  -0.53765  -0.47091  -0.45913
  Beta  occ. eigenvalues --   -0.44750  -0.42670  -0.41787  -0.40472  -0.39737
  Beta  occ. eigenvalues --   -0.38858  -0.37981  -0.37237  -0.36267  -0.35457
  Beta  occ. eigenvalues --   -0.34921  -0.34175  -0.33633  -0.33109  -0.33008
  Beta  occ. eigenvalues --   -0.31951  -0.31466  -0.30934  -0.29650  -0.29523
  Beta  occ. eigenvalues --   -0.29030  -0.28757  -0.28261  -0.27632  -0.27272
  Beta  occ. eigenvalues --   -0.27000  -0.26748  -0.25850  -0.25233  -0.24379
  Beta  occ. eigenvalues --   -0.17325  -0.17079  -0.16665  -0.15066  -0.14744
  Beta virt. eigenvalues --    0.05643   0.06122   0.06982   0.07746   0.07847
  Beta virt. eigenvalues --    0.08073   0.08403   0.09283   0.09450   0.09681
  Beta virt. eigenvalues --    0.09817   0.10141   0.10340   0.10436   0.11202

 Mulliken charges and spin densities:
               1          2
     1  C    1.295633  -1.803613
     2  C   -0.870554   0.915346
     3  O   -0.332768   0.007911
     4  N    0.079564   0.008773
     5  C    0.007120  -0.259024
     6  C    0.188849  -0.469297
     7  C   -0.000543  -0.121185
     8  N    0.088353   0.066944
     9  C   -0.069461  -0.118686
    10  C   -0.504127  -0.015622
    11  C   -0.133741  -0.308598
    12  O   -0.300964   0.025497
    13  C   -0.019903  -0.315976
    14  N    0.090053  -0.005686
    15  C   -1.383764   1.356869
    16  C    0.211160  -0.746489
    17  C    0.165431  -0.610634
    18  C    0.988053  -1.449466
    19  H    0.133008   0.044411
    20  H   -0.225175   0.399089
    21  H   -0.241070   0.392788
    22  H   -0.371539   0.568191
    23  H   -0.148317   0.321692
    24  H    0.175367   0.012619
    25  H   -0.270503   0.441555
    26  H    0.092327   0.123933
    27  H    0.189528  -0.034688
    28  H    0.013838   0.192545
    29  H    0.746769  -0.536581
    30  H    0.059962   0.158316
    31  H   -0.137323   0.325810
    32  H    0.413435  -0.295245
    33  H    0.091270   0.091337
    34  H    0.271660  -0.009225
    35  H    0.037860   0.104099
    36  H   -0.264327   0.424110
    37  H   -0.111960   0.265121
    38  H   -0.087849   0.249076
    39  H   -0.099655   0.243742
    40  H   -0.131261   0.261468
    41  H    0.021981   0.115846
    42  H   -0.333167   0.486786
    43  H   -0.323250   0.496143
 Sum of Mulliken charges =  -1.00000   1.00000

 Dipole moment (field-independent basis, Debye):
    X=             -0.6483    Y=              1.0048    Z=              1.8180  Tot=              2.1760
 Quadrupole moment (field-independent basis, Debye-Ang):
   XX=           -229.6186   YY=           -167.5940   ZZ=           -146.5949
   XY=              6.3045   XZ=              1.9066   YZ=              1.2430

 Summary of Natural Population Analysis:

                                       Natural Population
                Natural  -----------------------------------------------
    Atom  No    Charge         Core      Valence    Rydberg      Total
 -----------------------------------------------------------------------
      C    1   -0.33168      0.99963     2.32700    0.00505     3.33168
      C    2    0.34694      0.99965     1.63088    0.02252     2.65306
      O    3   -0.32759      0.99988     3.32224    0.00546     4.32759
      N    4   -0.26342      0.99965     2.75185    0.01193     3.76342
      C    5   -0.08681      0.99960     2.07651    0.01070     3.08681
      C    6   -0.20389      0.99962     2.19621    0.00807     3.20389
      C    7   -0.08689      0.99961     2.07634    0.01094     3.08689
      N    8   -0.25507      0.99964     2.74561    0.00982     3.75507
      C    9   -0.09591      0.99959     2.08732    0.00900     3.09591
      C   10   -0.09062      0.99959     2.08055    0.01048     3.09062
      C   11    0.34548      0.99964     1.63254    0.02234     2.65452
      O   12   -0.32507      0.99988     3.31985    0.00534     4.32507
      C   13   -0.12935      0.99959     2.11974    0.01002     3.12935
      N   14   -0.34681      0.99972     2.83596    0.01113     3.84681
      C   15    0.05494      0.99960     1.93292    0.01255     2.94506
      C   16   -0.29558      0.99962     2.28915    0.00682     3.29558
      C   17   -0.28501      0.99961     2.27814    0.00726     3.28501
      C   18   -0.29037      0.99961     2.28355    0.00721     3.29037
      H   19    0.11232      0.00000     0.38688    0.00079     0.38768
      H   20    0.11055      0.00000     0.38827    0.00118     0.38945
      H   21    0.10954      0.00000     0.38895    0.00151     0.39046
      H   22    0.10609      0.00000     0.39229    0.00162     0.39391
      H   23    0.09948      0.00000     0.39907    0.00145     0.40052
      H   24    0.10933      0.00000     0.38959    0.00108     0.39067
      H   25    0.09852      0.00000     0.40014    0.00134     0.40148
      H   26    0.11021      0.00000     0.38888    0.00091     0.38979
      H   27    0.09529      0.00000     0.40349    0.00122     0.40471
      H   28    0.09943      0.00000     0.39948    0.00109     0.40057
      H   29    0.11977      0.00000     0.37868    0.00156     0.38023
      H   30    0.11609      0.00000     0.38283    0.00109     0.38391
      H   31    0.09347      0.00000     0.40523    0.00130     0.40653
      H   32    0.09984      0.00000     0.39828    0.00188     0.40016
      H   33    0.09743      0.00000     0.40103    0.00154     0.40257
      H   34    0.17470      0.00000     0.32288    0.00241     0.32530
      H   35    0.09908      0.00000     0.39998    0.00094     0.40092
      H   36    0.10379      0.00000     0.39514    0.00107     0.39621
      H   37    0.10077      0.00000     0.39824    0.00098     0.39923
      H   38    0.10383      0.00000     0.39515    0.00103     0.39617
      H   39    0.10258      0.00000     0.39645    0.00096     0.39742
      H   40    0.09759      0.00000     0.40151    0.00091     0.40241
      H   41    0.10216      0.00000     0.39661    0.00123     0.39784
      H   42    0.10038      0.00000     0.39838    0.00124     0.39962
      H   43    0.10447      0.00000     0.39434    0.00119     0.39553
 =======================================================================
   * Total *   -0.00000     17.99372    51.78812    0.21816    70.00000

 Normal termination of Gaussian 16 at Fri Dec 11 22:36:15 2020.
