 Gaussian 16, Revision A.03,

 -----------------------------------------------------------
 # opt freq B3LYP/6-31G(d) empiricaldispersion=gd3bj scf=xqc
 -----------------------------------------------------------

 ------------------------------
 CID_89387880_JID_6482_neutraal
 ------------------------------
 Symbolic Z-matrix:
 Charge =  0 Multiplicity = 1

 SCF Done:  E(RB3LYP) =  -1119.28805945     A.U. after   15 cycles
 SCF Done:  E(RB3LYP) =  -1119.29637596     A.U. after   13 cycles
 SCF Done:  E(RB3LYP) =  -1119.29781925     A.U. after   14 cycles
 SCF Done:  E(RB3LYP) =  -1119.29852442     A.U. after   14 cycles
 SCF Done:  E(RB3LYP) =  -1119.29854074     A.U. after   13 cycles
 SCF Done:  E(RB3LYP) =  -1119.29937104     A.U. after   11 cycles
 SCF Done:  E(RB3LYP) =  -1119.29982116     A.U. after   12 cycles
 SCF Done:  E(RB3LYP) =  -1119.30103202     A.U. after   16 cycles
 SCF Done:  E(RB3LYP) =  -1119.30216713     A.U. after   14 cycles
 SCF Done:  E(RB3LYP) =  -1119.30401151     A.U. after   15 cycles
 SCF Done:  E(RB3LYP) =  -1119.30561489     A.U. after   11 cycles
 SCF Done:  E(RB3LYP) =  -1119.30561717     A.U. after   10 cycles
 SCF Done:  E(RB3LYP) =  -1119.30561794     A.U. after    8 cycles
 SCF Done:  E(RB3LYP) =  -1119.30561804     A.U. after    7 cycles
 SCF Done:  E(RB3LYP) =  -1119.30561811     A.U. after    7 cycles
 Optimization completed.
    -- Stationary point found.
 Normal termination of Gaussian 16 at Thu Dec 10 23:17:15 2020.

 --------------------------------------------------------------------
 #N Geom=AllCheck Guess=TCheck SCRF=Check GenChk RB3LYP/6-31G(d) Freq
 --------------------------------------------------------------------

 Structure from the checkpoint file:  "JID_6482.chk"
 ------------------------------
 CID_89387880_JID_6482_neutraal
 ------------------------------
 Charge =  0 Multiplicity = 1

 SCF Done:  E(RB3LYP) =  -1119.30561811     A.U. after    1 cycles

  Exact polarizability: 214.171   7.699 141.161   1.371 -21.726  77.786
 Approx polarizability: 329.559   1.964 235.689   5.913 -53.970 139.042

                      1                      2                      3
                      A                      A                      A
 Frequencies --     16.8384                39.6001                65.9107
 Red. masses --      7.7269                 4.1230                10.4816
 Frc consts  --      0.0013                 0.0038                 0.0268
 IR Inten    --      0.2434                 0.0383                 0.7754

                      4                      5                      6
                      A                      A                      A
 Frequencies --     74.9678                94.1578               122.4499
 Red. masses --      5.7956                10.8450                 5.6272
 Frc consts  --      0.0192                 0.0566                 0.0497
 IR Inten    --      1.7145                 2.9457                 3.8624

                      7                      8                      9
                      A                      A                      A
 Frequencies --    193.9857               253.3737               282.0910
 Red. masses --      5.3189                 7.0670                 7.0322
 Frc consts  --      0.1179                 0.2673                 0.3297
 IR Inten    --      1.5957                 3.9859                 1.8895

                     10                     11                     12
                      A                      A                      A
 Frequencies --    299.4607               304.0680               344.5386
 Red. masses --      3.6471                 1.2872                 4.6657
 Frc consts  --      0.1927                 0.0701                 0.3263
 IR Inten    --      9.7697                29.8223                 1.5749

                     13                     14                     15
                      A                      A                      A
 Frequencies --    376.1849               400.7975               413.7339
 Red. masses --      6.7532                 8.6442                 3.0322
 Frc consts  --      0.5631                 0.8181                 0.3058
 IR Inten    --      9.4377                 1.6423                 0.1423

                     16                     17                     18
                      A                      A                      A
 Frequencies --    495.4883               509.8508               557.0981
 Red. masses --      8.1676                 3.0479                 2.1486
 Frc consts  --      1.1814                 0.4668                 0.3929
 IR Inten    --      3.1991               111.4958               170.6761

                     19                     20                     21
                      A                      A                      A
 Frequencies --    568.9181               597.4067               620.3484
 Red. masses --      1.1192                 8.2154                 6.2476
 Frc consts  --      0.2134                 1.7275                 1.4166
 IR Inten    --     98.2872                19.1707                24.1102

                     22                     23                     24
                      A                      A                      A
 Frequencies --    631.9530               636.5138               659.9504
 Red. masses --      4.1764                 5.8549                 4.5825
 Frc consts  --      0.9827                 1.3976                 1.1759
 IR Inten    --    139.5893                22.4014                41.8203

                     25                     26                     27
                      A                      A                      A
 Frequencies --    684.9771               707.2469               729.8334
 Red. masses --      6.4022                 1.9538                 5.1078
 Frc consts  --      1.7698                 0.5758                 1.6030
 IR Inten    --      5.6958                21.9210                21.9728

                     28                     29                     30
                      A                      A                      A
 Frequencies --    769.8737               776.4453               786.8624
 Red. masses --      5.3220                 2.2802                11.2789
 Frc consts  --      1.8585                 0.8099                 4.1145
 IR Inten    --     41.1887                25.3399                 8.3248

                     31                     32                     33
                      A                      A                      A
 Frequencies --    854.1740               922.1631               938.9758
 Red. masses --      1.2536                 1.5150                 5.4585
 Frc consts  --      0.5389                 0.7591                 2.8355
 IR Inten    --      0.1832                 0.6536                19.6704

                     34                     35                     36
                      A                      A                      A
 Frequencies --    967.5150               987.4159               995.3133
 Red. masses --      1.3413                 6.9852                 1.2763
 Frc consts  --      0.7398                 4.0126                 0.7449
 IR Inten    --      0.5804                17.7105                 0.8900

                     37                     38                     39
                      A                      A                      A
 Frequencies --   1019.3007              1060.4463              1071.1806
 Red. masses --      6.0026                 3.5025                 2.3365
 Frc consts  --      3.6745                 2.3206                 1.5796
 IR Inten    --      0.1703                45.3023                22.2507

                     40                     41                     42
                      A                      A                      A
 Frequencies --   1125.0633              1145.5106              1195.8298
 Red. masses --      1.6246                 2.5146                 1.0929
 Frc consts  --      1.2116                 1.9441                 0.9208
 IR Inten    --      3.7601                 7.4801                 1.3845

                     43                     44                     45
                      A                      A                      A
 Frequencies --   1211.6702              1225.9467              1305.6998
 Red. masses --      2.4190                 1.1621                 5.0115
 Frc consts  --      2.0924                 1.0290                 5.0339
 IR Inten    --    693.8781                19.0849                 2.6014

                     46                     47                     48
                      A                      A                      A
 Frequencies --   1334.7304              1344.3911              1367.3001
 Red. masses --      3.7755                 3.5364                 4.8776
 Frc consts  --      3.9629                 3.7659                 5.3726
 IR Inten    --     60.5064                89.1423               201.2511

                     49                     50                     51
                      A                      A                      A
 Frequencies --   1378.0275              1425.4890              1494.0590
 Red. masses --      1.6108                 2.8551                 2.3243
 Frc consts  --      1.8023                 3.4182                 3.0569
 IR Inten    --     50.5541               150.4845                11.0200

                     52                     53                     54
                      A                      A                      A
 Frequencies --   1544.2837              1587.7603              1617.4842
 Red. masses --      2.2398                 3.8966                 7.2565
 Frc consts  --      3.1471                 5.7877                11.1855
 IR Inten    --      7.7822               250.0317                71.4625

                     55                     56                     57
                      A                      A                      A
 Frequencies --   1635.6984              1664.1328              1677.0021
 Red. masses --      5.7302                 5.0420                 1.4264
 Frc consts  --      9.0328                 8.2268                 2.3634
 IR Inten    --     20.1495                24.3583               217.1603

                     58                     59                     60
                      A                      A                      A
 Frequencies --   1874.9835              3183.3306              3190.6178
 Red. masses --     10.9341                 1.0852                 1.0882
 Frc consts  --     22.6480                 6.4789                 6.5269
 IR Inten    --    320.9300                 5.5891                 4.4840

                     61                     62                     63
                      A                      A                      A
 Frequencies --   3200.1170              3211.9680              3238.0390
 Red. masses --      1.0927                 1.0971                 1.0923
 Frc consts  --      6.5932                 6.6687                 6.7479
 IR Inten    --     28.4570                26.9856                 3.0690

                     64                     65                     66
                      A                      A                      A
 Frequencies --   3558.3615              3667.3552              3743.1410
 Red. masses --      1.0471                 1.1000                 1.0648
 Frc consts  --      7.8114                 8.7166                 8.7898
 IR Inten    --     63.2990                30.5422                95.7339

 - Thermochemistry -
 -------------------
 Temperature   298.150 Kelvin.  Pressure   1.00000 Atm.
 Atom     1 has atomic number  6 and mass  12.00000

 Molecular mass:   236.02556 amu.
 Principal axes and moments of inertia in atomic units:
                           1         2         3
     Eigenvalues --  2962.668914373.760696750.10487
           X            0.99994   0.01101  -0.00187
           Y           -0.01102   0.99989  -0.01017
           Z            0.00176   0.01019   0.99995
 This molecule is an asymmetric top.
 Rotational symmetry number  1.
 Warning -- assumption of classical behavior for rotation
           may cause significant error
 Rotational temperatures (Kelvin)      0.02924     0.01980     0.01283
 Rotational constants (GHZ):           0.60916     0.41263     0.26736
 Zero-point vibrational energy     454457.8 (Joules/Mol)
                                  108.61801 (Kcal/Mol)
 Warning -- explicit consideration of  21 degrees of freedom as
           vibrations may cause significant error
 Vibrational temperatures:     24.23    56.98    94.83   107.86   135.47
          (Kelvin)            176.18   279.10   364.55   405.87   430.86
                              437.49   495.71   541.25   576.66   595.27
                              712.90   733.56   801.54   818.55   859.53
                              892.54   909.24   915.80   949.52   985.53
                             1017.57  1050.07  1107.68  1117.13  1132.12
                             1228.97  1326.79  1350.98  1392.04  1420.67
                             1432.03  1466.55  1525.75  1541.19  1618.72
                             1648.13  1720.53  1743.32  1763.86  1878.61
                             1920.38  1934.28  1967.24  1982.67  2050.96
                             2149.62  2221.88  2284.43  2327.20  2353.41
                             2394.32  2412.83  2697.68  4580.10  4590.59
                             4604.25  4621.31  4658.82  5119.69  5276.51
                             5385.55

 Zero-point correction=                           0.173094 (Hartree/Particle)
 Thermal correction to Energy=                    0.187006
 Thermal correction to Enthalpy=                  0.187950
 Thermal correction to Gibbs Free Energy=         0.130017
 Sum of electronic and zero-point Energies=          -1119.132524
 Sum of electronic and thermal Energies=             -1119.118613
 Sum of electronic and thermal Enthalpies=           -1119.117668
 Sum of electronic and thermal Free Energies=        -1119.175601

                     E (Thermal)             CV                S
                      KCal/Mol        Cal/Mol-Kelvin    Cal/Mol-Kelvin
 Total                  117.348             52.367            121.930
 Electronic               0.000              0.000              0.000
 Translational            0.889              2.981             42.278
 Rotational               0.889              2.981             32.836
 Vibrational            115.570             46.406             46.816
 Vibration     1          0.593              1.986              6.976
 Vibration     2          0.594              1.981              5.279
 Vibration     3          0.597              1.971              4.272
 Vibration     4          0.599              1.966              4.018
 Vibration     5          0.603              1.953              3.572
 Vibration     6          0.610              1.930              3.061
 Vibration     7          0.635              1.848              2.189
 Vibration     8          0.665              1.757              1.707
 Vibration     9          0.681              1.707              1.521
 Vibration    10          0.692              1.675              1.420
 Vibration    11          0.695              1.666              1.394
 Vibration    12          0.723              1.586              1.191
 Vibration    13          0.747              1.521              1.054
 Vibration    14          0.767              1.468              0.960
 Vibration    15          0.777              1.440              0.914
 Vibration    16          0.851              1.260              0.669
 Vibration    17          0.865              1.228              0.634
 Vibration    18          0.913              1.124              0.530
 Vibration    19          0.925              1.098              0.506
 Vibration    20          0.955              1.037              0.454
 Vibration    21          0.980              0.989              0.416

                           ! Non-Optimized Parameters !
 Normal termination of Gaussian 16 at Thu Dec 10 23:24:29 2020.

 ----------------------------------------------------------------------
 # B3LYP/6-311++G(d,p) empiricaldispersion=gd3bj scf=xqc pop=npa geom=c
 heck
 ----------------------------------------------------------------------

 --------------------------------------
 CID_89387880_JID_6482_Energie_neutraal
 --------------------------------------
 Structure from the checkpoint file:  "JID_6482.chk"
 Charge =  0 Multiplicity = 1

 SCF Done:  E(RB3LYP) =  -1119.54561416     A.U. after   16 cycles
 Normal termination of Gaussian 16 at Thu Dec 10 23:27:19 2020.

 ----------------------------------------------------------------------
 # B3LYP/6-311++G(d,p) empiricaldispersion=gd3bj scf=xqc pop=npa geom=c
 heck
 ----------------------------------------------------------------------

 ------------------------------------
 CID_89387880_JID_6482_Energie_kation
 ------------------------------------
 Structure from the checkpoint file:  "JID_6482.chk"
 Charge =  1 Multiplicity = 2

 SCF Done:  E(UB3LYP) =  -1119.27006583     A.U. after   26 cycles
 Normal termination of Gaussian 16 at Thu Dec 10 23:33:26 2020.
 Gaussian 16:  ES64L-G16RevA.03 25-Dec-2016

 ----------------------------------------------------------------------
 # B3LYP/6-311++G(d,p) empiricaldispersion=gd3bj scf=xqc pop=npa geom=c
 heck
 ----------------------------------------------------------------------

 -----------------------------------
 CID_89387880_JID_6482_Energie_anion
 -----------------------------------
 Structure from the checkpoint file:  "JID_6482.chk"
 Charge = -1 Multiplicity = 2

                         Standard orientation:
 ---------------------------------------------------------------------
 Center     Atomic      Atomic             Coordinates (Angstroms)
 Number     Number       Type             X           Y           Z
 ---------------------------------------------------------------------
      1          6           0        4.090223   -0.608610    0.028207
      2          6           0        3.351030   -1.596930    0.679205
      3          6           0        1.961040   -1.597179    0.605583
      4          6           0        1.276664   -0.611504   -0.127864
      5          6           0        2.033049    0.374818   -0.789217
      6          6           0        3.422469    0.375040   -0.703353
      7          6           0       -0.182956   -0.616664   -0.203443
      8          6           0       -1.073063    0.399208   -0.417736
      9          7           0       -2.411352    0.135409   -0.387960
     10          6           0       -2.603965   -1.131664   -0.145718
     11         16           0       -1.133918   -2.089479    0.040698
     12          7           0       -3.843281   -1.722371   -0.119811
     13          8           0       -0.682253    1.699941   -0.684806
     14          6           0       -0.654521    2.540639    0.378679
     15          8           0       -0.911436    2.265188    1.521960
     16          8           0       -0.272822    3.745353   -0.079608
     17          1           0        5.174629   -0.606221    0.088376
     18          1           0        3.856661   -2.368036    1.253591
     19          1           0        1.397559   -2.359596    1.136095
     20          1           0        1.528066    1.132142   -1.376508
     21          1           0        3.986970    1.145121   -1.221738
     22          1           0       -3.953021   -2.526464    0.484018
     23          1           0       -4.598854   -1.051012   -0.046081
     24          1           0       -0.254618    4.327678    0.699043
 ---------------------------------------------------------------------

 SCF Done:  E(UB3LYP) =  -1119.54691296     A.U. after   33 cycles
 SCF Done:  E(UB3LYP) =  -1119.54691296     a.u. after    1 cycles

 The electronic state is 2-A.
 Alpha  occ. eigenvalues --  -88.74638 -19.09207 -19.07455 -19.01997 -14.21008
 Alpha  occ. eigenvalues --  -14.18028 -10.25627 -10.13372 -10.12311 -10.06866
 Alpha  occ. eigenvalues --  -10.05946 -10.05587 -10.05401 -10.04754 -10.04726
 Alpha  occ. eigenvalues --  -10.04530  -7.83272  -5.79585  -5.79242  -5.78796
 Alpha  occ. eigenvalues --   -1.05728  -0.97373  -0.93614  -0.85541  -0.78145
 Alpha  occ. eigenvalues --   -0.73796  -0.68113  -0.63673  -0.62547  -0.61673
 Alpha  occ. eigenvalues --   -0.55185  -0.50266  -0.49128  -0.46681  -0.46251
 Alpha  occ. eigenvalues --   -0.43059  -0.40754  -0.40620  -0.39480  -0.37730
 Alpha  occ. eigenvalues --   -0.36031  -0.35019  -0.33495  -0.32862  -0.32268
 Alpha  occ. eigenvalues --   -0.30332  -0.28970  -0.28616  -0.26866  -0.25353
 Alpha  occ. eigenvalues --   -0.24616  -0.23568  -0.22862  -0.21150  -0.20610
 Alpha  occ. eigenvalues --   -0.20060  -0.16533  -0.15829  -0.14033  -0.13736
 Alpha  occ. eigenvalues --   -0.08019   0.04423
 Alpha virt. eigenvalues --    0.06536   0.07182   0.08061   0.09587   0.10007
 Alpha virt. eigenvalues --    0.10514   0.10726   0.11922   0.12514   0.12660
 Alpha virt. eigenvalues --    0.12902   0.13643   0.14273   0.15099   0.15344

  Beta  occ. eigenvalues --  -88.74618 -19.09206 -19.07450 -19.01997 -14.20894
  Beta  occ. eigenvalues --  -14.18131 -10.25599 -10.13082 -10.12088 -10.06795
  Beta  occ. eigenvalues --  -10.05802 -10.05628 -10.05408 -10.04702 -10.04633
  Beta  occ. eigenvalues --  -10.04333  -7.83251  -5.79564  -5.79234  -5.78742
  Beta  occ. eigenvalues --   -1.05698  -0.97321  -0.93603  -0.85327  -0.77987
  Beta  occ. eigenvalues --   -0.73573  -0.67944  -0.63428  -0.62373  -0.61439
  Beta  occ. eigenvalues --   -0.54975  -0.49873  -0.49042  -0.46521  -0.46066
  Beta  occ. eigenvalues --   -0.42882  -0.40698  -0.40537  -0.39373  -0.37595
  Beta  occ. eigenvalues --   -0.35858  -0.34885  -0.33381  -0.32634  -0.32153
  Beta  occ. eigenvalues --   -0.30293  -0.28515  -0.28363  -0.26678  -0.24848
  Beta  occ. eigenvalues --   -0.24512  -0.23470  -0.22789  -0.21074  -0.20419
  Beta  occ. eigenvalues --   -0.19611  -0.16434  -0.15573  -0.13505  -0.13117
  Beta  occ. eigenvalues --   -0.07120
  Beta virt. eigenvalues --    0.06537   0.07988   0.08223   0.09057   0.09510
  Beta virt. eigenvalues --    0.10271   0.10666   0.11119   0.12158   0.12694
  Beta virt. eigenvalues --    0.12882   0.13358   0.14211   0.14321   0.15083

 Mulliken charges and spin densities:
               1          2
     1  C   -0.321690   0.154637
     2  C   -0.385561  -0.009790
     3  C   -0.154476   0.049252
     4  C    1.181540   0.086988
     5  C   -0.696973   0.056070
     6  C   -0.440001   0.008300
     7  C    1.166004  -0.104252
     8  C   -0.943091  -0.005477
     9  N    0.013926  -0.127509
    10  C    0.596529  -0.393219
    11  S   -0.556015   0.169513
    12  N   -0.374227   0.109496
    13  O   -0.090751   0.000984
    14  C    0.012820  -0.003130
    15  O   -0.238358   0.000624
    16  O   -0.186469  -0.001163
    17  H    0.099338  -0.013037
    18  H    0.130445   0.002382
    19  H    0.056194   0.038801
    20  H    0.176310  -0.001734
    21  H    0.131901  -0.000611
    22  H   -0.503967   0.776002
    23  H    0.047919   0.200868
    24  H    0.278650   0.006004
 Sum of Mulliken charges =  -1.00000   1.00000

 Dipole moment (field-independent basis, Debye):
    X=              4.4208    Y=              4.9786    Z=             -0.6097  Tot=              6.6859
 Quadrupole moment (field-independent basis, Debye-Ang):
   XX=           -151.9544   YY=           -118.9501   ZZ=           -117.4344
   XY=            -12.1638   XZ=              4.7132   YZ=              4.1377

 Summary of Natural Population Analysis:

                                       Natural Population
                Natural  -----------------------------------------------
    Atom  No    Charge         Core      Valence    Rydberg      Total
 -----------------------------------------------------------------------
      C    1   -0.08235      0.99957     2.07289    0.00988     3.08235
      C    2   -0.11396      0.99958     2.10519    0.00920     3.11396
      C    3   -0.08180      0.99954     2.07444    0.00781     3.08180
      C    4   -0.01526      0.99949     2.00675    0.00903     3.01526
      C    5   -0.08671      0.99954     2.07948    0.00770     3.08671
      C    6   -0.10931      0.99958     2.10046    0.00927     3.10931
      C    7   -0.12141      0.99938     2.11077    0.01125     3.12141
      C    8    0.26000      0.99921     1.72295    0.01784     2.74000
      N    9   -0.30265      0.99961     2.79242    0.01062     3.80265
      C   10    0.18160      0.99965     1.79682    0.02194     2.81840
      S   11    0.16828      4.99946     2.81267    0.01959     7.83172
      N   12   -0.39470      0.99969     2.88286    0.01216     3.89470
      O   13   -0.27034      0.99983     3.26144    0.00907     4.27034
      C   14    0.51413      0.99978     1.45869    0.02740     2.48587
      O   15   -0.30948      0.99986     3.30398    0.00564     4.30948
      O   16   -0.34094      0.99987     3.33524    0.00583     4.34094
      H   17    0.08955      0.00000     0.40944    0.00101     0.41045
      H   18    0.09298      0.00000     0.40603    0.00098     0.40702
      H   19    0.09875      0.00000     0.39997    0.00128     0.40125
      H   20    0.10342      0.00000     0.39526    0.00132     0.39658
      H   21    0.09225      0.00000     0.40673    0.00102     0.40775
      H   22    0.19625      0.00000     0.29151    0.01224     0.30375
      H   23    0.19169      0.00000     0.30574    0.00257     0.30831
      H   24    0.24003      0.00000     0.25754    0.00243     0.25997
 =======================================================================
   * Total *    0.00002     19.99361    40.78927    0.21710    60.99998

 Normal termination of Gaussian 16 at Thu Dec 10 23:40:58 2020.
