 Gaussian 16, Revision A.03,

 -----------------------------------------------------------
 # opt freq B3LYP/6-31G(d) empiricaldispersion=gd3bj scf=xqc
 -----------------------------------------------------------

 -------------------------------
 CID_114411262_JID_5551_neutraal
 -------------------------------
 Symbolic Z-matrix:
 Charge =  0 Multiplicity = 1

 SCF Done:  E(RB3LYP) =  -1050.01532293     A.U. after   14 cycles
 SCF Done:  E(RB3LYP) =  -1050.01987374     A.U. after   12 cycles
 SCF Done:  E(RB3LYP) =  -1050.02038525     A.U. after   12 cycles
 SCF Done:  E(RB3LYP) =  -1050.02054566     A.U. after   12 cycles
 SCF Done:  E(RB3LYP) =  -1050.02082012     A.U. after   11 cycles
 SCF Done:  E(RB3LYP) =  -1050.02090242     A.U. after   11 cycles
 SCF Done:  E(RB3LYP) =  -1050.02092299     A.U. after   11 cycles
 SCF Done:  E(RB3LYP) =  -1050.02092838     A.U. after    9 cycles
 SCF Done:  E(RB3LYP) =  -1050.02092951     A.U. after    8 cycles
 SCF Done:  E(RB3LYP) =  -1050.02093009     A.U. after    8 cycles
 Optimization completed.
    -- Stationary point found.
 Normal termination of Gaussian 16 at Thu Dec 10 16:29:40 2020.

 --------------------------------------------------------------------
 #N Geom=AllCheck Guess=TCheck SCRF=Check GenChk RB3LYP/6-31G(d) Freq
 --------------------------------------------------------------------

 Structure from the checkpoint file:  "JID_5551.chk"
 -------------------------------
 CID_114411262_JID_5551_neutraal
 -------------------------------
 Charge =  0 Multiplicity = 1

 SCF Done:  E(RB3LYP) =  -1050.02093009     A.U. after    1 cycles

  Exact polarizability: 137.493   6.428 126.136  -0.654  -5.131 131.204
 Approx polarizability: 183.731   8.996 187.364  -2.814 -14.239 215.885

                      1                      2                      3
                      A                      A                      A
 Frequencies --     42.0145                56.2217                69.3209
 Red. masses --      3.3050                 3.7442                 4.1965
 Frc consts  --      0.0034                 0.0070                 0.0119
 IR Inten    --      0.0302                 0.7723                 0.7093

                      4                      5                      6
                      A                      A                      A
 Frequencies --    127.2422               168.8926               178.8895
 Red. masses --      3.6271                 3.1606                 3.8291
 Frc consts  --      0.0346                 0.0531                 0.0722
 IR Inten    --      1.9416                 1.7584                 2.7819

                      7                      8                      9
                      A                      A                      A
 Frequencies --    196.3371               236.7338               266.7872
 Red. masses --      2.5558                 3.6070                 3.1045
 Frc consts  --      0.0580                 0.1191                 0.1302
 IR Inten    --      0.2697                 0.4075                 0.2228

                     10                     11                     12
                      A                      A                      A
 Frequencies --    277.1466               294.4659               315.8358
 Red. masses --      4.1748                 3.9847                 4.1876
 Frc consts  --      0.1889                 0.2036                 0.2461
 IR Inten    --      1.9435                 7.2818                 0.5868

                     13                     14                     15
                      A                      A                      A
 Frequencies --    353.3141               373.5738               392.0784
 Red. masses --      3.0671                 1.9278                 1.9832
 Frc consts  --      0.2256                 0.1585                 0.1796
 IR Inten    --      0.1129                 0.4643                 1.1673

                     16                     17                     18
                      A                      A                      A
 Frequencies --    440.4816               471.6762               483.7279
 Red. masses --      3.5657                 4.6729                 3.8635
 Frc consts  --      0.4076                 0.6125                 0.5326
 IR Inten    --      0.8329                54.6162                24.3569

                     19                     20                     21
                      A                      A                      A
 Frequencies --    501.3258               516.0443               525.1208
 Red. masses --      4.3013                 3.2970                 2.9855
 Frc consts  --      0.6369                 0.5173                 0.4850
 IR Inten    --      4.9257                 1.3873                15.6154

                     22                     23                     24
                      A                      A                      A
 Frequencies --    628.3145               661.7827               666.9543
 Red. masses --      6.7868                 1.7227                 1.7393
 Frc consts  --      1.5786                 0.4445                 0.4558
 IR Inten    --     46.4226                76.9184                 3.2998

                     25                     26                     27
                      A                      A                      A
 Frequencies --    734.7842               791.8206               820.5694
 Red. masses --      3.5873                 1.7007                 1.5498
 Frc consts  --      1.1411                 0.6282                 0.6148
 IR Inten    --     45.8910                12.1960                 1.6535

                     28                     29                     30
                      A                      A                      A
 Frequencies --    823.5120               841.5370               888.6142
 Red. masses --      2.0704                 2.8802                 3.9463
 Frc consts  --      0.8273                 1.2018                 1.8360
 IR Inten    --     71.8307                16.8018                42.2818

                     31                     32                     33
                      A                      A                      A
 Frequencies --    896.1751               924.1443               937.5132
 Red. masses --      2.3927                 2.1295                 2.8012
 Frc consts  --      1.1322                 1.0715                 1.4506
 IR Inten    --      0.1652                 7.1414                93.0620

                     34                     35                     36
                      A                      A                      A
 Frequencies --    968.5725               981.9303               996.9439
 Red. masses --      2.2289                 1.9192                 1.4102
 Frc consts  --      1.2320                 1.0903                 0.8258
 IR Inten    --     10.9967                13.3645                 0.4061

                     37                     38                     39
                      A                      A                      A
 Frequencies --   1036.3384              1037.4559              1056.9086
 Red. masses --      1.9345                 1.4524                 2.4568
 Frc consts  --      1.2241                 0.9210                 1.6169
 IR Inten    --     17.9900                 0.7383                22.8241

                     40                     41                     42
                      A                      A                      A
 Frequencies --   1069.1258              1075.1369              1098.3491
 Red. masses --      1.8689                 1.7138                 2.7496
 Frc consts  --      1.2586                 1.1672                 1.9543
 IR Inten    --     14.1789                 8.6149                46.9687

                     43                     44                     45
                      A                      A                      A
 Frequencies --   1112.1309              1115.7931              1122.2690
 Red. masses --      1.6841                 3.1069                 2.1227
 Frc consts  --      1.2273                 2.2790                 1.5752
 IR Inten    --      3.9536                84.4122                51.3942

                     46                     47                     48
                      A                      A                      A
 Frequencies --   1148.2004              1162.8794              1200.3807
 Red. masses --      2.1380                 4.4446                 1.2432
 Frc consts  --      1.6607                 3.5412                 1.0554
 IR Inten    --     12.4050                10.4590                 3.8423

                     49                     50                     51
                      A                      A                      A
 Frequencies --   1223.4894              1238.8401              1245.3855
 Red. masses --      1.0741                 1.1205                 1.4642
 Frc consts  --      0.9473                 1.0132                 1.3380
 IR Inten    --      4.9335                 6.5689                 2.4158

                     52                     53                     54
                      A                      A                      A
 Frequencies --   1273.7784              1277.8781              1310.6696
 Red. masses --      1.2888                 1.1979                 8.4231
 Frc consts  --      1.2321                 1.1525                 8.5253
 IR Inten    --      8.8380                11.2075               171.9348

                     55                     56                     57
                      A                      A                      A
 Frequencies --   1335.7236              1336.3142              1340.2408
 Red. masses --      1.2147                 1.3251                 1.5866
 Frc consts  --      1.2769                 1.3942                 1.6792
 IR Inten    --      1.2186                 1.9703                 9.2276

                     58                     59                     60
                      A                      A                      A
 Frequencies --   1347.2855              1373.7343              1376.3744
 Red. masses --      1.3985                 1.3255                 1.2957
 Frc consts  --      1.4957                 1.4737                 1.4462
 IR Inten    --      4.4974                10.4477                 1.1634

                     61                     62                     63
                      A                      A                      A
 Frequencies --   1388.3649              1395.8551              1408.4121
 Red. masses --      1.2999                 1.4727                 1.4500
 Frc consts  --      1.4763                 1.6907                 1.6946
 IR Inten    --     14.4784                 1.3116                 2.1194

                     64                     65                     66
                      A                      A                      A
 Frequencies --   1419.7031              1435.0999              1457.0640
 Red. masses --      1.5118                 1.5243                 1.4518
 Frc consts  --      1.7953                 1.8497                 1.8160
 IR Inten    --      9.8467                 1.1580                 3.5322

                     67                     68                     69
                      A                      A                      A
 Frequencies --   1498.3412              1501.1532              1506.7113
 Red. masses --      1.1562                 1.0928                 1.1792
 Frc consts  --      1.5294                 1.4510                 1.5772
 IR Inten    --      7.3318                 3.0802                 0.6239

                     70                     71                     72
                      A                      A                      A
 Frequencies --   1512.8333              1518.1908              1527.1321
 Red. masses --      1.0838                 1.0803                 1.1289
 Frc consts  --      1.4615                 1.4671                 1.5511
 IR Inten    --      7.1068                12.6483                 0.8705

                     73                     74                     75
                      A                      A                      A
 Frequencies --   1534.9836              1539.6889              1746.2437
 Red. masses --      1.0894                 1.0995                 6.3922
 Frc consts  --      1.5123                 1.5358                11.4844
 IR Inten    --      8.6223                 4.2499                 2.1164

                     76                     77                     78
                      A                      A                      A
 Frequencies --   2993.2015              3010.1243              3014.3768
 Red. masses --      1.0695                 1.0728                 1.0677
 Frc consts  --      5.6454                 5.7271                 5.7158
 IR Inten    --     57.6411                23.6351                49.6712

                     79                     80                     81
                      A                      A                      A
 Frequencies --   3019.3848              3032.5332              3058.7588
 Red. masses --      1.0747                 1.0616                 1.0712
 Frc consts  --      5.7726                 5.7521                 5.9050
 IR Inten    --     36.7408                34.0397                14.8937

                     82                     83                     84
                      A                      A                      A
 Frequencies --   3060.7852              3066.4476              3074.6980
 Red. masses --      1.0667                 1.0989                 1.0814
 Frc consts  --      5.8881                 6.0883                 6.0237
 IR Inten    --      2.5128                44.0500                19.6332

                     85                     86                     87
                      A                      A                      A
 Frequencies --   3084.4226              3086.8414              3105.8520
 Red. masses --      1.0921                 1.0905                 1.0892
 Frc consts  --      6.1217                 6.1220                 6.1902
 IR Inten    --     54.3936                49.8994                13.0948

                     88                     89                     90
                      A                      A                      A
 Frequencies --   3114.8388              3126.2160              3165.1130
 Red. masses --      1.0996                 1.0980                 1.0914
 Frc consts  --      6.2859                 6.3228                 6.4418
 IR Inten    --     14.0586                 8.2414                 5.0160

                     91                     92                     93
                      A                      A                      A
 Frequencies --   3169.1271              3190.8532              3502.0616
 Red. masses --      1.0848                 1.0973                 1.0746
 Frc consts  --      6.4194                 6.5824                 7.7653
 IR Inten    --      7.9596                33.1918                 1.4117

 - Thermochemistry -
 -------------------
 Temperature   298.150 Kelvin.  Pressure   1.00000 Atm.
 Atom     1 has atomic number  6 and mass  12.00000

 Molecular mass:   230.10890 amu.
 Principal axes and moments of inertia in atomic units:
                           1         2         3
     Eigenvalues --  2584.224153374.848464197.94271
           X            0.99997  -0.00620  -0.00434
           Y            0.00615   0.99992  -0.01097
           Z            0.00441   0.01094   0.99993
 This molecule is an asymmetric top.
 Rotational symmetry number  1.
 Warning -- assumption of classical behavior for rotation
           may cause significant error
 Rotational temperatures (Kelvin)      0.03352     0.02566     0.02063
 Rotational constants (GHZ):           0.69837     0.53476     0.42991
 Zero-point vibrational energy     753829.8 (Joules/Mol)
                                  180.16964 (Kcal/Mol)
 Warning -- explicit consideration of  21 degrees of freedom as
           vibrations may cause significant error
 Vibrational temperatures:     60.45    80.89    99.74   183.07   243.00
          (Kelvin)            257.38   282.49   340.61   383.85   398.75
                              423.67   454.42   508.34   537.49   564.11
                              633.75   678.64   695.98   721.30   742.47
                              755.53   904.00   952.16   959.60  1057.19
                             1139.25  1180.62  1184.85  1210.78  1278.52
                             1289.40  1329.64  1348.87  1393.56  1412.78
                             1434.38  1491.06  1492.67  1520.66  1538.23
                             1546.88  1580.28  1600.11  1605.38  1614.69
                             1652.00  1673.12  1727.08  1760.33  1782.41
                             1791.83  1832.68  1838.58  1885.76  1921.81
                             1922.66  1928.31  1938.44  1976.50  1980.30
                             1997.55  2008.32  2026.39  2042.64  2064.79
                             2096.39  2155.78  2159.82  2167.82  2176.63
                             2184.34  2197.20  2208.50  2215.27  2512.46
                             4306.55  4330.90  4337.02  4344.22  4363.14
                             4400.87  4403.79  4411.93  4423.80  4437.80
                             4441.28  4468.63  4481.56  4497.93  4553.89
                             4559.67  4590.93  5038.69

 Zero-point correction=                           0.287119 (Hartree/Particle)
 Thermal correction to Energy=                    0.301162
 Thermal correction to Enthalpy=                  0.302106
 Thermal correction to Gibbs Free Energy=         0.246325
 Sum of electronic and zero-point Energies=          -1049.733812
 Sum of electronic and thermal Energies=             -1049.719768
 Sum of electronic and thermal Enthalpies=           -1049.718824
 Sum of electronic and thermal Free Energies=        -1049.774605

                     E (Thermal)             CV                S
                      KCal/Mol        Cal/Mol-Kelvin    Cal/Mol-Kelvin
 Total                  188.982             55.650            117.401
 Electronic               0.000              0.000              0.000
 Translational            0.889              2.981             42.202
 Rotational               0.889              2.981             31.971
 Vibrational            187.204             49.688             43.228
 Vibration     1          0.595              1.980              5.162
 Vibration     2          0.596              1.975              4.586
 Vibration     3          0.598              1.969              4.173
 Vibration     4          0.611              1.926              2.987
 Vibration     5          0.625              1.881              2.448
 Vibration     6          0.629              1.868              2.340
 Vibration     7          0.636              1.845              2.167
 Vibration     8          0.656              1.784              1.827
 Vibration     9          0.672              1.734              1.617
 Vibration    10          0.678              1.716              1.551
 Vibration    11          0.689              1.684              1.448
 Vibration    12          0.703              1.643              1.332
 Vibration    13          0.730              1.568              1.151
 Vibration    14          0.745              1.526              1.065
 Vibration    15          0.760              1.487              0.992
 Vibration    16          0.800              1.382              0.825
 Vibration    17          0.829              1.313              0.733
 Vibration    18          0.840              1.286              0.700
 Vibration    19          0.857              1.247              0.655
 Vibration    20          0.871              1.214              0.619
 Vibration    21          0.880              1.194              0.598

                           ! Non-Optimized Parameters !
 Normal termination of Gaussian 16 at Thu Dec 10 16:42:54 2020.

 ----------------------------------------------------------------------
 # B3LYP/6-311++G(d,p) empiricaldispersion=gd3bj scf=xqc pop=npa geom=c
 heck
 ----------------------------------------------------------------------

 ---------------------------------------
 CID_114411262_JID_5551_Energie_neutraal
 ---------------------------------------
 Structure from the checkpoint file:  "JID_5551.chk"
 Charge =  0 Multiplicity = 1

 SCF Done:  E(RB3LYP) =  -1050.23383321     A.U. after   15 cycles
 Normal termination of Gaussian 16 at Thu Dec 10 16:48:32 2020.

 ----------------------------------------------------------------------
 # B3LYP/6-311++G(d,p) empiricaldispersion=gd3bj scf=xqc pop=npa geom=c
 heck
 ----------------------------------------------------------------------

 -------------------------------------
 CID_114411262_JID_5551_Energie_kation
 -------------------------------------
 Structure from the checkpoint file:  "JID_5551.chk"
 Charge =  1 Multiplicity = 2

 SCF Done:  E(UB3LYP) =  -1049.92939789     A.U. after   25 cycles
 Normal termination of Gaussian 16 at Thu Dec 10 17:01:41 2020.
 Gaussian 16:  ES64L-G16RevA.03 25-Dec-2016

 ----------------------------------------------------------------------
 # B3LYP/6-311++G(d,p) empiricaldispersion=gd3bj scf=xqc pop=npa geom=c
 heck
 ----------------------------------------------------------------------

 ------------------------------------
 CID_114411262_JID_5551_Energie_anion
 ------------------------------------
 Structure from the checkpoint file:  "JID_5551.chk"
 Charge = -1 Multiplicity = 2

                         Standard orientation:
 ---------------------------------------------------------------------
 Center     Atomic      Atomic             Coordinates (Angstroms)
 Number     Number       Type             X           Y           Z
 ---------------------------------------------------------------------
      1          6           0        2.428542    1.022558   -1.269860
      2          6           0        1.737813   -0.342557   -1.249223
      3          7           0        0.925335   -0.445374   -0.026087
      4          6           0        1.716426   -0.438889    1.213684
      5          6           0        2.740810    0.660838    1.170868
      6          6           0        3.051935    1.336026    0.062975
      7         16           0       -0.379629   -1.528414   -0.048828
      8          8           0       -0.435526   -2.133868   -1.387113
      9          8           0       -0.288984   -2.367618    1.155130
     10          6           0       -1.897838   -0.518541    0.148246
     11          6           0       -2.260156    0.288921   -1.106441
     12          6           0       -1.554942    1.644765   -1.170600
     13          7           0       -1.811573    2.382506    0.067486
     14          6           0       -1.217068    1.710368    1.226431
     15          6           0       -1.890302    0.347061    1.419631
     16          1           0        3.195065    1.021117   -2.056174
     17          1           0        1.708469    1.806608   -1.543728
     18          1           0        2.490776   -1.144060   -1.277055
     19          1           0        1.086956   -0.473999   -2.112686
     20          1           0        1.041526   -0.282164    2.059624
     21          1           0        2.201658   -1.412536    1.385104
     22          1           0        3.232574    0.883984    2.115126
     23          1           0        3.787588    2.136597    0.103403
     24          1           0       -2.622264   -1.331905    0.274520
     25          1           0       -2.060797   -0.303162   -2.003868
     26          1           0       -3.340363    0.471457   -1.060524
     27          1           0       -0.479087    1.495295   -1.362462
     28          1           0       -1.960732    2.220677   -2.009520
     29          1           0       -1.426943    3.321127   -0.010948
     30          1           0       -1.402533    2.324673    2.114626
     31          1           0       -0.127394    1.587914    1.126457
     32          1           0       -2.940469    0.525419    1.679018
     33          1           0       -1.441550   -0.203738    2.252144
 ---------------------------------------------------------------------

 SCF Done:  E(UB3LYP) =  -1050.22425263     A.U. after   31 cycles

 The electronic state is 2-A.
 Alpha  occ. eigenvalues --  -88.96381 -19.02505 -19.02349 -14.25102 -14.20095
 Alpha  occ. eigenvalues --  -10.12567 -10.12043 -10.11542 -10.09698 -10.09513
 Alpha  occ. eigenvalues --  -10.08848 -10.08615 -10.08201 -10.07984 -10.07807
 Alpha  occ. eigenvalues --   -8.02641  -5.98937  -5.98902  -5.98663  -1.02393
 Alpha  occ. eigenvalues --   -0.91583  -0.85100  -0.81860  -0.72721  -0.70876
 Alpha  occ. eigenvalues --   -0.67574  -0.66706  -0.61041  -0.56788  -0.55044
 Alpha  occ. eigenvalues --   -0.53942  -0.51122  -0.47256  -0.43374  -0.42916
 Alpha  occ. eigenvalues --   -0.42482  -0.39954  -0.38931  -0.37628  -0.36824
 Alpha  occ. eigenvalues --   -0.36392  -0.36061  -0.35529  -0.33439  -0.33106
 Alpha  occ. eigenvalues --   -0.32271  -0.31230  -0.29953  -0.29643  -0.28916
 Alpha  occ. eigenvalues --   -0.27067  -0.26753  -0.25902  -0.24481  -0.24056
 Alpha  occ. eigenvalues --   -0.23550  -0.22654  -0.21418  -0.20512  -0.16885
 Alpha  occ. eigenvalues --   -0.15823  -0.13287   0.04045
 Alpha virt. eigenvalues --    0.06350   0.06874   0.07423   0.08241   0.08483
 Alpha virt. eigenvalues --    0.09401   0.09791   0.09892   0.10264   0.10950
 Alpha virt. eigenvalues --    0.11400   0.11930   0.12426   0.12877   0.13552

  Beta  occ. eigenvalues --  -88.96379 -19.02500 -19.02344 -14.25099 -14.20071
  Beta  occ. eigenvalues --  -10.12565 -10.12033 -10.11533 -10.09675 -10.09494
  Beta  occ. eigenvalues --  -10.08838 -10.08607 -10.08172 -10.07968 -10.07788
  Beta  occ. eigenvalues --   -8.02638  -5.98934  -5.98901  -5.98659  -1.02380
  Beta  occ. eigenvalues --   -0.91571  -0.85089  -0.81822  -0.72698  -0.70837
  Beta  occ. eigenvalues --   -0.67542  -0.66674  -0.61014  -0.56750  -0.54991
  Beta  occ. eigenvalues --   -0.53899  -0.51084  -0.47214  -0.43344  -0.42871
  Beta  occ. eigenvalues --   -0.42424  -0.39919  -0.38908  -0.37594  -0.36795
  Beta  occ. eigenvalues --   -0.36366  -0.36024  -0.35515  -0.33412  -0.33068
  Beta  occ. eigenvalues --   -0.32251  -0.31196  -0.29916  -0.29613  -0.28894
  Beta  occ. eigenvalues --   -0.27029  -0.26722  -0.25884  -0.24443  -0.24029
  Beta  occ. eigenvalues --   -0.23511  -0.22639  -0.21411  -0.20499  -0.16867
  Beta  occ. eigenvalues --   -0.15799  -0.13245
  Beta virt. eigenvalues --    0.06274   0.06950   0.07718   0.08103   0.08831
  Beta virt. eigenvalues --    0.09027   0.09610   0.09943   0.10266   0.10540
  Beta virt. eigenvalues --    0.11485   0.11679   0.12224   0.12751   0.13240

 Mulliken charges and spin densities:
               1          2
     1  C    0.565897  -1.048565
     2  C   -0.202674  -0.148890
     3  N    0.038577   0.074869
     4  C   -0.110685  -0.294071
     5  C   -0.449582   0.292924
     6  C    1.060313  -1.156960
     7  S    0.799823  -0.655338
     8  O   -0.147747   0.008426
     9  O   -0.150222   0.018395
    10  C    0.161560  -0.311427
    11  C   -0.810879   0.260088
    12  C    0.383384  -0.582918
    13  N   -0.327883   0.150694
    14  C    0.538909  -0.796376
    15  C   -0.912425   0.364952
    16  H   -0.347493   0.517652
    17  H   -0.611050   0.764852
    18  H    0.016970   0.162070
    19  H    0.189500   0.003997
    20  H    0.120404   0.038077
    21  H    0.138993   0.068749
    22  H   -0.631564   0.829949
    23  H   -0.709101   0.912944
    24  H    0.174163   0.118247
    25  H    0.000841   0.207366
    26  H    0.047161   0.101040
    27  H    0.767108  -0.689260
    28  H   -0.452985   0.659058
    29  H   -0.203939   0.467975
    30  H   -0.416476   0.609447
    31  H    0.461461  -0.279148
    32  H    0.027574   0.132874
    33  H   -0.007933   0.198308
 Sum of Mulliken charges =  -1.00000   1.00000

 Dipole moment (field-independent basis, Debye):
    X=             -3.3687    Y=             -5.1720    Z=              0.0512  Tot=              6.1726
 Quadrupole moment (field-independent basis, Debye-Ang):
   XX=           -155.6467   YY=           -163.1447   ZZ=           -141.4928
   XY=             -5.7779   XZ=             -1.8898   YZ=              0.3744

 Summary of Natural Population Analysis:

                                       Natural Population
                Natural  -----------------------------------------------
    Atom  No    Charge         Core      Valence    Rydberg      Total
 -----------------------------------------------------------------------
      C    1   -0.21127      0.99961     2.20166    0.01000     3.21127
      C    2   -0.08363      0.99960     2.07257    0.01145     3.08363
      N    3   -0.38262      0.99972     2.86914    0.01377     3.88262
      C    4   -0.10171      0.99958     2.09012    0.01201     3.10171
      C    5   -0.10372      0.99951     2.09314    0.01107     3.10372
      C    6   -0.08535      0.99951     2.07514    0.01070     3.08535
      S    7    1.10485      4.99917     1.79820    0.09777     6.89515
      O    8   -0.46818      0.99991     3.46295    0.00533     4.46818
      O    9   -0.46889      0.99991     3.46374    0.00524     4.46889
      C   10   -0.19134      0.99953     2.17770    0.01411     3.19134
      C   11   -0.20491      0.99959     2.19472    0.01060     3.20491
      C   12   -0.09059      0.99961     2.07930    0.01168     3.09059
      N   13   -0.34320      0.99974     2.83076    0.01270     3.84320
      C   14   -0.09184      0.99961     2.08071    0.01151     3.09184
      C   15   -0.20468      0.99959     2.19463    0.01045     3.20468
      H   16    0.10649      0.00000     0.39201    0.00150     0.39351
      H   17    0.10712      0.00000     0.39059    0.00229     0.39288
      H   18    0.09001      0.00000     0.40878    0.00121     0.40999
      H   19    0.11282      0.00000     0.38595    0.00123     0.38718
      H   20    0.10885      0.00000     0.38976    0.00138     0.39115
      H   21    0.10077      0.00000     0.39797    0.00126     0.39923
      H   22    0.10361      0.00000     0.39487    0.00152     0.39639
      H   23    0.10309      0.00000     0.39451    0.00239     0.39691
      H   24    0.11576      0.00000     0.38312    0.00112     0.38424
      H   25    0.11326      0.00000     0.38565    0.00109     0.38674
      H   26    0.10405      0.00000     0.39461    0.00134     0.39595
      H   27    0.08251      0.00000     0.41433    0.00316     0.41749
      H   28    0.09756      0.00000     0.40090    0.00154     0.40244
      H   29    0.18038      0.00000     0.31590    0.00372     0.31962
      H   30    0.09695      0.00000     0.40156    0.00149     0.40305
      H   31    0.08870      0.00000     0.40812    0.00319     0.41130
      H   32    0.10502      0.00000     0.39365    0.00133     0.39498
      H   33    0.11011      0.00000     0.38871    0.00119     0.38989
 =======================================================================
   * Total *   -0.00000     18.99421    42.72544    0.28035    62.00000

 Normal termination of Gaussian 16 at Thu Dec 10 17:17:11 2020.
