 Gaussian 16, Revision A.03,

 -----------------------------------------------------------
 # opt freq B3LYP/6-31G(d) empiricaldispersion=gd3bj scf=xqc
 -----------------------------------------------------------

 -------------------------------
 CID_152007324_JID_3166_neutraal
 -------------------------------
 Symbolic Z-matrix:
 Charge =  0 Multiplicity = 1

 SCF Done:  E(RB3LYP) =  -653.180279633     A.U. after   17 cycles
 SCF Done:  E(RB3LYP) =  -653.186941958     A.U. after   15 cycles
 SCF Done:  E(RB3LYP) =  -653.187963230     A.U. after   13 cycles
 SCF Done:  E(RB3LYP) =  -653.188446892     A.U. after   13 cycles
 SCF Done:  E(RB3LYP) =  -653.188541378     A.U. after   12 cycles
 SCF Done:  E(RB3LYP) =  -653.188621861     A.U. after   12 cycles
 SCF Done:  E(RB3LYP) =  -653.188676991     A.U. after   12 cycles
 SCF Done:  E(RB3LYP) =  -653.188718141     A.U. after   12 cycles
 SCF Done:  E(RB3LYP) =  -653.188766298     A.U. after   12 cycles
 SCF Done:  E(RB3LYP) =  -653.188824588     A.U. after   12 cycles
 SCF Done:  E(RB3LYP) =  -653.189287655     A.U. after   11 cycles
 SCF Done:  E(RB3LYP) =  -653.189288238     A.U. after   11 cycles
 SCF Done:  E(RB3LYP) =  -653.189286064     A.U. after   12 cycles
 SCF Done:  E(RB3LYP) =  -653.189288748     A.U. after   11 cycles
 SCF Done:  E(RB3LYP) =  -653.189288768     A.U. after    8 cycles
 Optimization completed.
    -- Stationary point found.
 Normal termination of Gaussian 16 at Wed Dec  9 22:30:46 2020.

 --------------------------------------------------------------------
 #N Geom=AllCheck Guess=TCheck SCRF=Check GenChk RB3LYP/6-31G(d) Freq
 --------------------------------------------------------------------

 Structure from the checkpoint file:  "JID_3166.chk"
 -------------------------------
 CID_152007324_JID_3166_neutraal
 -------------------------------
 Charge =  0 Multiplicity = 1

 SCF Done:  E(RB3LYP) =  -653.189288768     A.U. after    1 cycles

  Exact polarizability: 135.545   6.232  87.779  11.103   2.756  67.633
 Approx polarizability: 204.763   8.670 149.292  31.067   5.592 117.080

                      1                      2                      3
                      A                      A                      A
 Frequencies --     16.8969                38.4491                61.8212
 Red. masses --      7.1797                 6.6186                 7.2856
 Frc consts  --      0.0012                 0.0058                 0.0164
 IR Inten    --      0.4816                 0.4038                 0.3256

                      4                      5                      6
                      A                      A                      A
 Frequencies --     91.8624               109.8702               146.6749
 Red. masses --      6.8858                 8.2202                 8.4646
 Frc consts  --      0.0342                 0.0585                 0.1073
 IR Inten    --      0.1988                 0.5028                 1.2165

                      7                      8                      9
                      A                      A                      A
 Frequencies --    184.2615               273.3600               283.8217
 Red. masses --      6.6563                 3.5784                 4.2013
 Frc consts  --      0.1332                 0.1575                 0.1994
 IR Inten    --      2.6381                 0.9757                 2.2841

                     10                     11                     12
                      A                      A                      A
 Frequencies --    349.0750               482.9064               492.6838
 Red. masses --      2.9275                 1.6322                 8.2724
 Frc consts  --      0.2102                 0.2243                 1.1831
 IR Inten    --      0.2675                52.3102                 3.2587

                     13                     14                     15
                      A                      A                      A
 Frequencies --    507.8693               552.4320               580.5177
 Red. masses --      2.8960                 3.4435                13.3194
 Frc consts  --      0.4401                 0.6192                 2.6446
 IR Inten    --      0.1076                19.0503                 4.6861

                     16                     17                     18
                      A                      A                      A
 Frequencies --    639.0788               659.9945               693.0681
 Red. masses --      2.9902                 2.4035                 2.5613
 Frc consts  --      0.7195                 0.6169                 0.7249
 IR Inten    --     56.4175                15.2487                43.7072

                     19                     20                     21
                      A                      A                      A
 Frequencies --    711.6298               719.0664               738.3142
 Red. masses --      3.3956                 2.8229                 4.3342
 Frc consts  --      1.0132                 0.8600                 1.3920
 IR Inten    --      8.3967                36.3422               102.8596

                     22                     23                     24
                      A                      A                      A
 Frequencies --    855.1438               864.2099               905.6925
 Red. masses --      2.3292                 2.0340                 2.3909
 Frc consts  --      1.0035                 0.8951                 1.1555
 IR Inten    --      1.4848                16.9607                96.7066

                     25                     26                     27
                      A                      A                      A
 Frequencies --    966.2226              1000.4342              1048.0099
 Red. masses --      2.3284                 5.7810                 3.3049
 Frc consts  --      1.2807                 3.4090                 2.1386
 IR Inten    --      6.4572                31.9243                33.6897

                     28                     29                     30
                      A                      A                      A
 Frequencies --   1059.3334              1138.3162              1168.6297
 Red. masses --      2.3781                 2.8097                 2.2566
 Frc consts  --      1.5723                 2.1450                 1.8158
 IR Inten    --     32.1734                32.6568                12.5732

                     31                     32                     33
                      A                      A                      A
 Frequencies --   1205.8418              1229.7685              1240.3330
 Red. masses --      5.2724                 1.3084                 2.0147
 Frc consts  --      4.5169                 1.1658                 1.8262
 IR Inten    --      4.2793                10.7107                61.0369

                     34                     35                     36
                      A                      A                      A
 Frequencies --   1292.9454              1323.9288              1353.7521
 Red. masses --      1.5471                 7.6403                 2.2543
 Frc consts  --      1.5239                 7.8903                 2.4342
 IR Inten    --     29.4517               187.8072                 4.6821

                     37                     38                     39
                      A                      A                      A
 Frequencies --   1356.9743              1385.7767              1426.9169
 Red. masses --      2.3522                 2.7207                 1.5352
 Frc consts  --      2.5519                 3.0784                 1.8416
 IR Inten    --    452.8745                 6.2788                60.0371

                     40                     41                     42
                      A                      A                      A
 Frequencies --   1433.0341              1495.4005              1502.5000
 Red. masses --      2.2488                 1.8630                 1.4545
 Frc consts  --      2.7209                 2.4546                 1.9346
 IR Inten    --      8.1015                 6.1939                68.0094

                     43                     44                     45
                      A                      A                      A
 Frequencies --   1509.5232              1516.1659              1577.4817
 Red. masses --      1.2222                 1.2526                 3.7821
 Frc consts  --      1.6409                 1.6965                 5.5451
 IR Inten    --     13.0164                28.7046                 7.3721

                     46                     47                     48
                      A                      A                      A
 Frequencies --   1820.9120              2306.3050              3046.5336
 Red. masses --      9.8823                13.9859                 1.0605
 Frc consts  --     19.3058                43.8303                 5.7991
 IR Inten    --    450.4354               587.6111                13.6914

                     49                     50                     51
                      A                      A                      A
 Frequencies --   3075.2764              3093.4734              3158.0044
 Red. masses --      1.0939                 1.0748                 1.0998
 Frc consts  --      6.0951                 6.0599                 6.4625
 IR Inten    --      3.7211                41.4664                10.7390

                     52                     53                     54
                      A                      A                      A
 Frequencies --   3284.1405              3604.1445              3670.0357
 Red. masses --      1.0979                 1.0761                 1.0826
 Frc consts  --      6.9770                 8.2357                 8.5917
 IR Inten    --      0.8661               106.2264               103.5390

 - Thermochemistry -
 -------------------
 Temperature   298.150 Kelvin.  Pressure   1.00000 Atm.
 Atom     1 has atomic number  6 and mass  12.00000

 Molecular mass:   181.07121 amu.
 Principal axes and moments of inertia in atomic units:
                           1         2         3
     Eigenvalues --   850.025235130.265165370.25995
           X            0.99999  -0.00083  -0.00319
           Y            0.00080   0.99997  -0.00717
           Z            0.00320   0.00717   0.99997
 This molecule is an asymmetric top.
 Rotational symmetry number  1.
 Warning -- assumption of classical behavior for rotation
           may cause significant error
 Rotational temperatures (Kelvin)      0.10190     0.01688     0.01613
 Rotational constants (GHZ):           2.12316     0.35178     0.33606
 Zero-point vibrational energy     390274.6 (Joules/Mol)
                                   93.27786 (Kcal/Mol)
 Warning -- explicit consideration of  15 degrees of freedom as
           vibrations may cause significant error
 Vibrational temperatures:     24.31    55.32    88.95   132.17   158.08
          (Kelvin)            211.03   265.11   393.30   408.36   502.24
                              694.79   708.86   730.71   794.83   835.24
                              919.49   949.58   997.17  1023.88  1034.58
                             1062.27  1230.36  1243.41  1303.09  1390.18
                             1439.40  1507.85  1524.14  1637.78  1681.40
                             1734.94  1769.36  1784.56  1860.26  1904.84
                             1947.75  1952.38  1993.82  2053.02  2061.82
                             2151.55  2161.76  2171.87  2181.42  2269.64
                             2619.89  3318.26  4383.28  4424.64  4450.82
                             4543.66  4725.15  5185.56  5280.36

 Zero-point correction=                           0.148648 (Hartree/Particle)
 Thermal correction to Energy=                    0.160243
 Thermal correction to Enthalpy=                  0.161187
 Thermal correction to Gibbs Free Energy=         0.107954
 Sum of electronic and zero-point Energies=           -653.040641
 Sum of electronic and thermal Energies=              -653.029046
 Sum of electronic and thermal Enthalpies=            -653.028101
 Sum of electronic and thermal Free Energies=         -653.081335

                     E (Thermal)             CV                S
                      KCal/Mol        Cal/Mol-Kelvin    Cal/Mol-Kelvin
 Total                  100.554             40.923            112.039
 Electronic               0.000              0.000              0.000
 Translational            0.889              2.981             41.488
 Rotational               0.889              2.981             31.527
 Vibrational             98.777             34.961             39.024
 Vibration     1          0.593              1.986              6.969
 Vibration     2          0.594              1.982              5.337
 Vibration     3          0.597              1.973              4.398
 Vibration     4          0.602              1.955              3.620
 Vibration     5          0.606              1.941              3.271
 Vibration     6          0.617              1.906              2.715
 Vibration     7          0.631              1.861              2.285
 Vibration     8          0.676              1.722              1.575
 Vibration     9          0.682              1.704              1.511
 Vibration    10          0.726              1.577              1.170
 Vibration    11          0.839              1.288              0.702
 Vibration    12          0.848              1.266              0.677
 Vibration    13          0.863              1.233              0.639
 Vibration    14          0.908              1.134              0.539
 Vibration    15          0.937              1.073              0.484

 Optimization completed.
    -- Stationary point found.
 Normal termination of Gaussian 16 at Wed Dec  9 22:35:05 2020.

 ----------------------------------------------------------------------
 # B3LYP/6-311++G(d,p) empiricaldispersion=gd3bj scf=xqc pop=npa geom=c
 heck
 ----------------------------------------------------------------------

 ---------------------------------------
 CID_152007324_JID_3166_Energie_neutraal
 ---------------------------------------
 Structure from the checkpoint file:  "JID_3166.chk"
 Charge =  0 Multiplicity = 1

 SCF Done:  E(RB3LYP) =  -653.378023094     A.U. after   16 cycles
 Normal termination of Gaussian 16 at Wed Dec  9 22:37:01 2020.

 ----------------------------------------------------------------------
 # B3LYP/6-311++G(d,p) empiricaldispersion=gd3bj scf=xqc pop=npa geom=c
 heck
 ----------------------------------------------------------------------

 -------------------------------------
 CID_152007324_JID_3166_Energie_kation
 -------------------------------------
 Structure from the checkpoint file:  "JID_3166.chk"
 Charge =  1 Multiplicity = 2

 SCF Done:  E(UB3LYP) =  -653.037488665     A.U. after   32 cycles
 Normal termination of Gaussian 16 at Wed Dec  9 22:42:20 2020.
 Gaussian 16:  ES64L-G16RevA.03 25-Dec-2016

 ----------------------------------------------------------------------
 # B3LYP/6-311++G(d,p) empiricaldispersion=gd3bj scf=xqc pop=npa geom=c
 heck
 ----------------------------------------------------------------------

 ------------------------------------
 CID_152007324_JID_3166_Energie_anion
 ------------------------------------
 Structure from the checkpoint file:  "JID_3166.chk"
 Charge = -1 Multiplicity = 2

                         Standard orientation:
 ---------------------------------------------------------------------
 Center     Atomic      Atomic             Coordinates (Angstroms)
 Number     Number       Type             X           Y           Z
 ---------------------------------------------------------------------
      1          6           0        3.146228   -0.898334   -0.816766
      2          7           0        3.981014    0.143762   -0.842674
      3          7           0        3.341111    1.053878   -0.118538
      4          7           0        2.159196    0.693849    0.379188
      5          6           0        2.005056   -0.564784   -0.055511
      6          6           0        0.789948   -1.384797    0.267921
      7          6           0       -0.109183   -0.753047    1.340735
      8          7           0       -0.678546    0.524250    0.936050
      9          6           0       -1.817614    0.707260    0.220288
     10          8           0       -2.174369    1.757766   -0.280230
     11          7           0       -2.584524   -0.517793    0.144843
     12          7           0       -3.656267   -0.394976   -0.469913
     13          7           0       -4.651199   -0.390383   -1.013811
     14          1           0        3.391780   -1.818149   -1.327346
     15          1           0        3.728490    1.971626    0.044905
     16          1           0        0.194654   -1.545093   -0.640478
     17          1           0        1.106002   -2.379037    0.609159
     18          1           0       -0.927187   -1.433273    1.579732
     19          1           0        0.466542   -0.581892    2.255493
     20          1           0       -0.027423    1.297778    0.874361
 ---------------------------------------------------------------------

 SCF Done:  E(UB3LYP) =  -653.373479185     A.U. after   33 cycles
 SCF Done:  E(UB3LYP) =  -653.373479185     a.u. after    1 cycles

 The electronic state is 2-A.
 Alpha  occ. eigenvalues --  -18.98623 -14.34657 -14.32551 -14.26175 -14.25976
 Alpha  occ. eigenvalues --  -14.25891 -14.24370 -14.23151 -10.19485 -10.11852
 Alpha  occ. eigenvalues --  -10.11211 -10.10785 -10.08968  -1.02496  -1.01593
 Alpha  occ. eigenvalues --   -0.94677  -0.85599  -0.83016  -0.80533  -0.74427
 Alpha  occ. eigenvalues --   -0.67059  -0.58845  -0.56363  -0.54235  -0.49664
 Alpha  occ. eigenvalues --   -0.46274  -0.43474  -0.40458  -0.39567  -0.38539
 Alpha  occ. eigenvalues --   -0.37959  -0.36155  -0.35187  -0.34374  -0.33468
 Alpha  occ. eigenvalues --   -0.32824  -0.30496  -0.29538  -0.27631  -0.24090
 Alpha  occ. eigenvalues --   -0.22847  -0.21465  -0.20406  -0.17529  -0.16335
 Alpha  occ. eigenvalues --   -0.16137  -0.15222   0.04288
 Alpha virt. eigenvalues --    0.05695   0.06579   0.07554   0.08011   0.08980
 Alpha virt. eigenvalues --    0.09857   0.10107   0.11307   0.12317   0.13290
 Alpha virt. eigenvalues --    0.13924   0.14808   0.15270   0.16144   0.16205

  Beta  occ. eigenvalues --  -18.98625 -14.34292 -14.32492 -14.26171 -14.25881
  Beta  occ. eigenvalues --  -14.25599 -14.24414 -14.23152 -10.19417 -10.11854
  Beta  occ. eigenvalues --  -10.11192 -10.10771 -10.08946  -1.01890  -1.01554
  Beta  occ. eigenvalues --   -0.94598  -0.85365  -0.82975  -0.80509  -0.74355
  Beta  occ. eigenvalues --   -0.66998  -0.58680  -0.56189  -0.54178  -0.49591
  Beta  occ. eigenvalues --   -0.46184  -0.43149  -0.40329  -0.39309  -0.38163
  Beta  occ. eigenvalues --   -0.37162  -0.36096  -0.35113  -0.34165  -0.32752
  Beta  occ. eigenvalues --   -0.32602  -0.30413  -0.29470  -0.27587  -0.24060
  Beta  occ. eigenvalues --   -0.22224  -0.21438  -0.20387  -0.17495  -0.16279
  Beta  occ. eigenvalues --   -0.15951  -0.15168
  Beta virt. eigenvalues --    0.06984   0.07596   0.07919   0.08421   0.09229
  Beta virt. eigenvalues --    0.09432   0.10298   0.10447   0.11496   0.12325
  Beta virt. eigenvalues --    0.13301   0.14028   0.14828   0.15228   0.16081

 Mulliken charges and spin densities:
               1          2
     1  C   -0.719697   0.550150
     2  N    0.057748  -0.226404
     3  N    0.196821  -0.057491
     4  N   -0.193957   0.035902
     5  C    0.384678  -0.491994
     6  C    0.693151  -0.939631
     7  C    0.230867  -0.808960
     8  N   -0.274598   0.072956
     9  C    0.205490  -0.107608
    10  O   -0.367623  -0.001287
    11  N   -0.622931   0.287607
    12  N    0.835306  -0.072508
    13  N   -0.400515   0.111218
    14  H   -0.530276   0.706041
    15  H   -0.489458   0.855991
    16  H    0.049894   0.125263
    17  H   -0.291584   0.441333
    18  H   -0.007806   0.240101
    19  H   -0.063430   0.257768
    20  H    0.307921   0.021552
 Sum of Mulliken charges =  -1.00000   1.00000

 Dipole moment (field-independent basis, Debye):
    X=             -0.5540    Y=             -1.8711    Z=              1.3472  Tot=              2.3712
 Quadrupole moment (field-independent basis, Debye-Ang):
   XX=           -159.1057   YY=           -110.2311   ZZ=            -93.7209
   XY=             -2.9990   XZ=             -4.4863   YZ=              1.5439

 Summary of Natural Population Analysis:

                                       Natural Population
                Natural  -----------------------------------------------
    Atom  No    Charge         Core      Valence    Rydberg      Total
 -----------------------------------------------------------------------
      C    1   -0.03060      0.99956     2.01830    0.01274     3.03060
      N    2   -0.13289      0.99974     2.61956    0.01359     3.63289
      N    3   -0.06783      0.99975     2.55124    0.01685     3.56783
      N    4   -0.15484      0.99970     2.64215    0.01299     3.65484
      C    5    0.05753      0.99959     1.92827    0.01461     2.94247
      C    6   -0.21046      0.99959     2.20269    0.00819     3.21046
      C    7   -0.08831      0.99962     2.07650    0.01218     3.08831
      N    8   -0.32455      0.99965     2.81544    0.00945     3.82455
      C    9    0.39793      0.99969     1.57793    0.02444     2.60207
      O   10   -0.32940      0.99987     3.32404    0.00549     4.32940
      N   11   -0.24242      0.99968     2.73045    0.01229     3.74242
      N   12    0.16180      0.99972     2.32225    0.01623     3.33820
      N   13    0.01793      0.99981     2.46985    0.01241     3.48207
      H   14    0.10427      0.00000     0.39423    0.00150     0.39573
      H   15    0.20573      0.00000     0.27829    0.01599     0.29427
      H   16    0.11092      0.00000     0.38777    0.00131     0.38908
      H   17    0.10928      0.00000     0.38872    0.00200     0.39072
      H   18    0.11239      0.00000     0.38607    0.00153     0.38761
      H   19    0.09799      0.00000     0.40084    0.00117     0.40201
      H   20    0.20553      0.00000     0.29160    0.00287     0.29447
 =======================================================================
   * Total *    0.00000     12.99597    33.80619    0.19784    47.00000

 Normal termination of Gaussian 16 at Wed Dec  9 22:48:00 2020.
