 Gaussian 16, Revision A.03,

 -----------------------------------------------------------
 # opt freq B3LYP/6-31G(d) empiricaldispersion=gd3bj scf=xqc
 -----------------------------------------------------------

 ------------------------------
 CID_63557506_JID_8806_neutraal
 ------------------------------
 Symbolic Z-matrix:
 Charge =  0 Multiplicity = 1

 SCF Done:  E(RB3LYP) =  -822.728302042     A.U. after   14 cycles
 SCF Done:  E(RB3LYP) =  -822.734597241     A.U. after   13 cycles
 SCF Done:  E(RB3LYP) =  -822.734741636     A.U. after   13 cycles
 SCF Done:  E(RB3LYP) =  -822.735760607     A.U. after   12 cycles
 SCF Done:  E(RB3LYP) =  -822.736166580     A.U. after   11 cycles
 SCF Done:  E(RB3LYP) =  -822.736879351     A.U. after   12 cycles
 SCF Done:  E(RB3LYP) =  -822.737302620     A.U. after   14 cycles
 SCF Done:  E(RB3LYP) =  -822.737239058     A.U. after   13 cycles
 SCF Done:  E(RB3LYP) =  -822.738163910     A.U. after   14 cycles
 SCF Done:  E(RB3LYP) =  -822.738245387     A.U. after   11 cycles
 SCF Done:  E(RB3LYP) =  -822.738800525     A.U. after   10 cycles
 SCF Done:  E(RB3LYP) =  -822.738803777     A.U. after   10 cycles
 SCF Done:  E(RB3LYP) =  -822.738803754     A.U. after    9 cycles
 SCF Done:  E(RB3LYP) =  -822.738803899     A.U. after    8 cycles
 SCF Done:  E(RB3LYP) =  -822.738803906     A.U. after    6 cycles
 Optimization completed.
    -- Stationary point found.
 Normal termination of Gaussian 16 at Fri Dec 11 22:36:50 2020.

 --------------------------------------------------------------------
 #N Geom=AllCheck Guess=TCheck SCRF=Check GenChk RB3LYP/6-31G(d) Freq
 --------------------------------------------------------------------

 Structure from the checkpoint file:  "JID_8806.chk"
 ------------------------------
 CID_63557506_JID_8806_neutraal
 ------------------------------
 Charge =  0 Multiplicity = 1

 SCF Done:  E(RB3LYP) =  -822.738803906     A.U. after    1 cycles

  Exact polarizability: 174.621  15.020 150.082  -6.187   9.824 138.748
 Approx polarizability: 252.761  28.276 204.742 -13.729  22.347 236.808

                      1                      2                      3
                      A                      A                      A
 Frequencies --     26.3787                32.5575                48.9098
 Red. masses --      4.4886                 3.5553                 4.8033
 Frc consts  --      0.0018                 0.0022                 0.0068
 IR Inten    --      0.2329                 0.2965                 4.7253

                      4                      5                      6
                      A                      A                      A
 Frequencies --     57.6836                66.3425                94.5047
 Red. masses --      2.8837                 4.0272                 3.8048
 Frc consts  --      0.0057                 0.0104                 0.0200
 IR Inten    --      0.2710                 0.4125                 5.8573

                      7                      8                      9
                      A                      A                      A
 Frequencies --    121.2031               155.2263               160.4367
 Red. masses --      3.0912                 3.4319                 2.4983
 Frc consts  --      0.0268                 0.0487                 0.0379
 IR Inten    --      0.1956                 1.8519                 0.3659

                     10                     11                     12
                      A                      A                      A
 Frequencies --    188.2396               210.7834               226.0574
 Red. masses --      3.1499                 3.3769                 3.7561
 Frc consts  --      0.0658                 0.0884                 0.1131
 IR Inten    --      4.3613                 3.5582                10.8559

                     13                     14                     15
                      A                      A                      A
 Frequencies --    245.5136               265.4318               303.6607
 Red. masses --      1.1265                 1.1091                 2.6049
 Frc consts  --      0.0400                 0.0460                 0.1415
 IR Inten    --      1.0089                 0.1242                 2.9499

                     16                     17                     18
                      A                      A                      A
 Frequencies --    321.1065               360.6722               382.5462
 Red. masses --      2.9551                 2.7201                 2.2663
 Frc consts  --      0.1795                 0.2085                 0.1954
 IR Inten    --      1.8841                 2.7199                 0.9213

                     19                     20                     21
                      A                      A                      A
 Frequencies --    390.4038               409.6708               447.6651
 Red. masses --      2.8212                 3.0758                 2.6473
 Frc consts  --      0.2533                 0.3041                 0.3126
 IR Inten    --      0.1632                 1.0518                 0.9595

                     22                     23                     24
                      A                      A                      A
 Frequencies --    453.6393               474.6251               516.8107
 Red. masses --      2.5975                 4.4499                 5.5026
 Frc consts  --      0.3149                 0.5906                 0.8659
 IR Inten    --      0.1302                10.4900                 3.2806

                     25                     26                     27
                      A                      A                      A
 Frequencies --    543.7477               630.5967               657.0957
 Red. masses --      4.0542                 3.3500                 7.0131
 Frc consts  --      0.7062                 0.7849                 1.7841
 IR Inten    --      0.5195                 1.8272                 1.1258

                     28                     29                     30
                      A                      A                      A
 Frequencies --    703.7027               733.0186               784.4894
 Red. masses --      5.5347                 4.9649                 2.9638
 Frc consts  --      1.6148                 1.5718                 1.0746
 IR Inten    --     11.5810                 6.8130                 2.2842

                     31                     32                     33
                      A                      A                      A
 Frequencies --    797.6191               814.4555               831.3878
 Red. masses --      1.7858                 2.6325                 2.3006
 Frc consts  --      0.6694                 1.0289                 0.9369
 IR Inten    --     18.6722                14.1651                41.4923

                     34                     35                     36
                      A                      A                      A
 Frequencies --    837.7679               858.8919               877.9863
 Red. masses --      2.3420                 2.3495                 2.1818
 Frc consts  --      0.9685                 1.0212                 0.9909
 IR Inten    --     34.1652                24.4734                42.8194

                     37                     38                     39
                      A                      A                      A
 Frequencies --    903.6389               922.4099               923.3777
 Red. masses --      3.7631                 1.8239                 2.0223
 Frc consts  --      1.8105                 0.9143                 1.0159
 IR Inten    --     35.0108                 3.6768                 3.8466

                     40                     41                     42
                      A                      A                      A
 Frequencies --    935.2285               945.6752               951.2417
 Red. masses --      3.8614                 1.1818                 1.4914
 Frc consts  --      1.9899                 0.6227                 0.7951
 IR Inten    --     24.6477                 2.2505                23.2562

                     43                     44                     45
                      A                      A                      A
 Frequencies --    978.7020               986.0318               993.2069
 Red. masses --      1.5630                 1.4224                 2.2857
 Frc consts  --      0.8821                 0.8148                 1.3284
 IR Inten    --      0.2358                 4.0997                31.6729

                     46                     47                     48
                      A                      A                      A
 Frequencies --    996.3317               998.8824              1062.0667
 Red. masses --      1.7964                 2.7530                 3.3208
 Frc consts  --      1.0507                 1.6184                 2.2070
 IR Inten    --      1.9118                30.7077                 1.9283

                     49                     50                     51
                      A                      A                      A
 Frequencies --   1071.3418              1087.1207              1117.2178
 Red. masses --      2.1212                 1.9411                 4.1285
 Frc consts  --      1.4344                 1.3516                 3.0361
 IR Inten    --      6.6678                 5.3571                63.3045

                     52                     53                     54
                      A                      A                      A
 Frequencies --   1138.6872              1139.9075              1153.8705
 Red. masses --      2.3936                 1.9135                 2.0914
 Frc consts  --      1.8286                 1.4649                 1.6406
 IR Inten    --     17.2927                23.8000                66.6022

                     55                     56                     57
                      A                      A                      A
 Frequencies --   1165.0008              1187.7462              1208.7937
 Red. masses --      1.9530                 1.8399                 1.7732
 Frc consts  --      1.5617                 1.5293                 1.5266
 IR Inten    --      6.2865                 2.3657                 2.5237

                     58                     59                     60
                      A                      A                      A
 Frequencies --   1216.1368              1234.2543              1243.2077
 Red. masses --      3.7952                 1.2950                 2.8753
 Frc consts  --      3.3071                 1.1623                 2.6183
 IR Inten    --      5.4150                 1.3938                 0.9746

                     61                     62                     63
                      A                      A                      A
 Frequencies --   1253.2697              1260.4225              1269.4975
 Red. masses --      1.2279                 1.5858                 1.3416
 Frc consts  --      1.1364                 1.4843                 1.2739
 IR Inten    --      7.3339                27.8968                27.4404

                     64                     65                     66
                      A                      A                      A
 Frequencies --   1287.7750              1291.7097              1333.9869
 Red. masses --      1.6376                 1.5554                 1.3590
 Frc consts  --      1.6000                 1.5290                 1.4249
 IR Inten    --     81.6413               106.3948                 3.2788

                     67                     68                     69
                      A                      A                      A
 Frequencies --   1337.1956              1347.4385              1367.5332
 Red. masses --      1.4062                 1.3400                 1.4417
 Frc consts  --      1.4815                 1.4334                 1.5885
 IR Inten    --     14.0026                 1.7106                 3.6450

                     70                     71                     72
                      A                      A                      A
 Frequencies --   1370.6652              1389.9442              1403.4489
 Red. masses --      1.4119                 1.4036                 2.4741
 Frc consts  --      1.5628                 1.5977                 2.8712
 IR Inten    --      3.7829                 1.4448                 2.4428

                     73                     74                     75
                      A                      A                      A
 Frequencies --   1410.1573              1418.6572              1428.2934
 Red. masses --      1.3642                 1.3805                 1.2767
 Frc consts  --      1.5983                 1.6370                 1.5346
 IR Inten    --      1.5513                 5.7068                 4.8613

                     76                     77                     78
                      A                      A                      A
 Frequencies --   1436.8380              1454.5346              1472.8494
 Red. masses --      1.3420                 1.2658                 2.9840
 Frc consts  --      1.6324                 1.5778                 3.8139
 IR Inten    --      0.5941                 4.1173               136.0135

                     79                     80                     81
                      A                      A                      A
 Frequencies --   1500.3226              1500.8419              1516.7670
 Red. masses --      1.0900                 1.0959                 1.1130
 Frc consts  --      1.4456                 1.4544                 1.5086
 IR Inten    --     12.6714                10.2659                14.0691

                     82                     83                     84
                      A                      A                      A
 Frequencies --   1520.1943              1527.9449              1531.2914
 Red. masses --      1.0557                 1.0896                 1.0781
 Frc consts  --      1.4374                 1.4988                 1.4894
 IR Inten    --      0.1647                 1.0030                10.9321

                     85                     86                     87
                      A                      A                      A
 Frequencies --   1539.5085              1544.6111              1548.5452
 Red. masses --      1.0693                 1.0825                 1.0970
 Frc consts  --      1.4931                 1.5216                 1.5499
 IR Inten    --      3.4081                11.7190                 5.1155

                     88                     89                     90
                      A                      A                      A
 Frequencies --   1552.7604              1607.4791              1634.0143
 Red. masses --      1.0641                 5.8151                 6.4230
 Frc consts  --      1.5116                 8.8532                10.1041
 IR Inten    --      3.6419                37.3612                35.2436

                     91                     92                     93
                      A                      A                      A
 Frequencies --   2971.9764              2986.9032              3029.3407
 Red. masses --      1.0679                 1.0725                 1.0722
 Frc consts  --      5.5575                 5.6377                 5.7972
 IR Inten    --     25.9914                75.3397                63.3849

                     94                     95                     96
                      A                      A                      A
 Frequencies --   3033.4652              3037.6380              3044.5430
 Red. masses --      1.0819                 1.0365                 1.0366
 Frc consts  --      5.8657                 5.6352                 5.6612
 IR Inten    --     11.9158                31.9198                16.7458

                     97                     98                     99
                      A                      A                      A
 Frequencies --   3047.4040              3056.3759              3083.1637
 Red. masses --      1.0917                 1.0603                 1.0699
 Frc consts  --      5.9732                 5.8358                 5.9923
 IR Inten    --     39.1490                51.1684                30.7482

                    100                    101                    102
                      A                      A                      A
 Frequencies --   3103.5844              3103.6992              3106.6671
 Red. masses --      1.1038                 1.1037                 1.1022
 Frc consts  --      6.2643                 6.2640                 6.2675
 IR Inten    --      6.1221                32.5197                21.9018

                    103                    104                    105
                      A                      A                      A
 Frequencies --   3112.3925              3114.5351              3126.2500
 Red. masses --      1.1015                 1.1014                 1.0921
 Frc consts  --      6.2866                 6.2947                 6.2888
 IR Inten    --     83.6765                37.4283                20.3514

                    106                    107                    108
                      A                      A                      A
 Frequencies --   3136.9951              3141.3519              3175.5519
 Red. masses --      1.0881                 1.0945                 1.0969
 Frc consts  --      6.3088                 6.3638                 6.5172
 IR Inten    --     48.8120                12.2834                 5.3494

                    109                    110                    111
                      A                      A                      A
 Frequencies --   3197.4853              3224.8008              3494.2039
 Red. masses --      1.0899                 1.0957                 1.0727
 Frc consts  --      6.5654                 6.7133                 7.7167
 IR Inten    --      9.6760                 5.6923                 0.6059

 - Thermochemistry -
 -------------------
 Temperature   298.150 Kelvin.  Pressure   1.00000 Atm.
 Atom     1 has atomic number  6 and mass  12.00000

 Molecular mass:   251.16338 amu.
 Principal axes and moments of inertia in atomic units:
                           1         2         3
     Eigenvalues --  3130.231555348.910397021.54916
           X            1.00000  -0.00237   0.00116
           Y            0.00235   0.99985   0.01712
           Z           -0.00120  -0.01711   0.99985
 This molecule is an asymmetric top.
 Rotational symmetry number  1.
 Warning -- assumption of classical behavior for rotation
           may cause significant error
 Rotational temperatures (Kelvin)      0.02767     0.01619     0.01234
 Rotational constants (GHZ):           0.57655     0.33740     0.25703
 Zero-point vibrational energy     891084.7 (Joules/Mol)
                                  212.97436 (Kcal/Mol)
 Warning -- explicit consideration of  25 degrees of freedom as
           vibrations may cause significant error
 Vibrational temperatures:     37.95    46.84    70.37    82.99    95.45
          (Kelvin)            135.97   174.38   223.34   230.83   270.83
                              303.27   325.25   353.24   381.90   436.90
                              462.00   518.93   550.40   561.70   589.42
                              644.09   652.69   682.88   743.58   782.33
                              907.29   945.41  1012.47  1054.65  1128.71
                             1147.60  1171.82  1196.18  1205.36  1235.75
                             1263.23  1300.13  1327.14  1328.53  1345.59
                             1360.62  1368.62  1408.13  1418.68  1429.00
                             1433.50  1437.17  1528.08  1541.42  1564.12
                             1607.43  1638.32  1640.07  1660.16  1676.18
                             1708.90  1739.18  1749.75  1775.82  1788.70
                             1803.18  1813.47  1826.52  1852.82  1858.48
                             1919.31  1923.93  1938.66  1967.58  1972.08
                             1999.82  2019.25  2028.90  2041.13  2055.00
                             2067.29  2092.75  2119.10  2158.63  2159.38
                             2182.29  2187.22  2198.37  2203.19  2215.01
                             2222.35  2228.01  2234.08  2312.80  2350.98
                             4276.01  4297.49  4358.55  4364.48  4370.48
                             4380.42  4384.53  4397.44  4435.98  4465.37
                             4465.53  4469.80  4478.04  4481.12  4497.98
                             4513.44  4519.70  4568.91  4600.47  4639.77
                             5027.38

 Zero-point correction=                           0.339396 (Hartree/Particle)
 Thermal correction to Energy=                    0.356967
 Thermal correction to Enthalpy=                  0.357911
 Thermal correction to Gibbs Free Energy=         0.292494
 Sum of electronic and zero-point Energies=           -822.399408
 Sum of electronic and thermal Energies=              -822.381837
 Sum of electronic and thermal Enthalpies=            -822.380892
 Sum of electronic and thermal Free Energies=         -822.446309

                     E (Thermal)             CV                S
                      KCal/Mol        Cal/Mol-Kelvin    Cal/Mol-Kelvin
 Total                  224.000             66.712            137.682
 Electronic               0.000              0.000              0.000
 Translational            0.889              2.981             42.463
 Rotational               0.889              2.981             33.130
 Vibrational            222.223             60.750             62.088
 Vibration     1          0.593              1.985              6.085
 Vibration     2          0.594              1.983              5.667
 Vibration     3          0.595              1.978              4.861
 Vibration     4          0.596              1.974              4.535
 Vibration     5          0.598              1.970              4.259
 Vibration     6          0.603              1.953              3.565
 Vibration     7          0.609              1.932              3.081
 Vibration     8          0.620              1.897              2.607
 Vibration     9          0.622              1.891              2.545
 Vibration    10          0.633              1.856              2.245
 Vibration    11          0.643              1.824              2.037
 Vibration    12          0.650              1.801              1.910
 Vibration    13          0.660              1.770              1.763
 Vibration    14          0.671              1.736              1.626
 Vibration    15          0.695              1.667              1.397
 Vibration    16          0.707              1.633              1.304
 Vibration    17          0.735              1.553              1.119
 Vibration    18          0.752              1.507              1.029
 Vibration    19          0.758              1.491              0.999
 Vibration    20          0.774              1.449              0.928
 Vibration    21          0.807              1.366              0.803
 Vibration    22          0.812              1.353              0.785
 Vibration    23          0.831              1.306              0.725
 Vibration    24          0.872              1.213              0.617
 Vibration    25          0.899              1.153              0.557

 Optimization completed.
    -- Stationary point found.
 Normal termination of Gaussian 16 at Fri Dec 11 22:56:27 2020.

 ----------------------------------------------------------------------
 # B3LYP/6-311++G(d,p) empiricaldispersion=gd3bj scf=xqc pop=npa geom=c
 heck
 ----------------------------------------------------------------------

 --------------------------------------
 CID_63557506_JID_8806_Energie_neutraal
 --------------------------------------
 Structure from the checkpoint file:  "JID_8806.chk"
 Charge =  0 Multiplicity = 1

 SCF Done:  E(RB3LYP) =  -822.964897914     A.U. after   14 cycles
 Normal termination of Gaussian 16 at Fri Dec 11 23:03:48 2020.

 ----------------------------------------------------------------------
 # B3LYP/6-311++G(d,p) empiricaldispersion=gd3bj scf=xqc pop=npa geom=c
 heck
 ----------------------------------------------------------------------

 ------------------------------------
 CID_63557506_JID_8806_Energie_kation
 ------------------------------------
 Structure from the checkpoint file:  "JID_8806.chk"
 Charge =  1 Multiplicity = 2

 SCF Done:  E(UB3LYP) =  -822.668278153     A.U. after   26 cycles
 Normal termination of Gaussian 16 at Fri Dec 11 23:22:16 2020.
 Gaussian 16:  ES64L-G16RevA.03 25-Dec-2016

 ----------------------------------------------------------------------
 # B3LYP/6-311++G(d,p) empiricaldispersion=gd3bj scf=xqc pop=npa geom=c
 heck
 ----------------------------------------------------------------------

 -----------------------------------
 CID_63557506_JID_8806_Energie_anion
 -----------------------------------
 Structure from the checkpoint file:  "JID_8806.chk"
 Charge = -1 Multiplicity = 2

                         Standard orientation:
 ---------------------------------------------------------------------
 Center     Atomic      Atomic             Coordinates (Angstroms)
 Number     Number       Type             X           Y           Z
 ---------------------------------------------------------------------
      1          6           0       -2.960785    1.749010    1.144465
      2          6           0       -3.310022    1.137330   -0.218667
      3          6           0       -3.021900    2.138357   -1.344748
      4          6           0       -2.528249   -0.154896   -0.482472
      5          7           0       -2.763775   -1.178307    0.542419
      6          6           0       -2.012115   -2.411424    0.294904
      7          6           0       -0.522727   -2.153685    0.149466
      8          7           0        0.041020   -1.551765    1.202764
      9          7           0        1.280513   -1.073551    1.122872
     10          6           0        1.943588   -1.161702   -0.028286
     11          6           0        1.463477   -1.870966   -1.136402
     12          6           0        0.185257   -2.381854   -1.038967
     13          8           0        3.165040   -0.561129   -0.111093
     14          6           0        3.198326    0.886430   -0.109239
     15          6           0        2.653570    1.547422    1.170735
     16          6           0        1.208846    1.959022    0.799108
     17          8           0        1.006814    1.575025   -0.571305
     18          6           0        2.286422    1.488266   -1.181046
     19          1           0       -1.882755    1.941146    1.219211
     20          1           0       -3.250657    1.095233    1.974192
     21          1           0       -3.479662    2.703967    1.286400
     22          1           0       -4.380461    0.890341   -0.220729
     23          1           0       -1.953915    2.389990   -1.369882
     24          1           0       -3.292847    1.727117   -2.324643
     25          1           0       -3.585882    3.067242   -1.202458
     26          1           0       -2.846414   -0.576566   -1.446241
     27          1           0       -1.460743    0.107758   -0.590363
     28          1           0       -2.431833   -0.816739    1.435526
     29          1           0       -2.196420   -3.094229    1.131155
     30          1           0       -2.396017   -2.886702   -0.615872
     31          1           0        2.074365   -1.964203   -2.027727
     32          1           0       -0.281440   -2.909715   -1.865823
     33          1           0        4.253255    1.106083   -0.279799
     34          1           0        3.263944    2.423910    1.411293
     35          1           0        2.686765    0.851615    2.008190
     36          1           0        0.459198    1.432867    1.392256
     37          1           0        1.057869    3.042511    0.902750
     38          1           0        2.662197    2.484807   -1.469619
     39          1           0        2.200197    0.869887   -2.078121
 ---------------------------------------------------------------------

 SCF Done:  E(UB3LYP) =  -822.967465708     A.U. after   33 cycles
 SCF Done:  E(UB3LYP) =  -822.967465708     a.u. after    1 cycles

 The electronic state is 2-A.
 Alpha  occ. eigenvalues --  -19.01430 -19.01136 -14.17910 -14.16738 -14.16687
 Alpha  occ. eigenvalues --  -10.11883 -10.11032 -10.10683 -10.09906 -10.07487
 Alpha  occ. eigenvalues --  -10.07165 -10.07142 -10.06135 -10.05988 -10.05931
 Alpha  occ. eigenvalues --  -10.05485 -10.03319 -10.02704  -0.94450  -0.92082
 Alpha  occ. eigenvalues --   -0.85161  -0.79010  -0.69896  -0.67981  -0.66899
 Alpha  occ. eigenvalues --   -0.64861  -0.62592  -0.58768  -0.58086  -0.53458
 Alpha  occ. eigenvalues --   -0.52444  -0.48998  -0.48601  -0.46068  -0.45772
 Alpha  occ. eigenvalues --   -0.40714  -0.39992  -0.38867  -0.37225  -0.36517
 Alpha  occ. eigenvalues --   -0.35494  -0.34813  -0.33316  -0.32627  -0.31301
 Alpha  occ. eigenvalues --   -0.31242  -0.30234  -0.30093  -0.28863  -0.28413
 Alpha  occ. eigenvalues --   -0.27504  -0.27210  -0.26865  -0.25871  -0.25098
 Alpha  occ. eigenvalues --   -0.24422  -0.23347  -0.22676  -0.22329  -0.21929
 Alpha  occ. eigenvalues --   -0.21309  -0.17776  -0.16852  -0.15959  -0.14902
 Alpha  occ. eigenvalues --   -0.11966  -0.10990  -0.08047   0.04711
 Alpha virt. eigenvalues --    0.06476   0.07289   0.08538   0.09079   0.09334
 Alpha virt. eigenvalues --    0.09605   0.10161   0.10749   0.11035   0.11467
 Alpha virt. eigenvalues --    0.12054   0.12343   0.13013   0.13348   0.13771

  Beta  occ. eigenvalues --  -19.01438 -19.01133 -14.17911 -14.16321 -14.16156
  Beta  occ. eigenvalues --  -10.11878 -10.11140 -10.10673 -10.09900 -10.07485
  Beta  occ. eigenvalues --  -10.07164 -10.07141 -10.06134 -10.06014 -10.05987
  Beta  occ. eigenvalues --  -10.05476 -10.03098 -10.02388  -0.94435  -0.92071
  Beta  occ. eigenvalues --   -0.84394  -0.78982  -0.69851  -0.67801  -0.66425
  Beta  occ. eigenvalues --   -0.64473  -0.62529  -0.58763  -0.57976  -0.53283
  Beta  occ. eigenvalues --   -0.52114  -0.48947  -0.48256  -0.45955  -0.45720
  Beta  occ. eigenvalues --   -0.40652  -0.39910  -0.38824  -0.37049  -0.36430
  Beta  occ. eigenvalues --   -0.35475  -0.34717  -0.33265  -0.32535  -0.31240
  Beta  occ. eigenvalues --   -0.31158  -0.30088  -0.30030  -0.28847  -0.28219
  Beta  occ. eigenvalues --   -0.27393  -0.26916  -0.26645  -0.25630  -0.24958
  Beta  occ. eigenvalues --   -0.24137  -0.23302  -0.22638  -0.22134  -0.21854
  Beta  occ. eigenvalues --   -0.21173  -0.17579  -0.16444  -0.14750  -0.13540
  Beta  occ. eigenvalues --   -0.11609  -0.10334  -0.07404
  Beta virt. eigenvalues --    0.06912   0.07501   0.08522   0.09044   0.09558
  Beta virt. eigenvalues --    0.09710   0.10281   0.10664   0.10940   0.11023
  Beta virt. eigenvalues --    0.11494   0.12236   0.12407   0.12999   0.13349

 Mulliken charges and spin densities:
               1          2
     1  C   -0.612914  -0.028356
     2  C    0.320113   0.053442
     3  C   -0.610905  -0.041885
     4  C   -0.712947  -0.009632
     5  N    0.071964   0.004105
     6  C   -0.689509  -0.010386
     7  C    0.321744  -0.041880
     8  N   -0.148230   0.242508
     9  N   -0.076839   0.158361
    10  C   -0.348070  -0.130326
    11  C   -0.136735   0.186959
    12  C   -0.113514   0.225186
    13  O   -0.032391  -0.013446
    14  C   -0.082108   0.217596
    15  C   -0.052067  -0.650923
    16  C    0.065292  -0.062606
    17  O   -0.012298   0.000238
    18  C    0.103075  -0.475214
    19  H    0.149964   0.013102
    20  H    0.113130   0.003224
    21  H    0.118499   0.011756
    22  H    0.163939  -0.000113
    23  H    0.169559   0.004623
    24  H    0.102623   0.010711
    25  H    0.097184   0.023965
    26  H    0.111799   0.011029
    27  H    0.227526  -0.044673
    28  H    0.202269  -0.002778
    29  H    0.178930   0.004969
    30  H    0.122027  -0.002306
    31  H    0.099993   0.011191
    32  H    0.112417  -0.015265
    33  H   -0.231608   0.456126
    34  H   -0.317904   0.465895
    35  H    0.261118  -0.035273
    36  H    0.119916  -0.031884
    37  H   -0.033262   0.177824
    38  H   -0.211659   0.334808
    39  H    0.189883  -0.020668
 Sum of Mulliken charges =  -1.00000   1.00000

 Dipole moment (field-independent basis, Debye):
    X=             -4.1259    Y=              1.0839    Z=             -2.3093  Tot=              4.8509
 Quadrupole moment (field-independent basis, Debye-Ang):
   XX=           -158.5975   YY=           -146.3536   ZZ=           -126.4988
   XY=             -7.0096   XZ=             -1.4358   YZ=              4.9642

 Summary of Natural Population Analysis:

                                       Natural Population
                Natural  -----------------------------------------------
    Atom  No    Charge         Core      Valence    Rydberg      Total
 -----------------------------------------------------------------------
      C    1   -0.28790      0.99965     2.28323    0.00502     3.28790
      C    2   -0.11388      0.99962     2.10666    0.00760     3.11388
      C    3   -0.28584      0.99965     2.28112    0.00506     3.28584
      C    4   -0.09151      0.99960     2.08194    0.00996     3.09151
      N    5   -0.34471      0.99975     2.83052    0.01443     3.84471
      C    6   -0.09317      0.99960     2.08226    0.01131     3.09317
      C    7    0.05525      0.99954     1.93237    0.01284     2.94475
      N    8   -0.07705      0.99967     2.56052    0.01686     3.57705
      N    9   -0.10518      0.99966     2.58938    0.01613     3.60518
      C   10    0.22232      0.99944     1.75812    0.02013     2.77768
      C   11   -0.06878      0.99950     2.06010    0.00918     3.06878
      C   12   -0.06924      0.99950     2.06190    0.00784     3.06924
      O   13   -0.29716      0.99986     3.28776    0.00954     4.29716
      C   14    0.05690      0.99952     1.92709    0.01649     2.94310
      C   15   -0.22598      0.99962     2.21778    0.00858     3.22598
      C   16   -0.01736      0.99960     2.00479    0.01297     3.01736
      O   17   -0.29844      0.99990     3.28959    0.00895     4.29844
      C   18   -0.02698      0.99957     2.01411    0.01330     3.02698
      H   19    0.10144      0.00000     0.39741    0.00116     0.39856
      H   20    0.09858      0.00000     0.40070    0.00071     0.40142
      H   21    0.09324      0.00000     0.40575    0.00101     0.40676
      H   22    0.08780      0.00000     0.41018    0.00202     0.41220
      H   23    0.10514      0.00000     0.39360    0.00126     0.39486
      H   24    0.09529      0.00000     0.40379    0.00091     0.40471
      H   25    0.09265      0.00000     0.40643    0.00092     0.40735
      H   26    0.08677      0.00000     0.41227    0.00096     0.41323
      H   27    0.09496      0.00000     0.40191    0.00313     0.40504
      H   28    0.17800      0.00000     0.31965    0.00235     0.32200
      H   29    0.09625      0.00000     0.40262    0.00113     0.40375
      H   30    0.08603      0.00000     0.41281    0.00116     0.41397
      H   31    0.09430      0.00000     0.40439    0.00131     0.40570
      H   32    0.09057      0.00000     0.40823    0.00120     0.40943
      H   33    0.09469      0.00000     0.40392    0.00138     0.40531
      H   34    0.09906      0.00000     0.39907    0.00187     0.40094
      H   35    0.12294      0.00000     0.37556    0.00151     0.37706
      H   36    0.09974      0.00000     0.39887    0.00139     0.40026
      H   37    0.07539      0.00000     0.42327    0.00134     0.42461
      H   38    0.07882      0.00000     0.41981    0.00136     0.42118
      H   39    0.09704      0.00000     0.40175    0.00122     0.40296
 =======================================================================
   * Total *    0.00000     17.99325    49.77124    0.23550    68.00000

 Normal termination of Gaussian 16 at Fri Dec 11 23:44:14 2020.
