 Gaussian 16, Revision A.03,

 -----------------------------------------------------------
 # opt freq B3LYP/6-31G(d) empiricaldispersion=gd3bj scf=xqc
 -----------------------------------------------------------

 -------------------------------
 CID_115238041_JID_8979_neutraal
 -------------------------------
 Symbolic Z-matrix:
 Charge =  0 Multiplicity = 1

 SCF Done:  E(RB3LYP) =  -800.493123714     A.U. after   15 cycles
 SCF Done:  E(RB3LYP) =  -800.497900415     A.U. after   12 cycles
 SCF Done:  E(RB3LYP) =  -800.498420963     A.U. after   12 cycles
 SCF Done:  E(RB3LYP) =  -800.498523404     A.U. after   12 cycles
 SCF Done:  E(RB3LYP) =  -800.498715850     A.U. after   11 cycles
 SCF Done:  E(RB3LYP) =  -800.498854556     A.U. after   12 cycles
 SCF Done:  E(RB3LYP) =  -800.496164500     A.U. after   15 cycles
 SCF Done:  E(RB3LYP) =  -800.498101381     A.U. after   13 cycles
 SCF Done:  E(RB3LYP) =  -800.498907334     A.U. after   10 cycles
 SCF Done:  E(RB3LYP) =  -800.497090218     A.U. after   15 cycles
 SCF Done:  E(RB3LYP) =  -800.499248829     A.U. after   10 cycles
 SCF Done:  E(RB3LYP) =  -800.499251056     A.U. after    8 cycles
 SCF Done:  E(RB3LYP) =  -800.499251749     A.U. after    8 cycles
 SCF Done:  E(RB3LYP) =  -800.499251820     A.U. after    7 cycles
 SCF Done:  E(RB3LYP) =  -800.499251861     A.U. after    7 cycles
 Optimization completed.
    -- Stationary point found.
 Normal termination of Gaussian 16 at Fri Dec 11 23:25:51 2020.

 --------------------------------------------------------------------
 #N Geom=AllCheck Guess=TCheck SCRF=Check GenChk RB3LYP/6-31G(d) Freq
 --------------------------------------------------------------------

 Structure from the checkpoint file:  "JID_8979.chk"
 -------------------------------
 CID_115238041_JID_8979_neutraal
 -------------------------------
 Charge =  0 Multiplicity = 1

 SCF Done:  E(RB3LYP) =  -800.499251861     A.U. after    1 cycles

  Exact polarizability: 173.957 -38.075 148.647 -12.876   0.985 144.981
 Approx polarizability: 240.327 -72.401 229.829 -24.347  -5.092 266.195

                      1                      2                      3
                      A                      A                      A
 Frequencies --     28.7282                35.4243                46.3717
 Red. masses --      5.3467                 4.2327                 4.4670
 Frc consts  --      0.0026                 0.0031                 0.0057
 IR Inten    --      0.1480                 1.8629                 0.8498

                      4                      5                      6
                      A                      A                      A
 Frequencies --     83.0886               119.9019               153.6534
 Red. masses --      4.8511                 4.4038                 4.2639
 Frc consts  --      0.0197                 0.0373                 0.0593
 IR Inten    --      0.5648                 1.5807                 0.1126

                      7                      8                      9
                      A                      A                      A
 Frequencies --    190.6858               232.5033               255.6083
 Red. masses --      2.6049                 4.2426                 4.3862
 Frc consts  --      0.0558                 0.1351                 0.1688
 IR Inten    --      1.6734                10.0106                 4.9045

                     10                     11                     12
                      A                      A                      A
 Frequencies --    294.0865               299.6480               316.1569
 Red. masses --      3.1712                 3.2872                 2.2675
 Frc consts  --      0.1616                 0.1739                 0.1335
 IR Inten    --     10.4302                 2.1111                 0.7752

                     13                     14                     15
                      A                      A                      A
 Frequencies --    355.3242               403.8121               412.7215
 Red. masses --      2.7615                 2.5212                 2.0445
 Frc consts  --      0.2054                 0.2422                 0.2052
 IR Inten    --      1.8974                 5.4182                22.1399

                     16                     17                     18
                      A                      A                      A
 Frequencies --    431.7559               435.0662               443.6512
 Red. masses --      2.7637                 1.6662                 4.3797
 Frc consts  --      0.3035                 0.1858                 0.5079
 IR Inten    --      6.3080                77.9141                 5.2101

                     19                     20                     21
                      A                      A                      A
 Frequencies --    460.7759               515.2836               541.1727
 Red. masses --      3.4804                 3.4716                 3.4924
 Frc consts  --      0.4354                 0.5431                 0.6026
 IR Inten    --     16.5072                13.5849                 2.7395

                     22                     23                     24
                      A                      A                      A
 Frequencies --    546.1889               620.8070               651.6695
 Red. masses --      2.1159                 5.5390                 2.6911
 Frc consts  --      0.3719                 1.2577                 0.6734
 IR Inten    --      4.8012                 0.3537                 0.3482

                     25                     26                     27
                      A                      A                      A
 Frequencies --    680.9824               708.7257               767.1531
 Red. masses --      3.3822                 2.3161                 4.5123
 Frc consts  --      0.9241                 0.6854                 1.5646
 IR Inten    --      6.3539                 5.5304                 7.8956

                     28                     29                     30
                      A                      A                      A
 Frequencies --    779.3994               792.4098               818.6834
 Red. masses --      3.7835                 2.8059                 3.8850
 Frc consts  --      1.3542                 1.0381                 1.5342
 IR Inten    --      5.6966                71.2645                11.1468

                     31                     32                     33
                      A                      A                      A
 Frequencies --    833.9621               845.9201               855.4072
 Red. masses --      1.5663                 1.4935                 1.6891
 Frc consts  --      0.6418                 0.6297                 0.7282
 IR Inten    --     10.9082                 6.1627                42.1791

                     34                     35                     36
                      A                      A                      A
 Frequencies --    859.1738               867.6596               891.1942
 Red. masses --      2.2980                 1.6383                 2.1888
 Frc consts  --      0.9994                 0.7267                 1.0243
 IR Inten    --     70.9168                11.2005                62.1223

                     37                     38                     39
                      A                      A                      A
 Frequencies --    909.8615               916.2841               946.8539
 Red. masses --      1.8525                 2.1015                 2.2660
 Frc consts  --      0.9036                 1.0396                 1.1970
 IR Inten    --      2.9998                 0.8317                 3.0947

                     40                     41                     42
                      A                      A                      A
 Frequencies --    950.0904               961.2040               965.6119
 Red. masses --      4.9672                 1.3345                 2.1552
 Frc consts  --      2.6418                 0.7265                 1.1840
 IR Inten    --      7.8579                 0.6619                 1.6185

                     43                     44                     45
                      A                      A                      A
 Frequencies --    982.9135              1040.0371              1082.4447
 Red. masses --      2.1828                 2.3285                 2.2235
 Frc consts  --      1.2425                 1.4840                 1.5349
 IR Inten    --      3.1699                 6.8270                 3.9482

                     46                     47                     48
                      A                      A                      A
 Frequencies --   1087.0930              1105.4720              1113.2310
 Red. masses --      1.7798                 1.7075                 2.1457
 Frc consts  --      1.2392                 1.2295                 1.5667
 IR Inten    --     14.8473                16.7320                47.3201

                     49                     50                     51
                      A                      A                      A
 Frequencies --   1140.9992              1150.1483              1153.7877
 Red. masses --      3.6228                 2.0849                 3.4281
 Frc consts  --      2.7789                 1.6249                 2.6888
 IR Inten    --     39.6463                27.0651                20.9771

                     52                     53                     54
                      A                      A                      A
 Frequencies --   1158.9664              1162.9599              1193.1436
 Red. masses --      2.2861                 2.0233                 2.2290
 Frc consts  --      1.8092                 1.6123                 1.8696
 IR Inten    --     28.7619                 5.5487                 3.0149

                     55                     56                     57
                      A                      A                      A
 Frequencies --   1228.5129              1237.8123              1269.3086
 Red. masses --      1.8209                 1.1258                 1.2017
 Frc consts  --      1.6191                 1.0163                 1.1407
 IR Inten    --      1.6389                 2.5181                16.4197

                     58                     59                     60
                      A                      A                      A
 Frequencies --   1279.7198              1294.6940              1304.2783
 Red. masses --      1.4621                 1.7199                 3.1392
 Frc consts  --      1.4108                 1.6986                 3.1464
 IR Inten    --      4.4785                 9.4327                33.0920

                     61                     62                     63
                      A                      A                      A
 Frequencies --   1308.6550              1330.9098              1343.3880
 Red. masses --      1.3760                 1.3066                 1.6953
 Frc consts  --      1.3884                 1.3636                 1.8026
 IR Inten    --     13.8787                 1.2759                 7.2563

                     64                     65                     66
                      A                      A                      A
 Frequencies --   1345.9812              1375.7998              1381.5628
 Red. masses --      1.5090                 1.2768                 1.2673
 Frc consts  --      1.6107                 1.4240                 1.4251
 IR Inten    --      6.5096                14.8980                 2.3814

                     67                     68                     69
                      A                      A                      A
 Frequencies --   1396.7144              1401.3137              1414.6291
 Red. masses --      1.9934                 1.7893                 1.4982
 Frc consts  --      2.2911                 2.0702                 1.7665
 IR Inten    --     26.3891                 1.7753                13.4026

                     70                     71                     72
                      A                      A                      A
 Frequencies --   1415.9963              1426.6733              1438.9786
 Red. masses --      1.9302                 1.3788                 1.3344
 Frc consts  --      2.2802                 1.6534                 1.6279
 IR Inten    --     23.0506                 2.0378                 6.0446

                     73                     74                     75
                      A                      A                      A
 Frequencies --   1487.8923              1500.8654              1508.9413
 Red. masses --      3.0136                 1.2161                 1.0989
 Frc consts  --      3.9308                 1.6140                 1.4742
 IR Inten    --     26.8186                 7.6031                 0.8739

                     76                     77                     78
                      A                      A                      A
 Frequencies --   1511.5424              1517.6989              1522.9260
 Red. masses --      1.0913                 1.1149                 1.1081
 Frc consts  --      1.4690                 1.5131                 1.5142
 IR Inten    --      2.9595                 0.8198                 3.8473

                     79                     80                     81
                      A                      A                      A
 Frequencies --   1535.4858              1543.6872              1557.3240
 Red. masses --      4.3112                 1.1949                 3.2514
 Frc consts  --      5.9888                 1.6777                 4.6460
 IR Inten    --     12.2768                47.1785                19.6393

                     82                     83                     84
                      A                      A                      A
 Frequencies --   1561.2266              1631.6831              1686.9237
 Red. masses --      1.0910                 6.9362                 6.7110
 Frc consts  --      1.5668                10.8804                11.2519
 IR Inten    --      4.2553                 4.3338                11.6796

                     85                     86                     87
                      A                      A                      A
 Frequencies --   2958.1292              2969.7042              3019.0464
 Red. masses --      1.0720                 1.0717                 1.0564
 Frc consts  --      5.5267                 5.5687                 5.6731
 IR Inten    --     35.7386               126.5193                32.8449

                     88                     89                     90
                      A                      A                      A
 Frequencies --   3040.3585              3047.3578              3061.2566
 Red. masses --      1.0994                 1.0601                 1.0904
 Frc consts  --      5.9877                 5.8002                 6.0203
 IR Inten    --     21.5423                61.2957                67.8534

                     91                     92                     93
                      A                      A                      A
 Frequencies --   3069.1202              3090.0129              3096.5167
 Red. masses --      1.0666                 1.1060                 1.0921
 Frc consts  --      5.9192                 6.2220                 6.1694
 IR Inten    --     28.0628                22.2209                47.2123

                     94                     95                     96
                      A                      A                      A
 Frequencies --   3105.4481              3131.0821              3179.8962
 Red. masses --      1.0920                 1.0994                 1.0905
 Frc consts  --      6.2046                 6.3502                 6.4967
 IR Inten    --     28.5123                12.5740                11.5952

                     97                     98                     99
                      A                      A                      A
 Frequencies --   3187.6024              3217.8531              3257.4606
 Red. masses --      1.0884                 1.0936                 1.0968
 Frc consts  --      6.5160                 6.6719                 6.8569
 IR Inten    --     10.0592                 9.2475                 4.0108

                    100                    101                    102
                      A                      A                      A
 Frequencies --   3451.9030              3477.2618              3659.4900
 Red. masses --      1.0729                 1.0742                 1.0806
 Frc consts  --      7.5325                 7.6524                 8.5261
 IR Inten    --     24.3462                 1.6600                53.2351

 - Thermochemistry -
 -------------------
 Temperature   298.150 Kelvin.  Pressure   1.00000 Atm.
 Atom     1 has atomic number  6 and mass  12.00000

 Molecular mass:   246.14806 amu.
 Principal axes and moments of inertia in atomic units:
                           1         2         3
     Eigenvalues --  2651.783226049.314637078.20361
           X            0.99999   0.00214  -0.00391
           Y           -0.00205   0.99976   0.02194
           Z            0.00396  -0.02193   0.99975
 This molecule is an asymmetric top.
 Rotational symmetry number  1.
 Warning -- assumption of classical behavior for rotation
           may cause significant error
 Rotational temperatures (Kelvin)      0.03266     0.01432     0.01224
 Rotational constants (GHZ):           0.68058     0.29834     0.25497
 Zero-point vibrational energy     815712.5 (Joules/Mol)
                                  194.95997 (Kcal/Mol)
 Warning -- explicit consideration of  22 degrees of freedom as
           vibrations may cause significant error
 Vibrational temperatures:     41.33    50.97    66.72   119.55   172.51
          (Kelvin)            221.07   274.35   334.52   367.76   423.12
                              431.13   454.88   511.23   581.00   593.81
                              621.20   625.96   638.32   662.95   741.38
                              778.63   785.84   893.20   937.61   979.78
                             1019.70  1103.76  1121.38  1140.10  1177.90
                             1199.89  1217.09  1230.74  1236.16  1248.37
                             1282.23  1309.09  1318.33  1362.31  1366.97
                             1382.96  1389.30  1414.19  1496.38  1557.40
                             1564.08  1590.53  1601.69  1641.64  1654.81
                             1660.04  1667.49  1673.24  1716.67  1767.56
                             1780.94  1826.25  1841.23  1862.78  1876.57
                             1882.86  1914.88  1932.84  1936.57  1979.47
                             1987.76  2009.56  2016.18  2035.34  2037.30
                             2052.66  2070.37  2140.75  2159.41  2171.03
                             2174.77  2183.63  2191.15  2209.22  2221.02
                             2240.64  2246.26  2347.63  2427.11  4256.09
                             4272.74  4343.73  4374.40  4384.47  4404.47
                             4415.78  4445.84  4455.20  4468.05  4504.93
                             4575.16  4586.25  4629.77  4686.76  4966.52
                             5003.00  5265.19

 Zero-point correction=                           0.310688 (Hartree/Particle)
 Thermal correction to Energy=                    0.325674
 Thermal correction to Enthalpy=                  0.326618
 Thermal correction to Gibbs Free Energy=         0.267388
 Sum of electronic and zero-point Energies=           -800.188563
 Sum of electronic and thermal Energies=              -800.173578
 Sum of electronic and thermal Enthalpies=            -800.172634
 Sum of electronic and thermal Free Energies=         -800.231863

                     E (Thermal)             CV                S
                      KCal/Mol        Cal/Mol-Kelvin    Cal/Mol-Kelvin
 Total                  204.364             60.280            124.659
 Electronic               0.000              0.000              0.000
 Translational            0.889              2.981             42.403
 Rotational               0.889              2.981             33.095
 Vibrational            202.586             54.319             49.161
 Vibration     1          0.593              1.984              5.915
 Vibration     2          0.594              1.982              5.500
 Vibration     3          0.595              1.979              4.966
 Vibration     4          0.600              1.961              3.817
 Vibration     5          0.609              1.933              3.102
 Vibration     6          0.619              1.899              2.626
 Vibration     7          0.634              1.853              2.221
 Vibration     8          0.653              1.791              1.860
 Vibration     9          0.666              1.753              1.692
 Vibration    10          0.689              1.685              1.450
 Vibration    11          0.692              1.674              1.419
 Vibration    12          0.703              1.643              1.330
 Vibration    13          0.731              1.564              1.142
 Vibration    14          0.769              1.462              0.949
 Vibration    15          0.777              1.443              0.917
 Vibration    16          0.793              1.401              0.853
 Vibration    17          0.796              1.394              0.842
 Vibration    18          0.803              1.375              0.815
 Vibration    19          0.819              1.337              0.764
 Vibration    20          0.870              1.216              0.621
 Vibration    21          0.896              1.159              0.563
 Vibration    22          0.901              1.148              0.552

                           ! Non-Optimized Parameters !
 Normal termination of Gaussian 16 at Fri Dec 11 23:43:41 2020.

 ----------------------------------------------------------------------
 # B3LYP/6-311++G(d,p) empiricaldispersion=gd3bj scf=xqc pop=npa geom=c
 heck
 ----------------------------------------------------------------------

 ---------------------------------------
 CID_115238041_JID_8979_Energie_neutraal
 ---------------------------------------
 Structure from the checkpoint file:  "JID_8979.chk"
 Charge =  0 Multiplicity = 1

 SCF Done:  E(RB3LYP) =  -800.722176526     A.U. after   15 cycles
 Normal termination of Gaussian 16 at Fri Dec 11 23:50:09 2020.

 ----------------------------------------------------------------------
 # B3LYP/6-311++G(d,p) empiricaldispersion=gd3bj scf=xqc pop=npa geom=c
 heck
 ----------------------------------------------------------------------

 -------------------------------------
 CID_115238041_JID_8979_Energie_kation
 -------------------------------------
 Structure from the checkpoint file:  "JID_8979.chk"
 Charge =  1 Multiplicity = 2

 SCF Done:  E(UB3LYP) =  -800.447865009     A.U. after   23 cycles
 Normal termination of Gaussian 16 at Sat Dec 12 00:03:46 2020.
 Gaussian 16:  ES64L-G16RevA.03 25-Dec-2016

 ----------------------------------------------------------------------
 # B3LYP/6-311++G(d,p) empiricaldispersion=gd3bj scf=xqc pop=npa geom=c
 heck
 ----------------------------------------------------------------------

 ------------------------------------
 CID_115238041_JID_8979_Energie_anion
 ------------------------------------
 Structure from the checkpoint file:  "JID_8979.chk"
 Charge = -1 Multiplicity = 2

                         Standard orientation:
 ---------------------------------------------------------------------
 Center     Atomic      Atomic             Coordinates (Angstroms)
 Number     Number       Type             X           Y           Z
 ---------------------------------------------------------------------
      1          6           0       -1.102951   -1.414466   -0.757475
      2          6           0       -1.848355   -2.376386    0.167012
      3          8           0       -2.682818   -1.665641    1.075496
      4          6           0       -3.640069   -0.871692    0.386183
      5          6           0       -2.964190    0.159883   -0.525706
      6          7           0       -2.008999   -0.485365   -1.452888
      7          6           0       -2.239489    1.235916    0.293044
      8          7           0       -1.536515    2.158937   -0.595682
      9          6           0       -0.324754    2.748763   -0.009633
     10          6           0        0.771861    1.735720    0.270691
     11          6           0        1.552510    1.270298   -0.790908
     12          6           0        2.450266    0.237976   -0.529932
     13          6           0        2.592847   -0.343790    0.755151
     14          6           0        1.818927    0.137310    1.815917
     15          6           0        0.924683    1.171673    1.557889
     16          7           0        3.550651   -1.354462    0.727348
     17          6           0        3.969119   -1.382769   -0.511514
     18          7           0        3.352456   -0.453440   -1.322952
     19          1           0       -0.387965   -0.829219   -0.172296
     20          1           0       -0.529451   -1.969297   -1.509074
     21          1           0       -2.462101   -3.075923   -0.430018
     22          1           0       -1.154606   -2.961134    0.779083
     23          1           0       -4.248790   -0.387339    1.156988
     24          1           0       -4.298872   -1.521310   -0.217588
     25          1           0       -3.726890    0.647986   -1.145646
     26          1           0       -2.538879   -1.001900   -2.153920
     27          1           0       -2.983365    1.785592    0.886956
     28          1           0       -1.574460    0.732202    1.009257
     29          1           0       -1.263454    1.610480   -1.412948
     30          1           0        0.041662    3.511255   -0.707658
     31          1           0       -0.605670    3.268666    0.913848
     32          1           0        1.441038    1.694172   -1.786098
     33          1           0        1.921582   -0.291952    2.807307
     34          1           0        0.316090    1.562610    2.368724
     35          1           0        4.722953   -2.055343   -0.900882
     36          1           0        3.528142   -0.304727   -2.305111
 ---------------------------------------------------------------------

 SCF Done:  E(UB3LYP) =  -800.716013742     A.U. after   33 cycles
 SCF Done:  E(UB3LYP) =  -800.716013743     a.u. after    1 cycles

 The electronic state is 2-A.
 Alpha  occ. eigenvalues --  -19.03759 -14.26831 -14.21119 -14.20658 -14.19881
 Alpha  occ. eigenvalues --  -10.14388 -10.12860 -10.12366 -10.11914 -10.11135
 Alpha  occ. eigenvalues --  -10.10653 -10.10330 -10.09626 -10.09539 -10.08820
 Alpha  occ. eigenvalues --  -10.08625 -10.08548 -10.08236  -0.95344  -0.92262
 Alpha  occ. eigenvalues --   -0.82923  -0.80078  -0.78594  -0.75622  -0.69195
 Alpha  occ. eigenvalues --   -0.66268  -0.65512  -0.61667  -0.58568  -0.56244
 Alpha  occ. eigenvalues --   -0.54512  -0.53092  -0.51789  -0.49587  -0.47665
 Alpha  occ. eigenvalues --   -0.45615  -0.42019  -0.40861  -0.39625  -0.39302
 Alpha  occ. eigenvalues --   -0.38998  -0.37794  -0.37488  -0.35719  -0.35123
 Alpha  occ. eigenvalues --   -0.34737  -0.34128  -0.33362  -0.33253  -0.30918
 Alpha  occ. eigenvalues --   -0.30055  -0.28467  -0.28132  -0.27257  -0.26197
 Alpha  occ. eigenvalues --   -0.25900  -0.25692  -0.24684  -0.22954  -0.21730
 Alpha  occ. eigenvalues --   -0.19171  -0.18790  -0.14845  -0.14336  -0.13512
 Alpha  occ. eigenvalues --   -0.12418   0.03829
 Alpha virt. eigenvalues --    0.05503   0.06071   0.07102   0.07702   0.07851
 Alpha virt. eigenvalues --    0.08650   0.09209   0.09280   0.09650   0.09825
 Alpha virt. eigenvalues --    0.10643   0.11251   0.11896   0.12073   0.12570

  Beta  occ. eigenvalues --  -19.03753 -14.26759 -14.21100 -14.20662 -14.19878
  Beta  occ. eigenvalues --  -10.14366 -10.12845 -10.12354 -10.11916 -10.11127
  Beta  occ. eigenvalues --  -10.10651 -10.10324 -10.09614 -10.09536 -10.08817
  Beta  occ. eigenvalues --  -10.08611 -10.08547 -10.08236  -0.95332  -0.92214
  Beta  occ. eigenvalues --   -0.82901  -0.80055  -0.78528  -0.75611  -0.69174
  Beta  occ. eigenvalues --   -0.66252  -0.65487  -0.61644  -0.58539  -0.56216
  Beta  occ. eigenvalues --   -0.54478  -0.53037  -0.51707  -0.49568  -0.47622
  Beta  occ. eigenvalues --   -0.45542  -0.41981  -0.40833  -0.39603  -0.39276
  Beta  occ. eigenvalues --   -0.38980  -0.37761  -0.37468  -0.35692  -0.35096
  Beta  occ. eigenvalues --   -0.34706  -0.34102  -0.33332  -0.33225  -0.30899
  Beta  occ. eigenvalues --   -0.30038  -0.28454  -0.28117  -0.27236  -0.26182
  Beta  occ. eigenvalues --   -0.25878  -0.25674  -0.24664  -0.22933  -0.21710
  Beta  occ. eigenvalues --   -0.19132  -0.18782  -0.14829  -0.14317  -0.13490
  Beta  occ. eigenvalues --   -0.12402
  Beta virt. eigenvalues --    0.06047   0.06077   0.07200   0.07382   0.08006
  Beta virt. eigenvalues --    0.08254   0.09192   0.09342   0.09638   0.09816
  Beta virt. eigenvalues --    0.10016   0.11082   0.11467   0.11961   0.12097

 Mulliken charges and spin densities:
               1          2
     1  C   -0.250484   0.036268
     2  C   -0.095816  -0.381022
     3  O   -0.115310   0.011488
     4  C    0.013733  -0.648975
     5  C    0.098927   0.404730
     6  N   -0.240687  -0.005241
     7  C   -0.263452  -0.530207
     8  N   -0.048731   0.039832
     9  C   -0.079381  -0.766069
    10  C    0.938966  -0.327107
    11  C    0.426188  -0.979652
    12  C    0.546573  -0.493667
    13  C   -0.420600   0.233153
    14  C   -0.384452   0.090316
    15  C   -0.460519   0.087400
    16  N   -0.134586   0.001935
    17  C    0.217771   0.129141
    18  N   -0.113283  -0.025323
    19  H    0.829927  -0.542495
    20  H   -0.306863   0.471246
    21  H   -0.094813   0.232230
    22  H    0.123806   0.051860
    23  H    0.082158   0.085067
    24  H   -0.181696   0.327992
    25  H   -0.140034   0.362914
    26  H   -0.046796   0.334066
    27  H    0.145188   0.005483
    28  H    0.083426   0.056569
    29  H    0.230596   0.008417
    30  H    0.127694   0.044663
    31  H    0.137141   0.011643
    32  H   -0.409359   0.604267
    33  H    0.139725   0.022001
    34  H    0.135941   0.010971
    35  H   -0.838337   1.041556
    36  H   -0.652556   0.994548
 Sum of Mulliken charges =  -1.00000   1.00000

 Dipole moment (field-independent basis, Debye):
    X=             -4.9790    Y=              3.2438    Z=              6.9647  Tot=              9.1553
 Quadrupole moment (field-independent basis, Debye-Ang):
   XX=           -191.8233   YY=           -144.9865   ZZ=           -157.7798
   XY=              5.6296   XZ=             11.4754   YZ=             -0.5469

 Summary of Natural Population Analysis:

                                       Natural Population
                Natural  -----------------------------------------------
    Atom  No    Charge         Core      Valence    Rydberg      Total
 -----------------------------------------------------------------------
      C    1   -0.11146      0.99961     2.09957    0.01227     3.11146
      C    2   -0.01755      0.99958     2.00566    0.01231     3.01755
      O    3   -0.30075      0.99989     3.29215    0.00871     4.30075
      C    4   -0.01606      0.99955     2.00268    0.01383     3.01606
      C    5   -0.03011      0.99959     2.01657    0.01396     3.03011
      N    6   -0.34433      0.99975     2.83012    0.01446     3.84433
      C    7   -0.09697      0.99959     2.08559    0.01178     3.09697
      N    8   -0.34242      0.99975     2.83158    0.01108     3.84242
      C    9   -0.09184      0.99959     2.08126    0.01099     3.09184
      C   10   -0.02963      0.99951     2.02054    0.00958     3.02963
      C   11   -0.11126      0.99947     2.10157    0.01022     3.11126
      C   12    0.06420      0.99946     1.92327    0.01308     2.93580
      C   13    0.05145      0.99945     1.93504    0.01406     2.94855
      C   14   -0.09843      0.99952     2.09071    0.00820     3.09843
      C   15   -0.11549      0.99953     2.10772    0.00823     3.11549
      N   16   -0.25899      0.99971     2.74973    0.00956     3.75899
      C   17    0.13044      0.99964     1.85210    0.01782     2.86956
      N   18   -0.27412      0.99966     2.76310    0.01136     3.77412
      H   19    0.09997      0.00000     0.39693    0.00310     0.40003
      H   20    0.10132      0.00000     0.39734    0.00134     0.39868
      H   21    0.07519      0.00000     0.42330    0.00151     0.42481
      H   22    0.09276      0.00000     0.40615    0.00109     0.40724
      H   23    0.09026      0.00000     0.40866    0.00109     0.40974
      H   24    0.08013      0.00000     0.41830    0.00157     0.41987
      H   25    0.09967      0.00000     0.39909    0.00124     0.40033
      H   26    0.17819      0.00000     0.31858    0.00323     0.32181
      H   27    0.08891      0.00000     0.41004    0.00105     0.41109
      H   28    0.09279      0.00000     0.40526    0.00195     0.40721
      H   29    0.18437      0.00000     0.31135    0.00428     0.31563
      H   30    0.09707      0.00000     0.40199    0.00095     0.40293
      H   31    0.09077      0.00000     0.40826    0.00097     0.40923
      H   32    0.10650      0.00000     0.39179    0.00171     0.39350
      H   33    0.10343      0.00000     0.39542    0.00115     0.39657
      H   34    0.09876      0.00000     0.40035    0.00089     0.40124
      H   35    0.09634      0.00000     0.40178    0.00188     0.40366
      H   36    0.21687      0.00000     0.24092    0.04221     0.28313
 =======================================================================
   * Total *   -0.00000     17.99285    47.72447    0.28268    66.00000

 Normal termination of Gaussian 16 at Sat Dec 12 00:23:51 2020.
