 Gaussian 16, Revision A.03,

 -----------------------------------------------------------
 # opt freq B3LYP/6-31G(d) empiricaldispersion=gd3bj scf=xqc
 -----------------------------------------------------------

 -------------------------------
 CID_105983391_JID_8317_neutraal
 -------------------------------
 Symbolic Z-matrix:
 Charge =  0 Multiplicity = 1

 SCF Done:  E(RB3LYP) =  -825.242333197     A.U. after   15 cycles
 SCF Done:  E(RB3LYP) =  -825.246921575     A.U. after   12 cycles
 SCF Done:  E(RB3LYP) =  -825.247182076     A.U. after   12 cycles
 SCF Done:  E(RB3LYP) =  -825.247814975     A.U. after   12 cycles
 SCF Done:  E(RB3LYP) =  -825.248162724     A.U. after   12 cycles
 SCF Done:  E(RB3LYP) =  -825.248177643     A.U. after   11 cycles
 SCF Done:  E(RB3LYP) =  -825.248277393     A.U. after   10 cycles
 SCF Done:  E(RB3LYP) =  -825.248305635     A.U. after   11 cycles
 SCF Done:  E(RB3LYP) =  -825.248322495     A.U. after   10 cycles
 SCF Done:  E(RB3LYP) =  -825.248331903     A.U. after   10 cycles
 SCF Done:  E(RB3LYP) =  -825.248351221     A.U. after   10 cycles
 SCF Done:  E(RB3LYP) =  -825.248352648     A.U. after    8 cycles
 SCF Done:  E(RB3LYP) =  -825.248352838     A.U. after    7 cycles
 SCF Done:  E(RB3LYP) =  -825.248352898     A.U. after    6 cycles
 SCF Done:  E(RB3LYP) =  -825.248352950     A.U. after    6 cycles
 Optimization completed.
    -- Stationary point found.
 Normal termination of Gaussian 16 at Thu Dec 17 20:13:14 2020.

 --------------------------------------------------------------------
 #N Geom=AllCheck Guess=TCheck SCRF=Check GenChk RB3LYP/6-31G(d) Freq
 --------------------------------------------------------------------

 Structure from the checkpoint file:  "JID_8317.chk"
 -------------------------------
 CID_105983391_JID_8317_neutraal
 -------------------------------
 Charge =  0 Multiplicity = 1

 SCF Done:  E(RB3LYP) =  -825.248352950     A.U. after    1 cycles

  Exact polarizability: 196.884  -0.911 153.205  -1.582   0.140 128.802
 Approx polarizability: 234.269 -14.319 227.963  -5.754   0.715 210.995

                      1                      2                      3
                      A                      A                      A
 Frequencies --     25.2301                28.5319                41.8145
 Red. masses --      4.1167                 3.9646                 3.8838
 Frc consts  --      0.0015                 0.0019                 0.0040
 IR Inten    --      0.6468                 0.7625                 0.5249

                      4                      5                      6
                      A                      A                      A
 Frequencies --     50.3750                59.7624                79.0669
 Red. masses --      4.6681                 2.7875                 4.4674
 Frc consts  --      0.0070                 0.0059                 0.0165
 IR Inten    --      2.8370                 1.7069                 1.6514

                      7                      8                      9
                      A                      A                      A
 Frequencies --    106.8071               143.1757               150.7068
 Red. masses --      5.2587                 1.1799                 3.0290
 Frc consts  --      0.0353                 0.0143                 0.0405
 IR Inten    --      1.7023                 0.6508                 0.6913

                     10                     11                     12
                      A                      A                      A
 Frequencies --    164.6234               177.4250               187.2755
 Red. masses --      2.3413                 3.3921                 3.6285
 Frc consts  --      0.0374                 0.0629                 0.0750
 IR Inten    --      1.7082                 3.6398                 1.5200

                     13                     14                     15
                      A                      A                      A
 Frequencies --    206.7369               231.2215               243.2809
 Red. masses --      3.0576                 1.5178                 2.0029
 Frc consts  --      0.0770                 0.0478                 0.0698
 IR Inten    --      0.3965                 2.3851                 4.0151

                     16                     17                     18
                      A                      A                      A
 Frequencies --    256.6877               273.0416               290.3070
 Red. masses --      1.1338                 2.0174                 1.3952
 Frc consts  --      0.0440                 0.0886                 0.0693
 IR Inten    --      0.3803                16.0172                29.8088

                     19                     20                     21
                      A                      A                      A
 Frequencies --    314.5891               339.2700               384.5532
 Red. masses --      1.9554                 2.6256                 3.2761
 Frc consts  --      0.1140                 0.1781                 0.2854
 IR Inten    --      8.3152                 1.8168                21.2793

                     22                     23                     24
                      A                      A                      A
 Frequencies --    399.1765               412.7275               421.9252
 Red. masses --      2.7153                 3.7011                 3.2777
 Frc consts  --      0.2549                 0.3715                 0.3438
 IR Inten    --      3.2773                 3.7035                 1.2594

                     25                     26                     27
                      A                      A                      A
 Frequencies --    430.8651               443.9421               484.7019
 Red. masses --      2.5394                 2.4050                 2.8576
 Frc consts  --      0.2778                 0.2793                 0.3955
 IR Inten    --      3.3552                 1.6544                 2.1268

                     28                     29                     30
                      A                      A                      A
 Frequencies --    487.3000               520.3572               548.7356
 Red. masses --      2.5785                 3.2421                 2.7851
 Frc consts  --      0.3607                 0.5172                 0.4941
 IR Inten    --      1.8316                20.9395                 3.3536

                     31                     32                     33
                      A                      A                      A
 Frequencies --    608.6971               634.5277               647.6387
 Red. masses --      3.7838                 1.9226                 2.0072
 Frc consts  --      0.8260                 0.4561                 0.4960
 IR Inten    --     17.9725                57.5323                19.3483

                     34                     35                     36
                      A                      A                      A
 Frequencies --    729.8968               740.8399               765.5960
 Red. masses --      3.2821                 3.9029                 4.1611
 Frc consts  --      1.0302                 1.2621                 1.4370
 IR Inten    --      6.2563                42.4820                11.4189

                     37                     38                     39
                      A                      A                      A
 Frequencies --    800.7351               806.7276               834.2199
 Red. masses --      1.2798                 2.0355                 2.6563
 Frc consts  --      0.4835                 0.7805                 1.0891
 IR Inten    --      4.5388                 8.3776                 5.7777

                     40                     41                     42
                      A                      A                      A
 Frequencies --    870.7042               885.3796               914.5418
 Red. masses --      2.4640                 1.5831                 2.1388
 Frc consts  --      1.1006                 0.7312                 1.0540
 IR Inten    --     32.9345                 3.2681                22.7869

                     43                     44                     45
                      A                      A                      A
 Frequencies --    926.5076               931.5094               969.3569
 Red. masses --      2.3017                 1.8164                 1.7363
 Frc consts  --      1.1641                 0.9286                 0.9613
 IR Inten    --     12.7864               112.4734                29.5520

                     46                     47                     48
                      A                      A                      A
 Frequencies --    981.8742              1003.8689              1019.1171
 Red. masses --      1.9321                 1.8178                 1.4753
 Frc consts  --      1.0975                 1.0793                 0.9028
 IR Inten    --     20.1419                 8.4992                 4.0167

                     49                     50                     51
                      A                      A                      A
 Frequencies --   1034.6362              1045.0067              1085.0374
 Red. masses --      2.4786                 2.2024                 1.9861
 Frc consts  --      1.5632                 1.4171                 1.3777
 IR Inten    --     19.1432                 1.3859                 1.4754

                     52                     53                     54
                      A                      A                      A
 Frequencies --   1102.8597              1104.6926              1119.9736
 Red. masses --      1.7021                 1.5991                 1.6569
 Frc consts  --      1.2197                 1.1497                 1.2245
 IR Inten    --      3.4428                 6.6377                27.0352

                     55                     56                     57
                      A                      A                      A
 Frequencies --   1125.8900              1131.2834              1138.9451
 Red. masses --      1.9568                 2.7272                 2.0577
 Frc consts  --      1.4615                 2.0564                 1.5727
 IR Inten    --      4.3561                22.8622                15.5185

                     58                     59                     60
                      A                      A                      A
 Frequencies --   1154.3626              1166.9822              1188.1201
 Red. masses --      1.3358                 1.4480                 1.8995
 Frc consts  --      1.0488                 1.1619                 1.5798
 IR Inten    --     10.9262                 8.8277                 2.6118

                     61                     62                     63
                      A                      A                      A
 Frequencies --   1194.7969              1222.3745              1248.0068
 Red. masses --      1.9713                 1.6052                 1.4770
 Frc consts  --      1.6580                 1.4131                 1.3554
 IR Inten    --     22.8370                 0.0901                85.2028

                     64                     65                     66
                      A                      A                      A
 Frequencies --   1272.4073              1278.7141              1284.5499
 Red. masses --      2.5145                 1.5090                 1.4520
 Frc consts  --      2.3986                 1.4537                 1.4116
 IR Inten    --     13.8719                 3.7544                23.6985

                     67                     68                     69
                      A                      A                      A
 Frequencies --   1315.0559              1318.3733              1339.4915
 Red. masses --      1.4776                 1.3653                 1.3756
 Frc consts  --      1.5056                 1.3981                 1.4541
 IR Inten    --    125.4209                38.2765                10.6247

                     70                     71                     72
                      A                      A                      A
 Frequencies --   1350.2834              1368.2847              1371.4667
 Red. masses --      1.4867                 1.3499                 1.2909
 Frc consts  --      1.5971                 1.4891                 1.4306
 IR Inten    --     46.8487                11.0466                 0.5894

                     73                     74                     75
                      A                      A                      A
 Frequencies --   1378.2057              1395.3228              1406.7752
 Red. masses --      1.4318                 1.4594                 1.3890
 Frc consts  --      1.6023                 1.6740                 1.6196
 IR Inten    --     30.3858                21.3019                 2.4721

                     76                     77                     78
                      A                      A                      A
 Frequencies --   1407.8883              1410.4741              1433.3696
 Red. masses --      1.2569                 1.5159                 1.2750
 Frc consts  --      1.4679                 1.7768                 1.5435
 IR Inten    --      4.2012                24.4758                 6.1537

                     79                     80                     81
                      A                      A                      A
 Frequencies --   1437.2822              1442.1215              1450.9476
 Red. masses --      1.2651                 1.4728                 2.2545
 Frc consts  --      1.5398                 1.8046                 2.7965
 IR Inten    --     11.2896                19.2924                93.8735

                     82                     83                     84
                      A                      A                      A
 Frequencies --   1455.2194              1493.2966              1504.8659
 Red. masses --      1.5407                 1.1976                 1.8801
 Frc consts  --      1.9223                 1.5734                 2.5085
 IR Inten    --     15.7531                 3.1820                46.5018

                     85                     86                     87
                      A                      A                      A
 Frequencies --   1507.4805              1509.8038              1518.2588
 Red. masses --      1.0874                 1.0901                 1.0600
 Frc consts  --      1.4559                 1.4640                 1.4396
 IR Inten    --      9.9813                 2.8298                 8.6509

                     88                     89                     90
                      A                      A                      A
 Frequencies --   1520.1478              1524.9376              1526.7705
 Red. masses --      1.1129                 1.0458                 1.0973
 Frc consts  --      1.5153                 1.4328                 1.5070
 IR Inten    --      5.7184                 7.5271                 2.8118

                     91                     92                     93
                      A                      A                      A
 Frequencies --   1527.0490              1531.6557              1533.8611
 Red. masses --      1.0579                 1.0834                 1.0700
 Frc consts  --      1.4535                 1.4974                 1.4832
 IR Inten    --      5.3375                18.5805                 7.2331

                     94                     95                     96
                      A                      A                      A
 Frequencies --   1542.0724              1548.5282              1694.9310
 Red. masses --      1.0609                 1.1583                 1.0910
 Frc consts  --      1.4863                 1.6365                 1.8466
 IR Inten    --     13.6411                49.5845                26.6646

                     97                     98                     99
                      A                      A                      A
 Frequencies --   1759.2956              1764.0031              2995.0910
 Red. masses --      9.1710                 7.3830                 1.0830
 Frc consts  --     16.7241                13.5357                 5.7241
 IR Inten    --    136.7711               429.4177                11.9531

                    100                    101                    102
                      A                      A                      A
 Frequencies --   3003.8094              3031.1633              3037.2019
 Red. masses --      1.0833                 1.0626                 1.0624
 Frc consts  --      5.7591                 5.7524                 5.7739
 IR Inten    --     46.6964                16.7094                48.3496

                    103                    104                    105
                      A                      A                      A
 Frequencies --   3041.8102              3050.5851              3056.1039
 Red. masses --      1.0409                 1.0420                 1.0713
 Frc consts  --      5.6742                 5.7131                 5.8952
 IR Inten    --     29.6693                26.1920                52.6136

                    106                    107                    108
                      A                      A                      A
 Frequencies --   3056.2460              3062.8053              3069.9701
 Red. masses --      1.0433                 1.0629                 1.0687
 Frc consts  --      5.7415                 5.8748                 5.9346
 IR Inten    --     44.5941                26.6119                32.1835

                    109                    110                    111
                      A                      A                      A
 Frequencies --   3071.4532              3079.5578              3084.5006
 Red. masses --      1.1003                 1.0678                 1.1032
 Frc consts  --      6.1157                 5.9666                 6.1839
 IR Inten    --     27.7724                26.0778                43.7928

                    112                    113                    114
                      A                      A                      A
 Frequencies --   3104.2136              3114.0272              3114.5226
 Red. masses --      1.0983                 1.1016                 1.0988
 Frc consts  --      6.2353                 6.2939                 6.2798
 IR Inten    --     46.0860                15.9837                23.3459

                    115                    116                    117
                      A                      A                      A
 Frequencies --   3118.9086              3134.6395              3136.5278
 Red. masses --      1.1021                 1.1011                 1.1001
 Frc consts  --      6.3164                 6.3743                 6.3765
 IR Inten    --     27.3845                22.7369                25.4357

                    118                    119                    120
                      A                      A                      A
 Frequencies --   3148.9478              3156.1190              3168.5768
 Red. masses --      1.0970                 1.0993                 1.0976
 Frc consts  --      6.4091                 6.4514                 6.4924
 IR Inten    --     10.0089                14.9465                23.1545

                    121                    122                    123
                      A                      A                      A
 Frequencies --   3442.2585              3527.6361              3571.9188
 Red. masses --      1.0493                 1.0918                 1.0753
 Frc consts  --      7.3254                 8.0048                 8.0835
 IR Inten    --      3.5556                 2.2443                22.7824

 - Thermochemistry -
 -------------------
 Temperature   298.150 Kelvin.  Pressure   1.00000 Atm.
 Atom     1 has atomic number  6 and mass  12.00000

 Molecular mass:   255.19468 amu.
 Principal axes and moments of inertia in atomic units:
                           1         2         3
     Eigenvalues --  1893.061049539.79578**********
           X            0.99990   0.01334   0.00487
           Y           -0.01334   0.99991  -0.00150
           Z           -0.00489   0.00144   0.99999
 This molecule is an asymmetric top.
 Rotational symmetry number  1.
 Warning -- assumption of classical behavior for rotation
           may cause significant error
 Rotational temperatures (Kelvin)      0.04575     0.00908     0.00842
 Rotational constants (GHZ):           0.95335     0.18918     0.17544
 Zero-point vibrational energy    1014078.6 (Joules/Mol)
                                  242.37061 (Kcal/Mol)
 Warning -- explicit consideration of  31 degrees of freedom as
           vibrations may cause significant error
 Vibrational temperatures:     36.30    41.05    60.16    72.48    85.98
          (Kelvin)            113.76   153.67   206.00   216.83   236.86
                              255.28   269.45   297.45   332.68   350.03
                              369.32   392.85   417.69   452.62   488.13
                              553.29   574.33   593.82   607.06   619.92
                              638.73   697.38   701.12   748.68   789.51
                              875.78   912.94   931.81  1050.16  1065.90
                             1101.52  1152.08  1160.70  1200.26  1252.75
                             1273.86  1315.82  1333.04  1340.23  1394.69
                             1412.70  1444.34  1466.28  1488.61  1503.53
                             1561.13  1586.77  1589.41  1611.39  1619.90
                             1627.66  1638.69  1660.87  1679.03  1709.44
                             1719.05  1758.72  1795.60  1830.71  1839.78
                             1848.18  1892.07  1896.85  1927.23  1942.76
                             1968.66  1973.23  1982.93  2007.56  2024.04
                             2025.64  2029.36  2062.30  2067.93  2074.89
                             2087.59  2093.74  2148.52  2165.17  2168.93
                             2172.27  2184.44  2187.15  2194.05  2196.68
                             2197.08  2203.71  2206.88  2218.70  2227.99
                             2438.63  2531.23  2538.01  4309.27  4321.81
                             4361.17  4369.86  4376.49  4389.11  4397.05
                             4397.26  4406.69  4417.00  4419.14  4430.80
                             4437.91  4466.27  4480.39  4481.10  4487.41
                             4510.05  4512.76  4530.63  4540.95  4558.88
                             4952.64  5075.48  5139.19

 Zero-point correction=                           0.386242 (Hartree/Particle)
 Thermal correction to Energy=                    0.406190
 Thermal correction to Enthalpy=                  0.407135
 Thermal correction to Gibbs Free Energy=         0.336615
 Sum of electronic and zero-point Energies=           -824.862111
 Sum of electronic and thermal Energies=              -824.842163
 Sum of electronic and thermal Enthalpies=            -824.841218
 Sum of electronic and thermal Free Energies=         -824.911738

                     E (Thermal)             CV                S
                      KCal/Mol        Cal/Mol-Kelvin    Cal/Mol-Kelvin
 Total                  254.888             74.585            148.420
 Electronic               0.000              0.000              0.000
 Translational            0.889              2.981             42.511
 Rotational               0.889              2.981             33.585
 Vibrational            253.111             68.623             72.325
 Vibration     1          0.593              1.985              6.173
 Vibration     2          0.593              1.984              5.929
 Vibration     3          0.594              1.980              5.171
 Vibration     4          0.595              1.977              4.803
 Vibration     5          0.597              1.973              4.465
 Vibration     6          0.600              1.963              3.914
 Vibration     7          0.606              1.944              3.326
 Vibration     8          0.616              1.910              2.761
 Vibration     9          0.618              1.902              2.663
 Vibration    10          0.623              1.886              2.496
 Vibration    11          0.628              1.870              2.355
 Vibration    12          0.632              1.857              2.255
 Vibration    13          0.641              1.830              2.072
 Vibration    14          0.653              1.793              1.869
 Vibration    15          0.659              1.774              1.779
 Vibration    16          0.666              1.751              1.684
 Vibration    17          0.676              1.723              1.577
 Vibration    18          0.686              1.692              1.472
 Vibration    19          0.702              1.646              1.338
 Vibration    20          0.719              1.597              1.216
 Vibration    21          0.753              1.503              1.021
 Vibration    22          0.765              1.472              0.966
 Vibration    23          0.777              1.443              0.917
 Vibration    24          0.784              1.423              0.885
 Vibration    25          0.792              1.403              0.856
 Vibration    26          0.803              1.374              0.814
 Vibration    27          0.841              1.284              0.697
 Vibration    28          0.843              1.278              0.691
 Vibration    29          0.875              1.205              0.609
 Vibration    30          0.904              1.142              0.547
 Vibration    31          0.968              1.013              0.435

                           ! Non-Optimized Parameters !
 Normal termination of Gaussian 16 at Thu Dec 17 20:32:35 2020.

 ----------------------------------------------------------------------
 # B3LYP/6-311++G(d,p) empiricaldispersion=gd3bj scf=xqc pop=npa geom=c
 heck
 ----------------------------------------------------------------------

 ---------------------------------------
 CID_105983391_JID_8317_Energie_neutraal
 ---------------------------------------
 Structure from the checkpoint file:  "JID_8317.chk"
 Charge =  0 Multiplicity = 1

 SCF Done:  E(RB3LYP) =  -825.493890878     A.U. after   15 cycles
 Normal termination of Gaussian 16 at Thu Dec 17 20:40:55 2020.

 ----------------------------------------------------------------------
 # B3LYP/6-311++G(d,p) empiricaldispersion=gd3bj scf=xqc pop=npa geom=c
 heck
 ----------------------------------------------------------------------

 -------------------------------------
 CID_105983391_JID_8317_Energie_kation
 -------------------------------------
 Structure from the checkpoint file:  "JID_8317.chk"
 Charge =  1 Multiplicity = 2

 SCF Done:  E(UB3LYP) =  -825.189608732     A.U. after   33 cycles
 SCF Done:  E(UB3LYP) =  -825.189608731     a.u. after    1 cycles
 Normal termination of Gaussian 16 at Thu Dec 17 21:05:33 2020.
 Gaussian 16:  ES64L-G16RevA.03 25-Dec-2016

 ----------------------------------------------------------------------
 # B3LYP/6-311++G(d,p) empiricaldispersion=gd3bj scf=xqc pop=npa geom=c
 heck
 ----------------------------------------------------------------------

 ------------------------------------
 CID_105983391_JID_8317_Energie_anion
 ------------------------------------
 Structure from the checkpoint file:  "JID_8317.chk"
 Charge = -1 Multiplicity = 2

                         Standard orientation:
 ---------------------------------------------------------------------
 Center     Atomic      Atomic             Coordinates (Angstroms)
 Number     Number       Type             X           Y           Z
 ---------------------------------------------------------------------
      1          6           0        4.976449    0.920554    1.229204
      2          6           0        4.749083    0.559784   -0.239723
      3          7           0        3.352470    0.218480   -0.527636
      4          6           0        2.424181    1.323808   -0.718978
      5          6           0        2.971483   -1.080439   -0.327506
      6          8           0        3.769966   -1.967270   -0.037441
      7          6           0        1.477587   -1.417829   -0.448971
      8          7           0        0.726848   -0.819529    0.642979
      9          6           0       -0.506963   -0.214254    0.661278
     10          8           0       -0.991524    0.119588    1.740009
     11          6           0       -1.228661   -0.026953   -0.670545
     12          6           0       -2.055672   -1.298504   -0.979802
     13          6           0       -3.273339   -1.419351   -0.056469
     14          6           0       -4.184035   -0.182769   -0.158947
     15          6           0       -3.393118    1.093139    0.146700
     16          6           0       -2.128180    1.231638   -0.715401
     17          6           0       -1.352247    2.509405   -0.380755
     18          7           0       -5.370941   -0.226657    0.703177
     19          1           0        4.359882    1.773380    1.534614
     20          1           0        6.026042    1.183822    1.400203
     21          1           0        4.730030    0.065750    1.866232
     22          1           0        5.026445    1.394449   -0.893050
     23          1           0        5.355000   -0.305563   -0.511420
     24          1           0        1.562890    1.014629   -1.311193
     25          1           0        2.054866    1.736427    0.227782
     26          1           0        2.936864    2.117398   -1.270478
     27          1           0        1.070001   -1.079753   -1.402506
     28          1           0        1.417863   -2.510804   -0.425746
     29          1           0        1.082837   -0.990997    1.577319
     30          1           0       -0.483194    0.089897   -1.465411
     31          1           0       -2.394606   -1.235319   -2.022878
     32          1           0       -1.423613   -2.192403   -0.908279
     33          1           0       -2.941924   -1.528638    0.984188
     34          1           0       -3.843519   -2.322441   -0.312547
     35          1           0       -4.551335   -0.120748   -1.195324
     36          1           0       -3.102265    1.089094    1.202253
     37          1           0       -4.044428    1.960015   -0.014764
     38          1           0       -2.456327    1.304065   -1.764287
     39          1           0       -0.478611    2.629348   -1.034432
     40          1           0       -1.987776    3.392290   -0.511122
     41          1           0       -1.006871    2.491286    0.657267
     42          1           0       -5.887843   -1.088367    0.526906
     43          1           0       -5.065994   -0.280790    1.675980
 ---------------------------------------------------------------------

 SCF Done:  E(UB3LYP) =  -825.486829914     A.U. after   32 cycles

 The electronic state is 2-A.
 Alpha  occ. eigenvalues --  -19.00379 -19.00030 -14.25881 -14.25569 -14.20780
 Alpha  occ. eigenvalues --  -10.18683 -10.18631 -10.13313 -10.11604 -10.11251
 Alpha  occ. eigenvalues --  -10.10503 -10.09303 -10.08384 -10.08365 -10.07971
 Alpha  occ. eigenvalues --  -10.07334 -10.06362 -10.06292  -0.95727  -0.95182
 Alpha  occ. eigenvalues --   -0.85343  -0.83780  -0.80454  -0.74069  -0.68327
 Alpha  occ. eigenvalues --   -0.67350  -0.65220  -0.64012  -0.61723  -0.59261
 Alpha  occ. eigenvalues --   -0.55554  -0.54026  -0.50974  -0.49192  -0.46320
 Alpha  occ. eigenvalues --   -0.45793  -0.43977  -0.41304  -0.40284  -0.39275
 Alpha  occ. eigenvalues --   -0.39103  -0.37951  -0.37200  -0.36732  -0.35255
 Alpha  occ. eigenvalues --   -0.34905  -0.34413  -0.32867  -0.32794  -0.32065
 Alpha  occ. eigenvalues --   -0.31850  -0.30998  -0.30794  -0.30357  -0.29508
 Alpha  occ. eigenvalues --   -0.28854  -0.28395  -0.27983  -0.26937  -0.26467
 Alpha  occ. eigenvalues --   -0.26193  -0.24551  -0.23796  -0.22513  -0.21699
 Alpha  occ. eigenvalues --   -0.18734  -0.16971  -0.16170  -0.15970  -0.15737
 Alpha  occ. eigenvalues --    0.03786
 Alpha virt. eigenvalues --    0.05540   0.06357   0.07123   0.07660   0.07715
 Alpha virt. eigenvalues --    0.08536   0.08715   0.09070   0.09417   0.09990
 Alpha virt. eigenvalues --    0.10096   0.10549   0.10735   0.11368   0.11542

  Beta  occ. eigenvalues --  -19.00376 -19.00022 -14.25879 -14.25566 -14.20774
  Beta  occ. eigenvalues --  -10.18682 -10.18619 -10.13288 -10.11583 -10.11202
  Beta  occ. eigenvalues --  -10.10496 -10.09288 -10.08373 -10.08341 -10.07952
  Beta  occ. eigenvalues --  -10.07325 -10.06361 -10.06275  -0.95719  -0.95166
  Beta  occ. eigenvalues --   -0.85330  -0.83765  -0.80440  -0.74037  -0.68296
  Beta  occ. eigenvalues --   -0.67320  -0.65185  -0.63977  -0.61660  -0.59228
  Beta  occ. eigenvalues --   -0.55507  -0.53981  -0.50938  -0.49160  -0.46284
  Beta  occ. eigenvalues --   -0.45745  -0.43950  -0.41268  -0.40240  -0.39228
  Beta  occ. eigenvalues --   -0.39069  -0.37925  -0.37167  -0.36692  -0.35224
  Beta  occ. eigenvalues --   -0.34877  -0.34388  -0.32844  -0.32773  -0.32026
  Beta  occ. eigenvalues --   -0.31822  -0.30966  -0.30750  -0.30329  -0.29475
  Beta  occ. eigenvalues --   -0.28823  -0.28363  -0.27951  -0.26912  -0.26441
  Beta  occ. eigenvalues --   -0.26158  -0.24518  -0.23768  -0.22485  -0.21673
  Beta  occ. eigenvalues --   -0.18718  -0.16948  -0.16152  -0.15949  -0.15727
  Beta virt. eigenvalues --    0.05975   0.06218   0.07038   0.07464   0.07822
  Beta virt. eigenvalues --    0.08196   0.08723   0.08954   0.09509   0.09532
  Beta virt. eigenvalues --    0.10207   0.10290   0.10797   0.10886   0.11611

 Mulliken charges and spin densities:
               1          2
     1  C    0.161585  -0.593427
     2  C   -0.166618   0.012268
     3  N    0.009340   0.131434
     4  C    0.509196  -1.075477
     5  C   -0.787606   0.491217
     6  O   -0.323964   0.013731
     7  C    1.193986  -1.339957
     8  N   -0.325759   0.125615
     9  C   -0.223676  -0.360399
    10  O   -0.265926   0.009954
    11  C    0.451637   0.443378
    12  C    0.755688  -1.353626
    13  C   -0.581786   0.481834
    14  C   -0.255024  -0.541856
    15  C    0.072923  -0.458260
    16  C   -0.444480   0.439741
    17  C    0.183314  -0.830227
    18  N   -0.281309   0.030637
    19  H   -0.091370   0.229509
    20  H   -0.060237   0.205226
    21  H    0.085976   0.078341
    22  H   -0.262154   0.416304
    23  H    0.079608   0.103684
    24  H   -0.524535   0.727625
    25  H    0.421261  -0.199971
    26  H   -0.661678   0.826311
    27  H   -0.320865   0.515419
    28  H    0.129462   0.084989
    29  H    0.313242   0.020942
    30  H    0.193312   0.032226
    31  H   -0.433201   0.612330
    32  H   -0.002839   0.166982
    33  H    0.169546   0.012860
    34  H   -0.201980   0.372838
    35  H    0.066197   0.115459
    36  H    0.176847   0.038119
    37  H    0.203765  -0.045331
    38  H   -0.271271   0.470779
    39  H   -0.059226   0.204711
    40  H   -0.065724   0.217304
    41  H    0.101480   0.067924
    42  H    0.123657   0.094679
    43  H    0.209207   0.004161
 Sum of Mulliken charges =  -1.00000   1.00000

 Dipole moment (field-independent basis, Debye):
    X=             -1.6091    Y=             -1.7092    Z=              4.7672  Tot=              5.3138
 Quadrupole moment (field-independent basis, Debye-Ang):
   XX=           -206.4308   YY=           -158.3847   ZZ=           -156.8414
   XY=             -1.7227   XZ=              0.4540   YZ=              0.4930

 Summary of Natural Population Analysis:

                                       Natural Population
                Natural  -----------------------------------------------
    Atom  No    Charge         Core      Valence    Rydberg      Total
 -----------------------------------------------------------------------
      C    1   -0.29238      0.99966     2.28768    0.00504     3.29238
      C    2   -0.08570      0.99962     2.07540    0.01068     3.08570
      N    3   -0.25017      0.99965     2.73810    0.01242     3.75017
      C    4   -0.17704      0.99962     2.16905    0.00837     3.17704
      C    5    0.33840      0.99964     1.63875    0.02321     2.66160
      O    6   -0.32668      0.99988     3.32151    0.00528     4.32668
      C    7   -0.12644      0.99958     2.11618    0.01068     3.12644
      N    8   -0.31726      0.99966     2.80895    0.00865     3.81726
      C    9    0.35544      0.99962     1.62083    0.02410     2.64456
      O   10   -0.33000      0.99988     3.32493    0.00520     4.33000
      C   11   -0.15154      0.99952     2.13833    0.01369     3.15154
      C   12   -0.18460      0.99961     2.17514    0.00986     3.18460
      C   13   -0.19965      0.99960     2.18944    0.01061     3.19965
      C   14   -0.01195      0.99958     2.00063    0.01175     3.01195
      C   15   -0.19444      0.99959     2.18492    0.00993     3.19444
      C   16   -0.10566      0.99959     2.09446    0.01161     3.10566
      C   17   -0.28510      0.99964     2.27956    0.00589     3.28510
      N   18   -0.41772      0.99977     2.90890    0.00905     3.91772
      H   19    0.09870      0.00000     0.40045    0.00085     0.40130
      H   20    0.09981      0.00000     0.39942    0.00077     0.40019
      H   21    0.10210      0.00000     0.39709    0.00081     0.39790
      H   22    0.09584      0.00000     0.40273    0.00143     0.40416
      H   23    0.10890      0.00000     0.38997    0.00113     0.39110
      H   24    0.10323      0.00000     0.39458    0.00219     0.39677
      H   25    0.09562      0.00000     0.40283    0.00155     0.40438
      H   26    0.10282      0.00000     0.39521    0.00198     0.39718
      H   27    0.11230      0.00000     0.38583    0.00188     0.38770
      H   28    0.10480      0.00000     0.39409    0.00111     0.39520
      H   29    0.19320      0.00000     0.30476    0.00204     0.30680
      H   30    0.10978      0.00000     0.38661    0.00361     0.39022
      H   31    0.10287      0.00000     0.39474    0.00239     0.39713
      H   32    0.10004      0.00000     0.39882    0.00114     0.39996
      H   33    0.09951      0.00000     0.39914    0.00135     0.40049
      H   34    0.09765      0.00000     0.40107    0.00128     0.40235
      H   35    0.08628      0.00000     0.41199    0.00173     0.41372
      H   36    0.10792      0.00000     0.39093    0.00115     0.39208
      H   37    0.10077      0.00000     0.39819    0.00104     0.39923
      H   38    0.09731      0.00000     0.40087    0.00182     0.40269
      H   39    0.09998      0.00000     0.39887    0.00115     0.40002
      H   40    0.09830      0.00000     0.40097    0.00073     0.40170
      H   41    0.10371      0.00000     0.39537    0.00092     0.39629
      H   42    0.17138      0.00000     0.32711    0.00151     0.32862
      H   43    0.16966      0.00000     0.32859    0.00175     0.33034
 =======================================================================
   * Total *    0.00000     17.99370    51.77297    0.23332    70.00000

 Normal termination of Gaussian 16 at Thu Dec 17 21:29:03 2020.
