 Gaussian 16, Revision A.03,

 -----------------------------------------------------------
 # opt freq B3LYP/6-31G(d) empiricaldispersion=gd3bj scf=xqc
 -----------------------------------------------------------

 ------------------------------
 CID_63007868_JID_4506_neutraal
 ------------------------------
 Symbolic Z-matrix:
 Charge =  0 Multiplicity = 1

 SCF Done:  E(RB3LYP) =  -1011.97246171     A.U. after   14 cycles
 SCF Done:  E(RB3LYP) =  -1011.97651221     A.U. after   12 cycles
 SCF Done:  E(RB3LYP) =  -1011.97589095     A.U. after   13 cycles
 SCF Done:  E(RB3LYP) =  -1011.97829325     A.U. after   13 cycles
 SCF Done:  E(RB3LYP) =  -1011.97884590     A.U. after   12 cycles
 SCF Done:  E(RB3LYP) =  -1011.98022494     A.U. after   12 cycles
 SCF Done:  E(RB3LYP) =  -1011.98010473     A.U. after   12 cycles
 SCF Done:  E(RB3LYP) =  -1011.98063249     A.U. after   11 cycles
 SCF Done:  E(RB3LYP) =  -1011.98067662     A.U. after   10 cycles
 SCF Done:  E(RB3LYP) =  -1011.98068402     A.U. after    9 cycles
 SCF Done:  E(RB3LYP) =  -1011.98069203     A.U. after    8 cycles
 SCF Done:  E(RB3LYP) =  -1011.98069327     A.U. after    9 cycles
 SCF Done:  E(RB3LYP) =  -1011.98069500     A.U. after    9 cycles
 SCF Done:  E(RB3LYP) =  -1011.98069629     A.U. after    9 cycles
 SCF Done:  E(RB3LYP) =  -1011.98069666     A.U. after    7 cycles
 SCF Done:  E(RB3LYP) =  -1011.98069670     A.U. after    7 cycles
 Optimization completed.
    -- Stationary point found.
 Normal termination of Gaussian 16 at Thu Dec 10 10:02:46 2020.

 --------------------------------------------------------------------
 #N Geom=AllCheck Guess=TCheck SCRF=Check GenChk RB3LYP/6-31G(d) Freq
 --------------------------------------------------------------------

 Structure from the checkpoint file:  "JID_4506.chk"
 ------------------------------
 CID_63007868_JID_4506_neutraal
 ------------------------------
 Charge =  0 Multiplicity = 1

 SCF Done:  E(RB3LYP) =  -1011.98069670     A.U. after    1 cycles

  Exact polarizability: 148.215  -7.826 126.819  -6.194  -6.052 110.220
 Approx polarizability: 196.456  -4.049 178.925 -15.039 -15.849 175.357

                      1                      2                      3
                      A                      A                      A
 Frequencies --     25.2374                45.3129                46.8769
 Red. masses --      4.4828                 3.1551                 3.7548
 Frc consts  --      0.0017                 0.0038                 0.0049
 IR Inten    --      1.2142                 1.1098                 0.6827

                      4                      5                      6
                      A                      A                      A
 Frequencies --     57.4990                74.7750                80.2430
 Red. masses --      4.2217                 2.0925                 2.0171
 Frc consts  --      0.0082                 0.0069                 0.0077
 IR Inten    --      0.4269                 0.7053                 0.2770

                      7                      8                      9
                      A                      A                      A
 Frequencies --    106.8186               137.5444               140.6364
 Red. masses --      3.0304                 1.8309                 2.1464
 Frc consts  --      0.0204                 0.0204                 0.0250
 IR Inten    --      6.9308                 0.8615                 0.2527

                     10                     11                     12
                      A                      A                      A
 Frequencies --    193.0593               217.3252               235.9880
 Red. masses --      2.9687                 2.6687                 2.0686
 Frc consts  --      0.0652                 0.0743                 0.0679
 IR Inten    --      4.0739                 0.8990                 5.7903

                     13                     14                     15
                      A                      A                      A
 Frequencies --    276.9015               298.3594               321.6612
 Red. masses --      2.6193                 5.0774                 3.3719
 Frc consts  --      0.1183                 0.2663                 0.2056
 IR Inten    --      6.6096                 1.7589                 1.9538

                     16                     17                     18
                      A                      A                      A
 Frequencies --    390.6277               408.6410               441.8528
 Red. masses --      2.5402                 3.3186                 2.0423
 Frc consts  --      0.2284                 0.3265                 0.2349
 IR Inten    --      5.5300                20.3747                 0.2248

                     19                     20                     21
                      A                      A                      A
 Frequencies --    449.2398               503.5271               533.0669
 Red. masses --      2.4830                 6.1044                 2.6720
 Frc consts  --      0.2952                 0.9119                 0.4473
 IR Inten    --      4.3334                 9.7442                 8.8762

                     22                     23                     24
                      A                      A                      A
 Frequencies --    574.8854               629.9185               672.3803
 Red. masses --      3.2635                 4.4389                 3.6458
 Frc consts  --      0.6355                 1.0378                 0.9711
 IR Inten    --      8.2323                 2.9782                25.4914

                     25                     26                     27
                      A                      A                      A
 Frequencies --    701.5880               746.5995               784.8514
 Red. masses --      4.7072                 5.9754                 1.8282
 Frc consts  --      1.3652                 1.9624                 0.6635
 IR Inten    --      7.1176                 6.2503                10.9912

                     28                     29                     30
                      A                      A                      A
 Frequencies --    840.7237               867.0225               880.0230
 Red. masses --      3.4999                 2.8362                 1.5705
 Frc consts  --      1.4575                 1.2562                 0.7166
 IR Inten    --      2.6670                23.1077                86.5873

                     31                     32                     33
                      A                      A                      A
 Frequencies --    917.3255               926.9935               945.2143
 Red. masses --      2.2678                 2.5129                 1.4321
 Frc consts  --      1.1244                 1.2723                 0.7538
 IR Inten    --      6.1561                30.6588                15.3946

                     34                     35                     36
                      A                      A                      A
 Frequencies --   1004.7835              1014.0229              1035.4386
 Red. masses --      2.5285                 2.1531                 2.2582
 Frc consts  --      1.5041                 1.3044                 1.4265
 IR Inten    --      9.9276                20.6716                65.7426

                     37                     38                     39
                      A                      A                      A
 Frequencies --   1071.5724              1083.1061              1104.1698
 Red. masses --      1.5114                 1.8739                 2.1303
 Frc consts  --      1.0225                 1.2952                 1.5302
 IR Inten    --      2.5250                17.4760                 8.0572

                     40                     41                     42
                      A                      A                      A
 Frequencies --   1120.2246              1128.3429              1146.8717
 Red. masses --      2.4061                 2.8708                 1.7557
 Frc consts  --      1.7790                 2.1535                 1.3606
 IR Inten    --      7.0986                52.0465                50.6174

                     43                     44                     45
                      A                      A                      A
 Frequencies --   1162.5107              1166.5481              1190.9927
 Red. masses --      1.4794                 1.5993                 1.2912
 Frc consts  --      1.1779                 1.2823                 1.0791
 IR Inten    --     16.1838                22.8709                 2.0249

                     46                     47                     48
                      A                      A                      A
 Frequencies --   1230.3803              1234.2000              1244.5781
 Red. masses --      1.6080                 1.5662                 1.4384
 Frc consts  --      1.4342                 1.4057                 1.3128
 IR Inten    --     29.1059                89.4798                67.1706

                     49                     50                     51
                      A                      A                      A
 Frequencies --   1261.8962              1291.5600              1300.9438
 Red. masses --      1.4086                 2.0603                 1.6953
 Frc consts  --      1.3216                 2.0249                 1.6904
 IR Inten    --     14.0905                30.4333                19.9899

                     52                     53                     54
                      A                      A                      A
 Frequencies --   1306.0717              1339.2055              1391.2354
 Red. masses --      1.2395                 1.1911                 1.4535
 Frc consts  --      1.2457                 1.2586                 1.6575
 IR Inten    --      9.0509                13.5476                 5.3410

                     55                     56                     57
                      A                      A                      A
 Frequencies --   1403.2706              1404.2348              1415.7768
 Red. masses --      1.2248                 1.2800                 1.3534
 Frc consts  --      1.4210                 1.4871                 1.5984
 IR Inten    --     18.9928                16.5851                 2.9743

                     58                     59                     60
                      A                      A                      A
 Frequencies --   1437.0882              1452.4697              1478.6998
 Red. masses --      1.2582                 1.3186                 1.8591
 Frc consts  --      1.5310                 1.6389                 2.3951
 IR Inten    --      6.3168                47.3491               107.0156

                     61                     62                     63
                      A                      A                      A
 Frequencies --   1497.8519              1505.2085              1509.8283
 Red. masses --      1.1375                 1.0748                 1.1528
 Frc consts  --      1.5036                 1.4348                 1.5483
 IR Inten    --      0.9176                 2.3406                 3.0007

                     64                     65                     66
                      A                      A                      A
 Frequencies --   1521.1197              1525.3830              1528.2572
 Red. masses --      1.0677                 1.0993                 1.0884
 Frc consts  --      1.4555                 1.5070                 1.4977
 IR Inten    --     10.9685                 1.7378                 2.0333

                     67                     68                     69
                      A                      A                      A
 Frequencies --   1529.0166              1534.6019              1539.7226
 Red. masses --      1.0972                 1.0752                 1.0691
 Frc consts  --      1.5113                 1.4918                 1.4933
 IR Inten    --      6.7605                 7.2773                 6.2582

                     70                     71                     72
                      A                      A                      A
 Frequencies --   1542.0787              1548.4986              1750.2625
 Red. masses --      1.0936                 1.1589                10.0050
 Frc consts  --      1.5322                 1.6373                18.0583
 IR Inten    --      9.5942                16.3109               284.4478

                     73                     74                     75
                      A                      A                      A
 Frequencies --   3001.2703              3007.3399              3036.5615
 Red. masses --      1.0499                 1.0573                 1.0687
 Frc consts  --      5.5718                 5.6338                 5.8059
 IR Inten    --     38.9127                77.7237                24.6879

                     76                     77                     78
                      A                      A                      A
 Frequencies --   3040.9239              3052.0011              3059.4695
 Red. masses --      1.0452                 1.0899                 1.0754
 Frc consts  --      5.6945                 5.9814                 5.9306
 IR Inten    --     48.3235                53.0082                65.4525

                     79                     80                     81
                      A                      A                      A
 Frequencies --   3083.0755              3088.7217              3090.8573
 Red. masses --      1.1014                 1.0600                 1.1029
 Frc consts  --      6.1682                 5.9582                 6.2081
 IR Inten    --     11.5863                37.5283                39.8084

                     82                     83                     84
                      A                      A                      A
 Frequencies --   3101.8413              3105.9531              3109.4666
 Red. masses --      1.0860                 1.0587                 1.0947
 Frc consts  --      6.1562                 6.0177                 6.2359
 IR Inten    --      8.1322                12.2398                44.4441

                     85                     86                     87
                      A                      A                      A
 Frequencies --   3141.9163              3155.2405              3166.6588
 Red. masses --      1.0978                 1.1087                 1.1073
 Frc consts  --      6.3850                 6.5035                 6.5420
 IR Inten    --     22.8357                13.2835                 1.9020

                     88                     89                     90
                      A                      A                      A
 Frequencies --   3180.2030              3194.3384              3464.7780
 Red. masses --      1.0894                 1.0961                 1.0740
 Frc consts  --      6.4917                 6.5895                 7.5966
 IR Inten    --      4.4752                 1.3522                 0.8325

 - Thermochemistry -
 -------------------
 Temperature   298.150 Kelvin.  Pressure   1.00000 Atm.
 Atom     1 has atomic number  6 and mass  12.00000

 Molecular mass:   218.10890 amu.
 Principal axes and moments of inertia in atomic units:
                           1         2         3
     Eigenvalues --  2454.885233972.015445444.58682
           X            0.99993   0.01182   0.00164
           Y           -0.01181   0.99993  -0.00166
           Z           -0.00166   0.00164   1.00000
 This molecule is an asymmetric top.
 Rotational symmetry number  1.
 Warning -- assumption of classical behavior for rotation
           may cause significant error
 Rotational temperatures (Kelvin)      0.03528     0.02181     0.01591
 Rotational constants (GHZ):           0.73516     0.45436     0.33147
 Zero-point vibrational energy     732744.8 (Joules/Mol)
                                  175.13020 (Kcal/Mol)
 Warning -- explicit consideration of  22 degrees of freedom as
           vibrations may cause significant error
 Vibrational temperatures:     36.31    65.20    67.45    82.73   107.58
          (Kelvin)            115.45   153.69   197.90   202.34   277.77
                              312.68   339.53   398.40   429.27   462.80
                              562.03   587.94   635.73   646.36   724.46
                              766.96   827.13   906.31   967.41  1009.43
                             1074.19  1129.23  1209.61  1247.45  1266.16
                             1319.83  1333.74  1359.95  1445.66  1458.95
                             1489.77  1541.75  1558.35  1588.65  1611.75
                             1623.43  1650.09  1672.59  1678.40  1713.57
                             1770.24  1775.74  1790.67  1815.59  1858.27
                             1871.77  1879.15  1926.82  2001.68  2018.99
                             2020.38  2036.99  2067.65  2089.78  2127.52
                             2155.07  2165.66  2172.31  2188.55  2194.69
                             2198.82  2199.91  2207.95  2215.32  2218.71
                             2227.94  2518.24  4318.16  4326.89  4368.93
                             4375.21  4391.15  4401.89  4435.86  4443.98
                             4447.05  4462.86  4468.77  4473.83  4520.52
                             4539.69  4556.12  4575.60  4595.94  4985.04

 Zero-point correction=                           0.279088 (Hartree/Particle)
 Thermal correction to Energy=                    0.294939
 Thermal correction to Enthalpy=                  0.295883
 Thermal correction to Gibbs Free Energy=         0.233590
 Sum of electronic and zero-point Energies=          -1011.701609
 Sum of electronic and thermal Energies=             -1011.685758
 Sum of electronic and thermal Enthalpies=           -1011.684814
 Sum of electronic and thermal Free Energies=        -1011.747107

                     E (Thermal)             CV                S
                      KCal/Mol        Cal/Mol-Kelvin    Cal/Mol-Kelvin
 Total                  185.077             56.521            131.107
 Electronic               0.000              0.000              0.000
 Translational            0.889              2.981             42.043
 Rotational               0.889              2.981             32.340
 Vibrational            183.299             50.559             56.725
 Vibration     1          0.593              1.985              6.172
 Vibration     2          0.595              1.979              5.012
 Vibration     3          0.595              1.979              4.945
 Vibration     4          0.596              1.975              4.541
 Vibration     5          0.599              1.966              4.024
 Vibration     6          0.600              1.963              3.885
 Vibration     7          0.606              1.944              3.326
 Vibration     8          0.614              1.916              2.838
 Vibration     9          0.615              1.913              2.795
 Vibration    10          0.635              1.849              2.198
 Vibration    11          0.646              1.815              1.981
 Vibration    12          0.655              1.786              1.833
 Vibration    13          0.678              1.716              1.553
 Vibration    14          0.691              1.677              1.426
 Vibration    15          0.707              1.632              1.302
 Vibration    16          0.758              1.490              0.998
 Vibration    17          0.773              1.451              0.931
 Vibration    18          0.802              1.379              0.821
 Vibration    19          0.808              1.363              0.798
 Vibration    20          0.859              1.242              0.649
 Vibration    21          0.888              1.177              0.580
 Vibration    22          0.931              1.086              0.495

 Optimization completed.
    -- Stationary point found.
 Normal termination of Gaussian 16 at Thu Dec 10 10:12:12 2020.

 ----------------------------------------------------------------------
 # B3LYP/6-311++G(d,p) empiricaldispersion=gd3bj scf=xqc pop=npa geom=c
 heck
 ----------------------------------------------------------------------

 --------------------------------------
 CID_63007868_JID_4506_Energie_neutraal
 --------------------------------------
 Structure from the checkpoint file:  "JID_4506.chk"
 Charge =  0 Multiplicity = 1

 SCF Done:  E(RB3LYP) =  -1012.18746915     A.U. after   14 cycles
 Normal termination of Gaussian 16 at Thu Dec 10 10:15:57 2020.

 ----------------------------------------------------------------------
 # B3LYP/6-311++G(d,p) empiricaldispersion=gd3bj scf=xqc pop=npa geom=c
 heck
 ----------------------------------------------------------------------

 ------------------------------------
 CID_63007868_JID_4506_Energie_kation
 ------------------------------------
 Structure from the checkpoint file:  "JID_4506.chk"
 Charge =  1 Multiplicity = 2

 SCF Done:  E(UB3LYP) =  -1011.89348519     A.U. after   28 cycles
 Normal termination of Gaussian 16 at Thu Dec 10 10:27:43 2020.
 Gaussian 16:  ES64L-G16RevA.03 25-Dec-2016

 ----------------------------------------------------------------------
 # B3LYP/6-311++G(d,p) empiricaldispersion=gd3bj scf=xqc pop=npa geom=c
 heck
 ----------------------------------------------------------------------

 -----------------------------------
 CID_63007868_JID_4506_Energie_anion
 -----------------------------------
 Structure from the checkpoint file:  "JID_4506.chk"
 Charge = -1 Multiplicity = 2

                         Standard orientation:
 ---------------------------------------------------------------------
 Center     Atomic      Atomic             Coordinates (Angstroms)
 Number     Number       Type             X           Y           Z
 ---------------------------------------------------------------------
      1          6           0       -2.179217    2.603778    0.136894
      2          7           0       -1.282342    1.463224    0.267344
      3          6           0       -1.769010    0.347502    1.075605
      4          6           0       -2.868061   -0.476493    0.389371
      5          6           0       -2.413176   -1.143785   -0.908765
      6          8           0       -1.279940   -1.989121   -0.760172
      7          6           0       -1.530199   -3.183058   -0.044998
      8          6           0       -0.027228    1.556325   -0.279886
      9          8           0        0.353191    2.559313   -0.879657
     10          6           0        0.904451    0.346458   -0.113865
     11          6           0        2.119747    0.424015   -1.061129
     12         16           0        3.423344   -0.616709   -0.277645
     13          6           0        2.397603   -0.775263    1.296455
     14          7           0        1.385307    0.253397    1.275531
     15          1           0       -3.082827    2.333603   -0.422282
     16          1           0       -1.651952    3.393883   -0.394837
     17          1           0       -2.480807    2.962738    1.129121
     18          1           0       -0.926163   -0.282598    1.352940
     19          1           0       -2.165820    0.762646    2.011971
     20          1           0       -3.226258   -1.228379    1.103442
     21          1           0       -3.734150    0.156636    0.158404
     22          1           0       -3.247174   -1.711762   -1.351171
     23          1           0       -2.105873   -0.379948   -1.629830
     24          1           0       -1.747577   -3.000696    1.017291
     25          1           0       -2.371789   -3.741600   -0.483108
     26          1           0       -0.624046   -3.789223   -0.117689
     27          1           0        0.357073   -0.576046   -0.327410
     28          1           0        1.874009    0.030984   -2.050317
     29          1           0        2.460991    1.454339   -1.164434
     30          1           0        3.043346   -0.677995    2.170762
     31          1           0        1.924324   -1.760540    1.299394
     32          1           0        1.814963    1.146548    1.520490
 ---------------------------------------------------------------------

 SCF Done:  E(UB3LYP) =  -1012.17825786     A.U. after   31 cycles

 The electronic state is 2-A.
 Alpha  occ. eigenvalues --  -88.74103 -19.03306 -18.99589 -14.25051 -14.23160
 Alpha  occ. eigenvalues --  -10.17967 -10.13484 -10.12050 -10.12030 -10.11308
 Alpha  occ. eigenvalues --  -10.10464 -10.10289 -10.09939 -10.07190  -7.82731
 Alpha  occ. eigenvalues --   -5.79108  -5.78790  -5.78094  -0.94883  -0.94375
 Alpha  occ. eigenvalues --   -0.85167  -0.84103  -0.68681  -0.68169  -0.66298
 Alpha  occ. eigenvalues --   -0.62327  -0.60811  -0.56954  -0.53456  -0.50606
 Alpha  occ. eigenvalues --   -0.49583  -0.45837  -0.43757  -0.40653  -0.39332
 Alpha  occ. eigenvalues --   -0.38396  -0.37334  -0.36901  -0.36395  -0.35718
 Alpha  occ. eigenvalues --   -0.34957  -0.32827  -0.32289  -0.31246  -0.30804
 Alpha  occ. eigenvalues --   -0.29414  -0.28777  -0.28155  -0.27685  -0.27437
 Alpha  occ. eigenvalues --   -0.26068  -0.25286  -0.23468  -0.22065  -0.17237
 Alpha  occ. eigenvalues --   -0.16819  -0.16293  -0.15146  -0.13135   0.04108
 Alpha virt. eigenvalues --    0.06405   0.06735   0.07770   0.08327   0.08583
 Alpha virt. eigenvalues --    0.09413   0.09687   0.10147   0.10216   0.11033
 Alpha virt. eigenvalues --    0.11587   0.11821   0.12000   0.12684   0.12979

  Beta  occ. eigenvalues --  -88.74101 -19.03300 -18.99572 -14.25056 -14.23145
  Beta  occ. eigenvalues --  -10.17956 -10.13461 -10.12032 -10.12030 -10.11256
  Beta  occ. eigenvalues --  -10.10444 -10.10288 -10.09905 -10.07154  -7.82730
  Beta  occ. eigenvalues --   -5.79105  -5.78787  -5.78093  -0.94856  -0.94359
  Beta  occ. eigenvalues --   -0.85149  -0.84092  -0.68631  -0.68155  -0.66269
  Beta  occ. eigenvalues --   -0.62273  -0.60758  -0.56880  -0.53411  -0.50580
  Beta  occ. eigenvalues --   -0.49513  -0.45798  -0.43725  -0.40610  -0.39281
  Beta  occ. eigenvalues --   -0.38361  -0.37307  -0.36863  -0.36363  -0.35682
  Beta  occ. eigenvalues --   -0.34915  -0.32796  -0.32240  -0.31210  -0.30770
  Beta  occ. eigenvalues --   -0.29371  -0.28744  -0.28115  -0.27654  -0.27386
  Beta  occ. eigenvalues --   -0.26031  -0.25258  -0.23455  -0.22020  -0.17209
  Beta  occ. eigenvalues --   -0.16797  -0.16266  -0.15113  -0.13125
  Beta virt. eigenvalues --    0.06446   0.07128   0.07557   0.08253   0.08666
  Beta virt. eigenvalues --    0.09134   0.09827   0.09888   0.10418   0.10727
  Beta virt. eigenvalues --    0.11482   0.11762   0.12098   0.12329   0.12781

 Mulliken charges and spin densities:
               1          2
     1  C    0.898263  -1.209688
     2  N    0.024400   0.014590
     3  C   -0.862093   0.670835
     4  C    1.579690  -1.911160
     5  C   -0.576171   0.092813
     6  O   -0.099903   0.023592
     7  C    0.953859  -1.239090
     8  C   -0.103091  -0.095425
     9  O   -0.323412   0.009989
    10  C   -0.523170   0.040320
    11  C   -0.456027   0.020239
    12  S   -0.128938   0.037761
    13  C    0.079874  -0.424612
    14  N    0.097491   0.079389
    15  H   -0.116746   0.265064
    16  H    0.188136  -0.007163
    17  H   -0.273020   0.436284
    18  H    0.034969   0.274108
    19  H   -0.531925   0.721753
    20  H   -0.457441   0.650375
    21  H   -0.350304   0.507712
    22  H   -0.338472   0.488096
    23  H    0.054404   0.141218
    24  H   -0.372436   0.509937
    25  H   -0.268925   0.412472
    26  H   -0.163014   0.303999
    27  H    0.587403  -0.441089
    28  H    0.153985   0.038671
    29  H    0.234211   0.004414
    30  H   -0.152450   0.355602
    31  H    0.049608   0.126572
    32  H    0.161245   0.102423
 Sum of Mulliken charges =  -1.00000   1.00000

 Dipole moment (field-independent basis, Debye):
    X=              5.7046    Y=              2.0032    Z=             -2.4042  Tot=              6.5066
 Quadrupole moment (field-independent basis, Debye-Ang):
   XX=           -167.0669   YY=           -148.6726   ZZ=           -129.6129
   XY=             -6.1286   XZ=              8.9142   YZ=              1.9969

 Summary of Natural Population Analysis:

                                       Natural Population
                Natural  -----------------------------------------------
    Atom  No    Charge         Core      Valence    Rydberg      Total
 -----------------------------------------------------------------------
      C    1   -0.18138      0.99963     2.17376    0.00799     3.18138
      N    2   -0.24939      0.99964     2.73862    0.01113     3.74939
      C    3   -0.08951      0.99959     2.07717    0.01275     3.08951
      C    4   -0.21230      0.99962     2.20331    0.00937     3.21230
      C    5   -0.00951      0.99957     1.99663    0.01330     3.00951
      O    6   -0.30488      0.99989     3.29513    0.00986     4.30488
      C    7   -0.09919      0.99961     2.08992    0.00966     3.09919
      C    8    0.34625      0.99961     1.62995    0.02420     2.65375
      O    9   -0.32969      0.99988     3.32481    0.00500     4.32969
      C   10   -0.07170      0.99954     2.05900    0.01317     3.07170
      C   11   -0.24542      0.99958     2.23737    0.00847     3.24542
      S   12    0.04109      4.99968     2.94256    0.01667     7.95891
      C   13   -0.13685      0.99963     2.12354    0.01368     3.13685
      N   14   -0.32339      0.99974     2.81071    0.01294     3.82339
      H   15    0.09503      0.00000     0.40388    0.00109     0.40497
      H   16    0.11442      0.00000     0.38457    0.00101     0.38558
      H   17    0.09572      0.00000     0.40304    0.00124     0.40428
      H   18    0.11282      0.00000     0.38408    0.00310     0.38718
      H   19    0.09968      0.00000     0.39816    0.00216     0.40032
      H   20    0.10606      0.00000     0.39097    0.00297     0.39394
      H   21    0.10331      0.00000     0.39457    0.00212     0.39669
      H   22    0.08447      0.00000     0.41413    0.00140     0.41553
      H   23    0.08863      0.00000     0.40960    0.00177     0.41137
      H   24    0.08269      0.00000     0.41535    0.00196     0.41731
      H   25    0.08081      0.00000     0.41748    0.00171     0.41919
      H   26    0.09026      0.00000     0.40843    0.00131     0.40974
      H   27    0.12272      0.00000     0.37413    0.00315     0.37728
      H   28    0.10610      0.00000     0.39274    0.00117     0.39390
      H   29    0.11093      0.00000     0.38742    0.00165     0.38907
      H   30    0.10041      0.00000     0.39822    0.00137     0.39959
      H   31    0.09646      0.00000     0.40167    0.00187     0.40354
      H   32    0.17535      0.00000     0.32235    0.00230     0.32465
 =======================================================================
   * Total *   -0.00000     17.99520    40.80325    0.20155    59.00000

 Normal termination of Gaussian 16 at Thu Dec 10 10:39:23 2020.
