 Gaussian 16, Revision A.03,

 -----------------------------------------------------------
 # opt freq B3LYP/6-31G(d) empiricaldispersion=gd3bj scf=xqc
 -----------------------------------------------------------

 ------------------------------
 CID_78918677_JID_7529_neutraal
 ------------------------------
 Symbolic Z-matrix:
 Charge =  0 Multiplicity = 1

 SCF Done:  E(RB3LYP) =  -751.415510487     A.U. after   15 cycles
 SCF Done:  E(RB3LYP) =  -751.419720237     A.U. after   12 cycles
 SCF Done:  E(RB3LYP) =  -751.420669446     A.U. after   12 cycles
 SCF Done:  E(RB3LYP) =  -751.420836949     A.U. after   12 cycles
 SCF Done:  E(RB3LYP) =  -751.421566979     A.U. after   12 cycles
 SCF Done:  E(RB3LYP) =  -751.422162582     A.U. after   12 cycles
 SCF Done:  E(RB3LYP) =  -751.422829864     A.U. after   12 cycles
 SCF Done:  E(RB3LYP) =  -751.423383951     A.U. after   12 cycles
 SCF Done:  E(RB3LYP) =  -751.423356234     A.U. after   12 cycles
 SCF Done:  E(RB3LYP) =  -751.423749505     A.U. after   12 cycles
 SCF Done:  E(RB3LYP) =  -751.426924727     A.U. after   10 cycles
 SCF Done:  E(RB3LYP) =  -751.426928726     A.U. after    9 cycles
 SCF Done:  E(RB3LYP) =  -751.426930487     A.U. after    9 cycles
 SCF Done:  E(RB3LYP) =  -751.426930509     A.U. after    8 cycles
 SCF Done:  E(RB3LYP) =  -751.426930603     A.U. after    7 cycles
 Optimization completed.
    -- Stationary point found.
 Normal termination of Gaussian 16 at Mon Dec 14 13:45:41 2020.

 --------------------------------------------------------------------
 #N Geom=AllCheck Guess=TCheck SCRF=Check GenChk RB3LYP/6-31G(d) Freq
 --------------------------------------------------------------------

 Structure from the checkpoint file:  "JID_7529.chk"
 ------------------------------
 CID_78918677_JID_7529_neutraal
 ------------------------------
 Charge =  0 Multiplicity = 1

 SCF Done:  E(RB3LYP) =  -751.426930603     A.U. after    1 cycles

  Exact polarizability: 161.913   7.717 156.797  18.813  -7.892 139.145
 Approx polarizability: 208.183  10.533 249.401  41.566 -21.119 234.161

                      1                      2                      3
                      A                      A                      A
 Frequencies --     23.5614                29.8773                44.3212
 Red. masses --      3.3438                 3.9368                 3.4902
 Frc consts  --      0.0011                 0.0021                 0.0040
 IR Inten    --      0.4717                 0.1131                 0.3175

                      4                      5                      6
                      A                      A                      A
 Frequencies --     64.4001                97.6535               112.6120
 Red. masses --      1.8232                 2.7037                 3.6040
 Frc consts  --      0.0045                 0.0152                 0.0269
 IR Inten    --      1.1327                 1.7102                 3.9176

                      7                      8                      9
                      A                      A                      A
 Frequencies --    132.0028               180.4664               189.9270
 Red. masses --      3.2415                 4.6789                 2.7303
 Frc consts  --      0.0333                 0.0898                 0.0580
 IR Inten    --      3.0360                 0.7584                 1.6541

                     10                     11                     12
                      A                      A                      A
 Frequencies --    234.3915               240.0176               260.7858
 Red. masses --      3.5167                 1.0567                 2.2537
 Frc consts  --      0.1138                 0.0359                 0.0903
 IR Inten    --      0.6190                 0.0054                 2.9376

                     13                     14                     15
                      A                      A                      A
 Frequencies --    265.7146               287.7047               297.1366
 Red. masses --      3.3813                 3.3062                 1.3786
 Frc consts  --      0.1407                 0.1612                 0.0717
 IR Inten    --      2.7359                 7.3136                 0.4289

                     16                     17                     18
                      A                      A                      A
 Frequencies --    312.8645               326.6719               347.7827
 Red. masses --      2.5974                 1.1053                 1.1679
 Frc consts  --      0.1498                 0.0695                 0.0832
 IR Inten    --      0.3712                 0.7252               105.0768

                     19                     20                     21
                      A                      A                      A
 Frequencies --    372.5390               396.1979               406.3868
 Red. masses --      2.3321                 2.2765                 2.2767
 Frc consts  --      0.1907                 0.2105                 0.2215
 IR Inten    --      0.2748                 0.4848                 1.3859

                     22                     23                     24
                      A                      A                      A
 Frequencies --    438.7670               461.7435               465.2067
 Red. masses --      3.3626                 2.1908                 1.9637
 Frc consts  --      0.3814                 0.2752                 0.2504
 IR Inten    --      3.7996                 2.2495                 6.3035

                     25                     26                     27
                      A                      A                      A
 Frequencies --    477.3186               515.2831               552.6151
 Red. masses --      3.3934                 5.6454                 3.8441
 Frc consts  --      0.4555                 0.8832                 0.6917
 IR Inten    --      2.5008                10.8492                 0.6775

                     28                     29                     30
                      A                      A                      A
 Frequencies --    554.6739               592.9465               610.6634
 Red. masses --      3.1350                 6.5686                 4.6812
 Frc consts  --      0.5683                 1.3607                 1.0285
 IR Inten    --      7.5664                 1.4086                11.3549

                     31                     32                     33
                      A                      A                      A
 Frequencies --    711.1338               727.9203               754.0819
 Red. masses --      4.7440                 3.9663                 3.7212
 Frc consts  --      1.4135                 1.2382                 1.2467
 IR Inten    --      2.7270                 0.8632                 2.3357

                     34                     35                     36
                      A                      A                      A
 Frequencies --    763.8748               793.4046               830.8382
 Red. masses --      1.3949                 3.6925                 2.7284
 Frc consts  --      0.4796                 1.3695                 1.1097
 IR Inten    --     56.8569                 4.6341                 9.7939

                     37                     38                     39
                      A                      A                      A
 Frequencies --    854.1001               866.7273               908.4503
 Red. masses --      2.1148                 3.4725                 2.2275
 Frc consts  --      0.9090                 1.5370                 1.0831
 IR Inten    --      6.4525                 8.0833                 5.7683

                     40                     41                     42
                      A                      A                      A
 Frequencies --    917.0708               945.6966               952.5047
 Red. masses --      2.0747                 1.3476                 1.6290
 Frc consts  --      1.0280                 0.7101                 0.8708
 IR Inten    --      4.8049                 2.1285                 0.6867

                     43                     44                     45
                      A                      A                      A
 Frequencies --    955.9504               966.8735               975.9852
 Red. masses --      1.5423                 1.9339                 1.2137
 Frc consts  --      0.8304                 1.0652                 0.6812
 IR Inten    --      0.2657                 3.8043                 0.1011

                     46                     47                     48
                      A                      A                      A
 Frequencies --    984.6125              1026.2734              1065.3301
 Red. masses --      1.2963                 2.2210                 1.4418
 Frc consts  --      0.7405                 1.3782                 0.9641
 IR Inten    --      1.4693                10.0889                 1.6127

                     49                     50                     51
                      A                      A                      A
 Frequencies --   1077.7639              1080.8211              1106.8947
 Red. masses --      2.0918                 1.4955                 2.0576
 Frc consts  --      1.4316                 1.0293                 1.4854
 IR Inten    --      4.0330                 7.5087                41.0835

                     52                     53                     54
                      A                      A                      A
 Frequencies --   1145.8802              1154.9444              1184.0892
 Red. masses --      1.6102                 1.3542                 1.4423
 Frc consts  --      1.2457                 1.0643                 1.1915
 IR Inten    --     67.1750                10.8421                49.5636

                     55                     56                     57
                      A                      A                      A
 Frequencies --   1192.8455              1202.3062              1233.0716
 Red. masses --      1.1501                 1.3393                 2.0299
 Frc consts  --      0.9642                 1.1406                 1.8184
 IR Inten    --      3.8882                20.5941                29.3728

                     58                     59                     60
                      A                      A                      A
 Frequencies --   1246.8729              1253.7327              1289.0694
 Red. masses --      1.6628                 2.4222                 3.4196
 Frc consts  --      1.5232                 2.2432                 3.3479
 IR Inten    --     14.4360                 4.5542                37.1531

                     61                     62                     63
                      A                      A                      A
 Frequencies --   1294.8225              1296.4322              1321.3157
 Red. masses --      2.9205                 3.1467                 1.6768
 Frc consts  --      2.8849                 3.1161                 1.7249
 IR Inten    --     27.0216                26.0769                27.6915

                     64                     65                     66
                      A                      A                      A
 Frequencies --   1352.0109              1369.9004              1382.1285
 Red. masses --      1.8605                 1.6532                 2.5510
 Frc consts  --      2.0037                 1.8279                 2.8711
 IR Inten    --     61.2124                43.5729                38.5661

                     67                     68                     69
                      A                      A                      A
 Frequencies --   1411.5465              1426.1261              1430.5211
 Red. masses --      1.2740                 1.2613                 1.2446
 Frc consts  --      1.4956                 1.5115                 1.5007
 IR Inten    --      1.8906                 7.5858                 1.5717

                     70                     71                     72
                      A                      A                      A
 Frequencies --   1450.4325              1461.4122              1495.4979
 Red. masses --      2.0250                 1.2506                 1.1127
 Frc consts  --      2.5100                 1.5737                 1.4662
 IR Inten    --    102.9559                 6.3714                 3.6877

                     73                     74                     75
                      A                      A                      A
 Frequencies --   1504.6176              1509.5306              1511.1931
 Red. masses --      2.1667                 1.0799                 1.2661
 Frc consts  --      2.8900                 1.4498                 1.7036
 IR Inten    --     46.4892                 4.5406                16.5465

                     76                     77                     78
                      A                      A                      A
 Frequencies --   1516.0001              1519.1711              1521.4267
 Red. masses --      1.0787                 1.0649                 1.0587
 Frc consts  --      1.4606                 1.4480                 1.4438
 IR Inten    --     13.1691                 9.1745                 5.0246

                     79                     80                     81
                      A                      A                      A
 Frequencies --   1536.9360              1538.0641              1547.9204
 Red. masses --      1.0610                 1.0618                 1.0861
 Frc consts  --      1.4767                 1.4800                 1.5333
 IR Inten    --      9.5262                13.6712                 8.5592

                     82                     83                     84
                      A                      A                      A
 Frequencies --   1550.4062              1557.5612              1558.9054
 Red. masses --      1.2693                 1.0719                 1.8446
 Frc consts  --      1.7977                 1.5322                 2.6411
 IR Inten    --     31.0148                16.9761                16.2421

                     85                     86                     87
                      A                      A                      A
 Frequencies --   1655.8602              1670.0495              1745.9335
 Red. masses --      6.0164                 5.9976                 9.1313
 Frc consts  --      9.7193                 9.8557                16.3998
 IR Inten    --     13.4222                11.7068               219.3339

                     88                     89                     90
                      A                      A                      A
 Frequencies --   3020.2676              3034.6154              3038.2559
 Red. masses --      1.0584                 1.0360                 1.0393
 Frc consts  --      5.6882                 5.6213                 5.6523
 IR Inten    --     58.7941                26.9371                12.7032

                     91                     92                     93
                      A                      A                      A
 Frequencies --   3046.7487              3052.9313              3097.3744
 Red. masses --      1.0586                 1.0458                 1.0638
 Frc consts  --      5.7894                 5.7428                 6.0132
 IR Inten    --     70.5330                17.1526                10.8009

                     94                     95                     96
                      A                      A                      A
 Frequencies --   3098.0063              3102.9682              3111.1267
 Red. masses --      1.1009                 1.1008                 1.1018
 Frc consts  --      6.2253                 6.2447                 6.2835
 IR Inten    --      7.4740                49.2374                20.7958

                     97                     98                     99
                      A                      A                      A
 Frequencies --   3114.7476              3120.2902              3131.5086
 Red. masses --      1.1005                 1.0982                 1.0964
 Frc consts  --      6.2903                 6.2995                 6.3348
 IR Inten    --      9.9547                72.2437                 6.0567

                    100                    101                    102
                      A                      A                      A
 Frequencies --   3141.6819              3144.1072              3155.2716
 Red. masses --      1.0794                 1.1016                 1.1002
 Frc consts  --      6.2769                 6.4162                 6.4538
 IR Inten    --      9.1371                21.2843                 6.4606

                    103                    104                    105
                      A                      A                      A
 Frequencies --   3163.0762              3192.8951              3193.7626
 Red. masses --      1.0887                 1.1013                 1.0874
 Frc consts  --      6.4180                 6.6147                 6.5348
 IR Inten    --     18.5151                 0.9382                 5.7347

                    106                    107                    108
                      A                      A                      A
 Frequencies --   3203.8558              3216.1930              3755.8722
 Red. masses --      1.0917                 1.0970                 1.0660
 Frc consts  --      6.6023                 6.6858                 8.8597
 IR Inten    --     11.7495                16.0294                44.3822

 - Thermochemistry -
 -------------------
 Temperature   298.150 Kelvin.  Pressure   1.00000 Atm.
 Atom     1 has atomic number  6 and mass  12.00000

 Molecular mass:   235.15723 amu.
 Principal axes and moments of inertia in atomic units:
                           1         2         3
     Eigenvalues --  2436.703966024.553536433.48815
           X            0.99994  -0.00869  -0.00698
           Y            0.00839   0.99910  -0.04146
           Z            0.00734   0.04140   0.99912
 This molecule is an asymmetric top.
 Rotational symmetry number  1.
 Warning -- assumption of classical behavior for rotation
           may cause significant error
 Rotational temperatures (Kelvin)      0.03555     0.01438     0.01346
 Rotational constants (GHZ):           0.74065     0.29956     0.28052
 Zero-point vibrational energy     871674.7 (Joules/Mol)
                                  208.33526 (Kcal/Mol)
 Warning -- explicit consideration of  30 degrees of freedom as
           vibrations may cause significant error
 Vibrational temperatures:     33.90    42.99    63.77    92.66   140.50
          (Kelvin)            162.02   189.92   259.65   273.26   337.24
                              345.33   375.21   382.30   413.94   427.51
                              450.14   470.01   500.38   536.00   570.04
                              584.70   631.29   664.35   669.33   686.76
                              741.38   795.09   798.05   853.12   878.61
                             1023.16  1047.31  1084.96  1099.05  1141.53
                             1195.39  1228.86  1247.03  1307.06  1319.46
                             1360.65  1370.44  1375.40  1391.12  1404.23
                             1416.64  1476.58  1532.77  1550.66  1555.06
                             1592.57  1648.67  1661.71  1703.64  1716.24
                             1729.85  1774.12  1793.97  1803.84  1854.68
                             1862.96  1865.28  1901.08  1945.24  1970.98
                             1988.57  2030.90  2051.88  2058.20  2086.85
                             2102.65  2151.69  2164.81  2171.88  2174.27
                             2181.19  2185.75  2188.99  2211.31  2212.93
                             2227.11  2230.69  2240.98  2242.92  2382.41
                             2402.83  2512.01  4345.49  4366.13  4371.37
                             4383.59  4392.49  4456.43  4457.34  4464.48
                             4476.22  4481.43  4489.40  4505.54  4520.18
                             4523.67  4539.73  4550.96  4593.86  4595.11
                             4609.63  4627.38  5403.86

 Zero-point correction=                           0.332003 (Hartree/Particle)
 Thermal correction to Energy=                    0.349858
 Thermal correction to Enthalpy=                  0.350802
 Thermal correction to Gibbs Free Energy=         0.285731
 Sum of electronic and zero-point Energies=           -751.094927
 Sum of electronic and thermal Energies=              -751.077073
 Sum of electronic and thermal Enthalpies=            -751.076129
 Sum of electronic and thermal Free Energies=         -751.141200

                     E (Thermal)             CV                S
                      KCal/Mol        Cal/Mol-Kelvin    Cal/Mol-Kelvin
 Total                  219.539             68.503            136.953
 Electronic               0.000              0.000              0.000
 Translational            0.889              2.981             42.267
 Rotational               0.889              2.981             32.912
 Vibrational            217.762             62.541             61.774
 Vibration     1          0.593              1.985              6.309
 Vibration     2          0.594              1.984              5.838
 Vibration     3          0.595              1.980              5.056
 Vibration     4          0.597              1.971              4.318
 Vibration     5          0.603              1.951              3.501
 Vibration     6          0.607              1.939              3.223
 Vibration     7          0.612              1.921              2.917
 Vibration     8          0.629              1.866              2.324
 Vibration     9          0.633              1.854              2.229
 Vibration    10          0.654              1.788              1.845
 Vibration    11          0.657              1.779              1.803
 Vibration    12          0.669              1.744              1.657
 Vibration    13          0.672              1.736              1.624
 Vibration    14          0.685              1.697              1.487
 Vibration    15          0.691              1.679              1.433
 Vibration    16          0.701              1.649              1.347
 Vibration    17          0.710              1.622              1.276
 Vibration    18          0.725              1.580              1.176
 Vibration    19          0.744              1.529              1.069
 Vibration    20          0.763              1.478              0.977
 Vibration    21          0.771              1.456              0.939
 Vibration    22          0.799              1.386              0.830
 Vibration    23          0.819              1.335              0.761
 Vibration    24          0.823              1.327              0.751
 Vibration    25          0.834              1.300              0.717
 Vibration    26          0.870              1.216              0.621
 Vibration    27          0.908              1.134              0.539
 Vibration    28          0.910              1.129              0.535
 Vibration    29          0.950              1.047              0.462
 Vibration    30          0.970              1.009              0.432

 Optimization completed.
    -- Stationary point found.
 Normal termination of Gaussian 16 at Mon Dec 14 14:01:21 2020.

 ----------------------------------------------------------------------
 # B3LYP/6-311++G(d,p) empiricaldispersion=gd3bj scf=xqc pop=npa geom=c
 heck
 ----------------------------------------------------------------------

 --------------------------------------
 CID_78918677_JID_7529_Energie_neutraal
 --------------------------------------
 Structure from the checkpoint file:  "JID_7529.chk"
 Charge =  0 Multiplicity = 1

 SCF Done:  E(RB3LYP) =  -751.642565744     A.U. after   16 cycles
 Normal termination of Gaussian 16 at Mon Dec 14 14:10:04 2020.

 ----------------------------------------------------------------------
 # B3LYP/6-311++G(d,p) empiricaldispersion=gd3bj scf=xqc pop=npa geom=c
 heck
 ----------------------------------------------------------------------

 ------------------------------------
 CID_78918677_JID_7529_Energie_kation
 ------------------------------------
 Structure from the checkpoint file:  "JID_7529.chk"
 Charge =  1 Multiplicity = 2

 SCF Done:  E(UB3LYP) =  -751.349449013     A.U. after   30 cycles
 Normal termination of Gaussian 16 at Mon Dec 14 14:32:44 2020.
 Gaussian 16:  ES64L-G16RevA.03 25-Dec-2016

 ----------------------------------------------------------------------
 # B3LYP/6-311++G(d,p) empiricaldispersion=gd3bj scf=xqc pop=npa geom=c
 heck
 ----------------------------------------------------------------------

 -----------------------------------
 CID_78918677_JID_7529_Energie_anion
 -----------------------------------
 Structure from the checkpoint file:  "JID_7529.chk"
 Charge = -1 Multiplicity = 2

                         Standard orientation:
 ---------------------------------------------------------------------
 Center     Atomic      Atomic             Coordinates (Angstroms)
 Number     Number       Type             X           Y           Z
 ---------------------------------------------------------------------
      1          6           0       -2.438327    0.764274    1.888178
      2          6           0       -2.851439    0.600090    0.416648
      3          6           0       -4.374187    0.775452    0.291438
      4          6           0       -2.136510    1.668940   -0.425525
      5          6           0       -2.517980   -0.819684   -0.104911
      6          7           0       -1.097918   -1.177007   -0.080149
      7          6           0       -0.614263   -1.932957    1.070297
      8          6           0       -0.380252   -1.030260   -1.238553
      9          8           0       -0.872121   -0.552504   -2.259977
     10          6           0        1.108168   -1.384276   -1.207421
     11          6           0        1.896541   -0.238276   -0.599809
     12          6           0        1.772880    1.054013   -1.121536
     13          6           0        2.472042    2.130717   -0.578269
     14          6           0        3.318327    1.921394    0.510639
     15          6           0        3.457200    0.643187    1.047627
     16          6           0        2.749500   -0.428457    0.496406
     17          8           0        2.853971   -1.700813    1.010213
     18          1           0       -2.737638    1.751204    2.260240
     19          1           0       -1.352305    0.685018    2.005497
     20          1           0       -2.913953    0.010425    2.528824
     21          1           0       -4.679763    1.766678    0.645436
     22          1           0       -4.698384    0.676873   -0.751268
     23          1           0       -4.913734    0.027049    0.885635
     24          1           0       -1.050060    1.586686   -0.323541
     25          1           0       -2.378781    1.567307   -1.486899
     26          1           0       -2.431542    2.671147   -0.091049
     27          1           0       -3.060587   -1.561764    0.494370
     28          1           0       -2.857103   -0.904871   -1.139631
     29          1           0       -0.804727   -3.010577    0.956770
     30          1           0        0.452557   -1.782973    1.230014
     31          1           0       -1.135242   -1.590666    1.965212
     32          1           0        1.316148   -2.315307   -0.679301
     33          1           0        1.394349   -1.519775   -2.253743
     34          1           0        1.102450    1.201992   -1.963213
     35          1           0        2.356509    3.123468   -1.001944
     36          1           0        3.871727    2.748323    0.946111
     37          1           0        4.114506    0.472478    1.898608
     38          1           0        3.465994   -1.682084    1.761784
 ---------------------------------------------------------------------

 SCF Done:  E(UB3LYP) =  -751.634233327     A.U. after   33 cycles
 SCF Done:  E(UB3LYP) =  -751.634233327     a.u. after    1 cycles

 The electronic state is 2-A.
 Alpha  occ. eigenvalues --  -19.05405 -18.99211 -14.24945 -10.17667 -10.14216
 Alpha  occ. eigenvalues --  -10.10710 -10.10418 -10.09548 -10.09189 -10.08755
 Alpha  occ. eigenvalues --  -10.08483 -10.08139 -10.07887 -10.07863 -10.07351
 Alpha  occ. eigenvalues --  -10.06685 -10.06007  -0.96385  -0.94444  -0.84244
 Alpha  occ. eigenvalues --   -0.76545  -0.73203  -0.69402  -0.64808  -0.62811
 Alpha  occ. eigenvalues --   -0.61967  -0.60011  -0.59297  -0.58159  -0.53472
 Alpha  occ. eigenvalues --   -0.50098  -0.46956  -0.44883  -0.43661  -0.40844
 Alpha  occ. eigenvalues --   -0.40631  -0.38921  -0.38708  -0.37044  -0.35554
 Alpha  occ. eigenvalues --   -0.35051  -0.34537  -0.33815  -0.32968  -0.32208
 Alpha  occ. eigenvalues --   -0.31640  -0.31070  -0.30482  -0.30274  -0.29406
 Alpha  occ. eigenvalues --   -0.28882  -0.28320  -0.27483  -0.26951  -0.26396
 Alpha  occ. eigenvalues --   -0.25132  -0.24606  -0.24189  -0.23819  -0.23492
 Alpha  occ. eigenvalues --   -0.16953  -0.15521  -0.15058  -0.13378   0.04036
 Alpha virt. eigenvalues --    0.05761   0.06803   0.07113   0.07585   0.08233
 Alpha virt. eigenvalues --    0.08349   0.08784   0.09226   0.09829   0.09954
 Alpha virt. eigenvalues --    0.10233   0.10926   0.11164   0.11693   0.12122

  Beta  occ. eigenvalues --  -19.05336 -18.99210 -14.24942 -10.17666 -10.14215
  Beta  occ. eigenvalues --  -10.10700 -10.10390 -10.09547 -10.09183 -10.08750
  Beta  occ. eigenvalues --  -10.08477 -10.08139 -10.07860 -10.07848 -10.07334
  Beta  occ. eigenvalues --  -10.06663 -10.05999  -0.96256  -0.94441  -0.84236
  Beta  occ. eigenvalues --   -0.76519  -0.73192  -0.69382  -0.64768  -0.62784
  Beta  occ. eigenvalues --   -0.61932  -0.59979  -0.59273  -0.58134  -0.53392
  Beta  occ. eigenvalues --   -0.50070  -0.46929  -0.44792  -0.43627  -0.40813
  Beta  occ. eigenvalues --   -0.40595  -0.38890  -0.38689  -0.37014  -0.35535
  Beta  occ. eigenvalues --   -0.35028  -0.34503  -0.33781  -0.32935  -0.32184
  Beta  occ. eigenvalues --   -0.31618  -0.31053  -0.30452  -0.30248  -0.29379
  Beta  occ. eigenvalues --   -0.28867  -0.28299  -0.27466  -0.26928  -0.26366
  Beta  occ. eigenvalues --   -0.25104  -0.24579  -0.24169  -0.23802  -0.23472
  Beta  occ. eigenvalues --   -0.16946  -0.15510  -0.15046  -0.13355
  Beta virt. eigenvalues --    0.05992   0.06872   0.07163   0.07421   0.08307
  Beta virt. eigenvalues --    0.08539   0.08583   0.08854   0.09616   0.09842
  Beta virt. eigenvalues --    0.10073   0.10640   0.11111   0.11213   0.11831

 Mulliken charges and spin densities:
               1          2
     1  C    0.269405  -0.867980
     2  C   -0.323844   1.103783
     3  C   -0.236931  -0.350399
     4  C   -0.371194  -0.215450
     5  C   -0.142260  -0.487878
     6  N    0.195071   0.075079
     7  C    0.308707  -0.664156
     8  C   -0.264205   0.190996
     9  O   -0.271236   0.003533
    10  C    0.583069  -1.368688
    11  C    2.281004  -1.216938
    12  C   -0.306402   0.078852
    13  C   -0.910000   0.571104
    14  C    0.745374  -0.983845
    15  C   -1.026510   0.729065
    16  C   -0.517678  -0.004424
    17  O   -0.237013   0.025497
    18  H    0.033650   0.115562
    19  H    0.149433  -0.007694
    20  H   -0.130017   0.287009
    21  H    0.013364   0.123408
    22  H    0.049532   0.081321
    23  H   -0.097228   0.231214
    24  H    0.169178  -0.069892
    25  H    0.136228   0.046678
    26  H    0.067419   0.064869
    27  H    0.006891   0.176688
    28  H    0.166170   0.054533
    29  H   -0.209708   0.376418
    30  H    0.203573  -0.012765
    31  H   -0.232636   0.390690
    32  H    0.302012  -0.075551
    33  H    0.139159   0.064253
    34  H    0.200762  -0.006339
    35  H    0.023005   0.135485
    36  H    0.023101   0.136872
    37  H   -1.214081   1.390761
    38  H   -0.575168   0.878326
 Sum of Mulliken charges =  -1.00000   1.00000

 Dipole moment (field-independent basis, Debye):
    X=             -4.8722    Y=              2.7910    Z=             -5.5623  Tot=              7.9037
 Quadrupole moment (field-independent basis, Debye-Ang):
   XX=           -188.7361   YY=           -138.7931   ZZ=           -156.8881
   XY=              7.4910   XZ=            -19.0667   YZ=              7.6734

 Summary of Natural Population Analysis:

                                       Natural Population
                Natural  -----------------------------------------------
    Atom  No    Charge         Core      Valence    Rydberg      Total
 -----------------------------------------------------------------------
      C    1   -0.28820      0.99962     2.28124    0.00734     3.28820
      C    2   -0.05251      0.99958     2.04293    0.01000     3.05251
      C    3   -0.28321      0.99963     2.27779    0.00580     3.28321
      C    4   -0.28647      0.99962     2.28071    0.00614     3.28647
      C    5   -0.08244      0.99955     2.07021    0.01268     3.08244
      N    6   -0.25762      0.99963     2.74707    0.01092     3.75762
      C    7   -0.17944      0.99962     2.17201    0.00780     3.17944
      C    8    0.35284      0.99963     1.62371    0.02382     2.64716
      O    9   -0.33351      0.99988     3.32854    0.00509     4.33351
      C   10   -0.23937      0.99956     2.23065    0.00916     3.23937
      C   11   -0.04155      0.99945     2.03138    0.01071     3.04155
      C   12   -0.09503      0.99952     2.08653    0.00898     3.09503
      C   13   -0.11709      0.99956     2.10765    0.00989     3.11709
      C   14   -0.09455      0.99957     2.08500    0.00998     3.09455
      C   15   -0.12951      0.99951     2.11907    0.01092     3.12951
      C   16    0.15937      0.99932     1.82723    0.01409     2.84063
      O   17   -0.34695      0.99988     3.33937    0.00770     4.34695
      H   18    0.09952      0.00000     0.39969    0.00080     0.40048
      H   19    0.10414      0.00000     0.39441    0.00145     0.39586
      H   20    0.09860      0.00000     0.40038    0.00102     0.40140
      H   21    0.09962      0.00000     0.39956    0.00082     0.40038
      H   22    0.09893      0.00000     0.40023    0.00085     0.40107
      H   23    0.09919      0.00000     0.39989    0.00092     0.40081
      H   24    0.10605      0.00000     0.39298    0.00097     0.39395
      H   25    0.10561      0.00000     0.39364    0.00076     0.39439
      H   26    0.09483      0.00000     0.40440    0.00077     0.40517
      H   27    0.09565      0.00000     0.40329    0.00106     0.40435
      H   28    0.11091      0.00000     0.38793    0.00116     0.38909
      H   29    0.09070      0.00000     0.40820    0.00110     0.40930
      H   30    0.11239      0.00000     0.38543    0.00218     0.38761
      H   31    0.10172      0.00000     0.39700    0.00128     0.39828
      H   32    0.11875      0.00000     0.37974    0.00152     0.38125
      H   33    0.11466      0.00000     0.38436    0.00098     0.38534
      H   34    0.10822      0.00000     0.39035    0.00143     0.39178
      H   35    0.09904      0.00000     0.40020    0.00076     0.40096
      H   36    0.10045      0.00000     0.39874    0.00082     0.39955
      H   37    0.10834      0.00000     0.38781    0.00384     0.39166
      H   38    0.24796      0.00000     0.22433    0.02771     0.25204
 =======================================================================
   * Total *    0.00000     16.99314    46.78362    0.22324    64.00000

 Normal termination of Gaussian 16 at Mon Dec 14 14:56:57 2020.
