 Gaussian 16, Revision A.03,

 -----------------------------------------------------------
 # opt freq B3LYP/6-31G(d) empiricaldispersion=gd3bj scf=xqc
 -----------------------------------------------------------

 ------------------------------
 CID_69583992_JID_3453_neutraal
 ------------------------------
 Symbolic Z-matrix:
 Charge =  0 Multiplicity = 1

 SCF Done:  E(RB3LYP) =  -637.176616071     A.U. after   16 cycles
 SCF Done:  E(RB3LYP) =  -637.186280364     A.U. after   13 cycles
 SCF Done:  E(RB3LYP) =  -637.187417224     A.U. after   13 cycles
 SCF Done:  E(RB3LYP) =  -637.187792512     A.U. after   13 cycles
 SCF Done:  E(RB3LYP) =  -637.188346693     A.U. after   13 cycles
 SCF Done:  E(RB3LYP) =  -637.188192931     A.U. after   13 cycles
 SCF Done:  E(RB3LYP) =  -637.189170277     A.U. after   12 cycles
 SCF Done:  E(RB3LYP) =  -637.190921275     A.U. after   14 cycles
 SCF Done:  E(RB3LYP) =  -637.191329076     A.U. after   14 cycles
 SCF Done:  E(RB3LYP) =  -637.191925951     A.U. after   13 cycles
 SCF Done:  E(RB3LYP) =  -637.192133893     A.U. after    9 cycles
 SCF Done:  E(RB3LYP) =  -637.192134792     A.U. after    9 cycles
 SCF Done:  E(RB3LYP) =  -637.192135446     A.U. after    8 cycles
 SCF Done:  E(RB3LYP) =  -637.192135997     A.U. after    8 cycles
 SCF Done:  E(RB3LYP) =  -637.192136399     A.U. after    8 cycles
 SCF Done:  E(RB3LYP) =  -637.192136540     A.U. after    8 cycles
 Optimization completed.
    -- Stationary point found.
 Normal termination of Gaussian 16 at Wed Dec  9 23:20:59 2020.

 --------------------------------------------------------------------
 #N Geom=AllCheck Guess=TCheck SCRF=Check GenChk RB3LYP/6-31G(d) Freq
 --------------------------------------------------------------------

 Structure from the checkpoint file:  "JID_3453.chk"
 ------------------------------
 CID_69583992_JID_3453_neutraal
 ------------------------------
 Charge =  0 Multiplicity = 1

 SCF Done:  E(RB3LYP) =  -637.192136540     A.U. after    1 cycles

  Exact polarizability: 153.748 -10.161 103.157   1.583  -0.359  52.675
 Approx polarizability: 242.119 -25.550 162.776   3.261  -4.934  82.863

                      1                      2                      3
                      A                      A                      A
 Frequencies --     61.6210                84.7087               157.9519
 Red. masses --      5.4455                 6.7290                 5.0773
 Frc consts  --      0.0122                 0.0284                 0.0746
 IR Inten    --      1.6889                 0.1293                 3.1705

                      4                      5                      6
                      A                      A                      A
 Frequencies --    162.8821               227.9329               272.9508
 Red. masses --      3.9891                 1.2861                 3.7709
 Frc consts  --      0.0624                 0.0394                 0.1655
 IR Inten    --      0.6760                43.7823                21.2812

                      7                      8                      9
                      A                      A                      A
 Frequencies --    278.0134               294.2937               331.9156
 Red. masses --      1.4038                 2.8416                 2.8765
 Frc consts  --      0.0639                 0.1450                 0.1867
 IR Inten    --     19.0141                 0.1291                 2.7926

                     10                     11                     12
                      A                      A                      A
 Frequencies --    366.9463               416.3937               444.5760
 Red. masses --      7.6921                 6.3246                 5.1343
 Frc consts  --      0.6102                 0.6461                 0.5979
 IR Inten    --      3.8413                 0.5177                35.9623

                     13                     14                     15
                      A                      A                      A
 Frequencies --    469.3099               492.7446               521.2193
 Red. masses --      3.0636                 1.7788                 2.3102
 Frc consts  --      0.3976                 0.2545                 0.3698
 IR Inten    --     31.1942                51.9553                61.5394

                     16                     17                     18
                      A                      A                      A
 Frequencies --    543.2811               568.6052               584.6234
 Red. masses --      1.6355                 4.7513                 5.7390
 Frc consts  --      0.2844                 0.9051                 1.1557
 IR Inten    --     78.4037                53.3997                 0.4638

                     19                     20                     21
                      A                      A                      A
 Frequencies --    613.8141               645.2080               670.5074
 Red. masses --      3.8037                 2.0246                 3.8620
 Frc consts  --      0.8444                 0.4966                 1.0230
 IR Inten    --    146.6161               104.0150                17.0915

                     22                     23                     24
                      A                      A                      A
 Frequencies --    698.0014               761.4519               771.8630
 Red. masses --      4.7171                 2.4550                 1.5770
 Frc consts  --      1.3541                 0.8387                 0.5536
 IR Inten    --     17.9043               257.5682               198.4642

                     25                     26                     27
                      A                      A                      A
 Frequencies --    813.8940               882.6271               918.4593
 Red. masses --      5.2972                 5.2500                 4.1766
 Frc consts  --      2.0674                 2.4097                 2.0758
 IR Inten    --     20.6260                 1.8220                 5.7310

                     28                     29                     30
                      A                      A                      A
 Frequencies --    952.8737               969.1364              1008.6514
 Red. masses --      3.4655                 1.8718                 4.0039
 Frc consts  --      1.8539                 1.0358                 2.4000
 IR Inten    --     45.2593                19.8743                20.4084

                     31                     32                     33
                      A                      A                      A
 Frequencies --   1064.4976              1121.1002              1198.3011
 Red. masses --      1.9457                 2.3985                 1.8313
 Frc consts  --      1.2990                 1.7762                 1.5494
 IR Inten    --     17.7106                40.8003                 5.8420

                     34                     35                     36
                      A                      A                      A
 Frequencies --   1248.7297              1277.9634              1302.7137
 Red. masses --      2.6529                 2.1120                 1.5261
 Frc consts  --      2.4373                 2.0322                 1.5259
 IR Inten    --      1.2209                57.8956                56.0147

                     37                     38                     39
                      A                      A                      A
 Frequencies --   1335.7254              1344.9878              1359.7184
 Red. masses --      1.6964                 1.8184                 1.8748
 Frc consts  --      1.7832                 1.9381                 2.0423
 IR Inten    --     12.2577                45.8768                73.5110

                     40                     41                     42
                      A                      A                      A
 Frequencies --   1366.4689              1422.9833              1438.8528
 Red. masses --      1.6637                 4.9643                 2.2285
 Frc consts  --      1.8304                 5.9225                 2.7182
 IR Inten    --     19.5732                14.3300                60.6463

                     43                     44                     45
                      A                      A                      A
 Frequencies --   1526.5098              1668.1245              1671.0752
 Red. masses --      2.5244                 1.1894                 1.1319
 Frc consts  --      3.4659                 1.9499                 1.8622
 IR Inten    --    313.8777                58.5343                19.3739

                     46                     47                     48
                      A                      A                      A
 Frequencies --   1712.4463              1757.0433              1799.5628
 Red. masses --      9.6870                 5.7102                 9.2666
 Frc consts  --     16.7368                10.3864                17.6809
 IR Inten    --    125.7939               116.7566               608.2273

                     49                     50                     51
                      A                      A                      A
 Frequencies --   1806.7962              2933.5668              3150.4702
 Red. masses --      7.7423                 1.0810                 1.0909
 Frc consts  --     14.8916                 5.4811                 6.3793
 IR Inten    --     48.5556                62.2469                30.9711

                     52                     53                     54
                      A                      A                      A
 Frequencies --   3491.0841              3539.4181              3575.3863
 Red. masses --      1.0530                 1.0488                 1.0763
 Frc consts  --      7.5613                 7.7413                 8.1064
 IR Inten    --      4.0952                18.3075                16.5642

                     55                     56                     57
                      A                      A                      A
 Frequencies --   3583.8636              3609.6337              3645.9296
 Red. masses --      1.0762                 1.0903                 1.0971
 Frc consts  --      8.1440                 8.3701                 8.5921
 IR Inten    --     22.8011                 7.9573                20.5210

 - Thermochemistry -
 -------------------
 Temperature   298.150 Kelvin.  Pressure   1.00000 Atm.
 Atom     1 has atomic number  6 and mass  12.00000

 Molecular mass:   180.07596 amu.
 Principal axes and moments of inertia in atomic units:
                           1         2         3
     Eigenvalues --  1150.558472940.599073965.19112
           X            0.99999  -0.00070   0.00465
           Y            0.00069   1.00000   0.00247
           Z           -0.00465  -0.00247   0.99999
 This molecule is an asymmetric top.
 Rotational symmetry number  1.
 Warning -- assumption of classical behavior for rotation
           may cause significant error
 Rotational temperatures (Kelvin)      0.07528     0.02945     0.02184
 Rotational constants (GHZ):           1.56858     0.61373     0.45515
 Zero-point vibrational energy     424311.9 (Joules/Mol)
                                  101.41298 (Kcal/Mol)
 Warning -- explicit consideration of  19 degrees of freedom as
           vibrations may cause significant error
 Vibrational temperatures:     88.66   121.88   227.26   234.35   327.94
          (Kelvin)            392.72   400.00   423.42   477.55   527.95
                              599.10   639.65   675.23   708.95   749.92
                              781.66   818.10   841.14   883.14   928.31
                              964.71  1004.27  1095.56  1110.54  1171.01
                             1269.90  1321.46  1370.97  1394.37  1451.22
                             1531.57  1613.01  1724.09  1796.64  1838.70
                             1874.31  1921.81  1935.14  1956.33  1966.04
                             2047.36  2070.19  2196.31  2400.06  2404.30
                             2463.83  2527.99  2589.17  2599.58  4220.75
                             4532.82  5022.89  5092.43  5144.18  5156.38
                             5193.46  5245.68

 Zero-point correction=                           0.161612 (Hartree/Particle)
 Thermal correction to Energy=                    0.172813
 Thermal correction to Enthalpy=                  0.173757
 Thermal correction to Gibbs Free Energy=         0.124845
 Sum of electronic and zero-point Energies=           -637.030525
 Sum of electronic and thermal Energies=              -637.019324
 Sum of electronic and thermal Enthalpies=            -637.018380
 Sum of electronic and thermal Free Energies=         -637.067291

                     E (Thermal)             CV                S
                      KCal/Mol        Cal/Mol-Kelvin    Cal/Mol-Kelvin
 Total                  108.442             43.791            102.943
 Electronic               0.000              0.000              0.000
 Translational            0.889              2.981             41.471
 Rotational               0.889              2.981             30.973
 Vibrational            106.664             37.829             30.498
 Vibration     1          0.597              1.973              4.405
 Vibration     2          0.601              1.960              3.779
 Vibration     3          0.621              1.894              2.574
 Vibration     4          0.623              1.888              2.516
 Vibration     5          0.651              1.798              1.895
 Vibration     6          0.676              1.723              1.577
 Vibration     7          0.679              1.714              1.546
 Vibration     8          0.689              1.684              1.449
 Vibration     9          0.714              1.612              1.251
 Vibration    10          0.740              1.540              1.093
 Vibration    11          0.780              1.435              0.904
 Vibration    12          0.804              1.373              0.812
 Vibration    13          0.826              1.318              0.739
 Vibration    14          0.848              1.266              0.677
 Vibration    15          0.876              1.203              0.607
 Vibration    16          0.898              1.154              0.558
 Vibration    17          0.925              1.099              0.507
 Vibration    18          0.942              1.065              0.477
 Vibration    19          0.973              1.003              0.427

 Optimization completed.
    -- Stationary point found.
 Normal termination of Gaussian 16 at Wed Dec  9 23:25:54 2020.

 ----------------------------------------------------------------------
 # B3LYP/6-311++G(d,p) empiricaldispersion=gd3bj scf=xqc pop=npa geom=c
 heck
 ----------------------------------------------------------------------

 --------------------------------------
 CID_69583992_JID_3453_Energie_neutraal
 --------------------------------------
 Structure from the checkpoint file:  "JID_3453.chk"
 Charge =  0 Multiplicity = 1

 SCF Done:  E(RB3LYP) =  -637.391200930     A.U. after   16 cycles
 Normal termination of Gaussian 16 at Wed Dec  9 23:28:00 2020.

 ----------------------------------------------------------------------
 # B3LYP/6-311++G(d,p) empiricaldispersion=gd3bj scf=xqc pop=npa geom=c
 heck
 ----------------------------------------------------------------------

 ------------------------------------
 CID_69583992_JID_3453_Energie_kation
 ------------------------------------
 Structure from the checkpoint file:  "JID_3453.chk"
 Charge =  1 Multiplicity = 2

 SCF Done:  E(UB3LYP) =  -637.112130180     A.U. after   24 cycles
 Normal termination of Gaussian 16 at Wed Dec  9 23:32:26 2020.
 Gaussian 16:  ES64L-G16RevA.03 25-Dec-2016

 ----------------------------------------------------------------------
 # B3LYP/6-311++G(d,p) empiricaldispersion=gd3bj scf=xqc pop=npa geom=c
 heck
 ----------------------------------------------------------------------

 -----------------------------------
 CID_69583992_JID_3453_Energie_anion
 -----------------------------------
 Structure from the checkpoint file:  "JID_3453.chk"
 Charge = -1 Multiplicity = 2

                         Standard orientation:
 ---------------------------------------------------------------------
 Center     Atomic      Atomic             Coordinates (Angstroms)
 Number     Number       Type             X           Y           Z
 ---------------------------------------------------------------------
      1          6           0        2.086275   -1.386721   -0.493270
      2          7           0        0.919471   -1.849472   -0.282138
      3          6           0       -0.005599   -1.001455    0.507790
      4          6           0        0.256080    0.463334    0.269445
      5          6           0       -0.740309    1.320665   -0.003246
      6          7           0       -2.066978    0.859451    0.050934
      7          6           0       -2.266445   -0.524772    0.039879
      8          7           0       -1.364943   -1.411742    0.233137
      9          7           0       -3.595478   -0.905446   -0.116624
     10          7           0       -0.628915    2.677727   -0.355604
     11          7           0        1.616869    0.826412    0.327011
     12          6           0        2.609470   -0.048168   -0.038799
     13          8           0        3.801663    0.223863   -0.006093
     14          1           0        2.816598   -1.994177   -1.030862
     15          1           0        0.232875   -1.251983    1.558467
     16          1           0       -2.721662    1.430446   -0.469703
     17          1           0       -4.127410   -0.381785   -0.802869
     18          1           0       -3.662428   -1.905814   -0.265655
     19          1           0        0.317444    2.935494   -0.612624
     20          1           0       -0.979895    3.313083    0.358348
     21          1           0        1.914151    1.748035    0.625836
 ---------------------------------------------------------------------

 SCF Done:  E(UB3LYP) =  -637.399502999     A.U. after   32 cycles

 The electronic state is 2-A.
 Alpha  occ. eigenvalues --  -18.95845 -14.23484 -14.22711 -14.22028 -14.21895
 Alpha  occ. eigenvalues --  -14.16646 -14.16629 -10.16331 -10.13458 -10.12670
 Alpha  occ. eigenvalues --  -10.11289 -10.08546 -10.06576  -0.91300  -0.89529
 Alpha  occ. eigenvalues --   -0.83563  -0.82396  -0.78568  -0.76984  -0.74902
 Alpha  occ. eigenvalues --   -0.64163  -0.57152  -0.53532  -0.52425  -0.46402
 Alpha  occ. eigenvalues --   -0.45613  -0.43390  -0.41653  -0.40314  -0.38000
 Alpha  occ. eigenvalues --   -0.36824  -0.35239  -0.33782  -0.33637  -0.30211
 Alpha  occ. eigenvalues --   -0.29701  -0.29542  -0.27511  -0.24335  -0.19054
 Alpha  occ. eigenvalues --   -0.18060  -0.17735  -0.16819  -0.14641  -0.12981
 Alpha  occ. eigenvalues --   -0.11102  -0.07697   0.03620
 Alpha virt. eigenvalues --    0.05603   0.06416   0.09301   0.10110   0.10505
 Alpha virt. eigenvalues --    0.11383   0.11866   0.12540   0.13351   0.14419
 Alpha virt. eigenvalues --    0.14990   0.15863   0.16431   0.17082   0.17621

  Beta  occ. eigenvalues --  -18.95618 -14.23437 -14.22686 -14.21979 -14.21857
  Beta  occ. eigenvalues --  -14.16623 -14.16258 -10.16328 -10.13317 -10.12643
  Beta  occ. eigenvalues --  -10.11307 -10.08542 -10.06460  -0.90958  -0.89458
  Beta  occ. eigenvalues --   -0.83443  -0.82182  -0.78335  -0.76830  -0.74653
  Beta  occ. eigenvalues --   -0.64054  -0.56984  -0.53373  -0.52013  -0.46306
  Beta  occ. eigenvalues --   -0.45435  -0.43303  -0.41496  -0.40231  -0.37900
  Beta  occ. eigenvalues --   -0.36644  -0.35126  -0.33615  -0.33470  -0.30015
  Beta  occ. eigenvalues --   -0.29413  -0.28866  -0.27307  -0.24122  -0.18527
  Beta  occ. eigenvalues --   -0.17661  -0.16930  -0.16147  -0.14546  -0.12873
  Beta  occ. eigenvalues --   -0.10741  -0.07447
  Beta virt. eigenvalues --    0.06449   0.07328   0.08676   0.09784   0.10488
  Beta virt. eigenvalues --    0.10700   0.11375   0.12088   0.12625   0.13728
  Beta virt. eigenvalues --    0.14538   0.14966   0.15878   0.16622   0.17356

 Mulliken charges and spin densities:
               1          2
     1  C   -0.062146   0.189812
     2  N    0.015020   0.169407
     3  C   -0.116723  -0.449300
     4  C    2.415728  -2.402943
     5  C   -2.092088   2.022323
     6  N   -0.238380  -0.036557
     7  C    0.360637  -0.396484
     8  N   -0.079087  -0.044856
     9  N   -0.365558   0.079438
    10  N   -0.391772   0.013517
    11  N   -0.266518   0.030845
    12  C    0.162998  -0.080188
    13  O   -0.424615   0.081349
    14  H    0.165240   0.013453
    15  H    0.119217   0.077876
    16  H   -0.321259   0.590897
    17  H   -0.162290   0.392038
    18  H    0.218555   0.052788
    19  H   -0.037028   0.291055
    20  H   -0.121791   0.371251
    21  H    0.221861   0.034280
 Sum of Mulliken charges =  -1.00000   1.00000

 Dipole moment (field-independent basis, Debye):
    X=             -1.6490    Y=              0.8228    Z=              1.1325  Tot=              2.1630
 Quadrupole moment (field-independent basis, Debye-Ang):
   XX=           -134.2236   YY=           -105.8555   ZZ=            -89.0816
   XY=              6.0427   XZ=             -0.4688   YZ=              2.9282

 Summary of Natural Population Analysis:

                                       Natural Population
                Natural  -----------------------------------------------
    Atom  No    Charge         Core      Valence    Rydberg      Total
 -----------------------------------------------------------------------
      C    1    0.02212      0.99960     1.96334    0.01494     2.97788
      N    2   -0.15107      0.99969     2.63846    0.01292     3.65107
      C    3    0.05216      0.99954     1.93027    0.01802     2.94784
      C    4    0.02278      0.99940     1.96375    0.01408     2.97722
      C    5    0.15772      0.99940     1.82953    0.01335     2.84228
      N    6   -0.32044      0.99964     2.80929    0.01151     3.82044
      C    7    0.30387      0.99961     1.67910    0.01742     2.69613
      N    8   -0.28574      0.99963     2.77494    0.01117     3.78574
      N    9   -0.40564      0.99972     2.89603    0.00989     3.90564
      N   10   -0.41552      0.99973     2.90465    0.01114     3.91552
      N   11   -0.31247      0.99965     2.80272    0.01010     3.81247
      C   12    0.32656      0.99967     1.65155    0.02221     2.67344
      O   13   -0.30312      0.99988     3.29694    0.00630     4.30312
      H   14    0.08392      0.00000     0.41455    0.00154     0.41608
      H   15    0.08999      0.00000     0.40810    0.00192     0.41001
      H   16    0.19665      0.00000     0.29815    0.00521     0.30335
      H   17    0.18464      0.00000     0.31219    0.00317     0.31536
      H   18    0.19135      0.00000     0.30638    0.00228     0.30865
      H   19    0.18766      0.00000     0.31004    0.00230     0.31234
      H   20    0.18355      0.00000     0.31403    0.00242     0.31645
      H   21    0.19104      0.00000     0.30524    0.00373     0.30896
 =======================================================================
   * Total *    0.00000     12.99514    33.80924    0.19562    47.00000

 Normal termination of Gaussian 16 at Wed Dec  9 23:38:18 2020.
