 Gaussian 16, Revision A.03,

 -----------------------------------------------------------
 # opt freq B3LYP/6-31G(d) empiricaldispersion=gd3bj scf=xqc
 -----------------------------------------------------------

 ------------------------------
 CID_82383016_JID_8053_neutraal
 ------------------------------
 Symbolic Z-matrix:
 Charge =  0 Multiplicity = 1

 SCF Done:  E(RB3LYP) =  -817.775862634     A.U. after   14 cycles
 SCF Done:  E(RB3LYP) =  -817.783459251     A.U. after   12 cycles
 SCF Done:  E(RB3LYP) =  -817.785525783     A.U. after   12 cycles
 SCF Done:  E(RB3LYP) =  -817.787052510     A.U. after   13 cycles
 SCF Done:  E(RB3LYP) =  -817.787613459     A.U. after   11 cycles
 SCF Done:  E(RB3LYP) =  -817.788070170     A.U. after   11 cycles
 SCF Done:  E(RB3LYP) =  -817.788216403     A.U. after   11 cycles
 SCF Done:  E(RB3LYP) =  -817.788252705     A.U. after   10 cycles
 SCF Done:  E(RB3LYP) =  -817.788315170     A.U. after   11 cycles
 SCF Done:  E(RB3LYP) =  -817.788351300     A.U. after   11 cycles
 SCF Done:  E(RB3LYP) =  -817.788453485     A.U. after    9 cycles
 SCF Done:  E(RB3LYP) =  -817.788454316     A.U. after    8 cycles
 SCF Done:  E(RB3LYP) =  -817.788454367     A.U. after    9 cycles
 SCF Done:  E(RB3LYP) =  -817.788454693     A.U. after    7 cycles
 SCF Done:  E(RB3LYP) =  -817.788454758     A.U. after    7 cycles
 Optimization completed.
    -- Stationary point found.
 Normal termination of Gaussian 16 at Fri Dec 11 18:45:24 2020.

 --------------------------------------------------------------------
 #N Geom=AllCheck Guess=TCheck SCRF=Check GenChk RB3LYP/6-31G(d) Freq
 --------------------------------------------------------------------

 Structure from the checkpoint file:  "JID_8053.chk"
 ------------------------------
 CID_82383016_JID_8053_neutraal
 ------------------------------
 Charge =  0 Multiplicity = 1

 SCF Done:  E(RB3LYP) =  -817.788454758     A.U. after    1 cycles

  Exact polarizability: 209.571  -7.310 183.353   2.332  -2.375 104.393
 Approx polarizability: 279.903 -13.438 273.846   2.139  -5.312 161.854

                      1                      2                      3
                      A                      A                      A
 Frequencies --     50.8805                56.5557                71.5229
 Red. masses --      3.9218                 3.0637                 3.2080
 Frc consts  --      0.0060                 0.0058                 0.0097
 IR Inten    --      0.0250                 0.4150                 0.1406

                      4                      5                      6
                      A                      A                      A
 Frequencies --     81.9760               111.3304               136.1265
 Red. masses --      1.6505                 2.8077                 2.8825
 Frc consts  --      0.0065                 0.0205                 0.0315
 IR Inten    --      1.3681                 1.0719                 4.2934

                      7                      8                      9
                      A                      A                      A
 Frequencies --    152.1870               212.0504               227.6862
 Red. masses --      2.3606                 3.8540                 4.2803
 Frc consts  --      0.0322                 0.1021                 0.1307
 IR Inten    --      2.0548                 2.5167                 2.8227

                     10                     11                     12
                      A                      A                      A
 Frequencies --    241.4244               254.3200               275.1055
 Red. masses --      4.0938                 2.7112                 2.8035
 Frc consts  --      0.1406                 0.1033                 0.1250
 IR Inten    --      1.6784                 6.7850                 2.8944

                     13                     14                     15
                      A                      A                      A
 Frequencies --    284.2416               314.4981               347.8068
 Red. masses --      3.0552                 2.7586                 2.9344
 Frc consts  --      0.1454                 0.1608                 0.2091
 IR Inten    --      3.7039                17.0404                 6.1557

                     16                     17                     18
                      A                      A                      A
 Frequencies --    362.9567               406.2024               422.5441
 Red. masses --      2.4173                 2.5066                 2.2198
 Frc consts  --      0.1876                 0.2437                 0.2335
 IR Inten    --      3.4966                 6.0465                 9.9069

                     19                     20                     21
                      A                      A                      A
 Frequencies --    444.2337               474.4100               485.4004
 Red. masses --      3.4634                 1.2323                 2.6769
 Frc consts  --      0.4027                 0.1634                 0.3716
 IR Inten    --      4.4529                 9.4174                 9.0558

                     22                     23                     24
                      A                      A                      A
 Frequencies --    501.4454               512.2339               537.6946
 Red. masses --      1.6335                 2.7711                 3.2441
 Frc consts  --      0.2420                 0.4284                 0.5526
 IR Inten    --    263.0737                96.0689                 2.1221

                     25                     26                     27
                      A                      A                      A
 Frequencies --    543.1375               573.1436               654.3759
 Red. masses --      3.4732                 2.8687                 2.7770
 Frc consts  --      0.6037                 0.5552                 0.7006
 IR Inten    --     11.9557                 6.0897                 0.5153

                     28                     29                     30
                      A                      A                      A
 Frequencies --    678.3143               709.0732               739.1451
 Red. masses --      3.3771                 6.0129                 7.7194
 Frc consts  --      0.9155                 1.7812                 2.4848
 IR Inten    --     10.6388                 2.7432                16.0363

                     31                     32                     33
                      A                      A                      A
 Frequencies --    775.4403               800.7619               829.7700
 Red. masses --      4.3814                 7.7710                 4.6549
 Frc consts  --      1.5522                 2.9358                 1.8883
 IR Inten    --      9.1560                28.8626                 3.2225

                     34                     35                     36
                      A                      A                      A
 Frequencies --    870.8324               875.5847               902.6308
 Red. masses --      1.7712                 2.5715                 2.5374
 Frc consts  --      0.7914                 1.1615                 1.2180
 IR Inten    --      4.3039                 8.2618                 3.3920

                     37                     38                     39
                      A                      A                      A
 Frequencies --    911.6535               933.2145               943.0470
 Red. masses --      1.4905                 2.6033                 2.2624
 Frc consts  --      0.7299                 1.3358                 1.1855
 IR Inten    --      1.5073                 0.9419                 7.6914

                     40                     41                     42
                      A                      A                      A
 Frequencies --    979.8234              1039.9363              1043.6485
 Red. masses --      2.6819                 2.1237                 2.5811
 Frc consts  --      1.5170                 1.3532                 1.6564
 IR Inten    --     38.4729                35.2182                 5.5271

                     43                     44                     45
                      A                      A                      A
 Frequencies --   1052.6665              1088.9487              1104.3542
 Red. masses --      2.6300                 2.0994                 1.7819
 Frc consts  --      1.7171                 1.4668                 1.2804
 IR Inten    --     24.4019                39.5578                14.2788

                     46                     47                     48
                      A                      A                      A
 Frequencies --   1107.8840              1117.6970              1142.0503
 Red. masses --      1.8085                 2.0293                 1.8799
 Frc consts  --      1.3079                 1.4937                 1.4447
 IR Inten    --     17.0276                34.1778                24.7519

                     49                     50                     51
                      A                      A                      A
 Frequencies --   1148.1200              1156.7227              1162.3846
 Red. masses --      2.1755                 5.4476                 1.2521
 Frc consts  --      1.6896                 4.2945                 0.9968
 IR Inten    --      9.3692                98.3114                13.0522

                     52                     53                     54
                      A                      A                      A
 Frequencies --   1208.2129              1211.7389              1220.2615
 Red. masses --      3.7098                 1.5907                 2.1561
 Frc consts  --      3.1907                 1.3761                 1.8915
 IR Inten    --     44.2342                 7.8905                43.8134

                     55                     56                     57
                      A                      A                      A
 Frequencies --   1236.9754              1243.6755              1270.3355
 Red. masses --      1.5210                 1.1119                 2.8046
 Frc consts  --      1.3712                 1.0133                 2.6666
 IR Inten    --     97.8752                 7.0662                23.8003

                     58                     59                     60
                      A                      A                      A
 Frequencies --   1298.3791              1310.4231              1317.7755
 Red. masses --      1.4781                 1.4383                 2.3914
 Frc consts  --      1.4681                 1.4552                 2.4467
 IR Inten    --     25.9601                49.0148                 4.6327

                     61                     62                     63
                      A                      A                      A
 Frequencies --   1337.7511              1340.2750              1351.6885
 Red. masses --      3.2066                 1.5596                 1.3590
 Frc consts  --      3.3810                 1.6506                 1.4630
 IR Inten    --     44.8226                13.6093                12.4501

                     64                     65                     66
                      A                      A                      A
 Frequencies --   1373.1641              1378.6981              1395.1617
 Red. masses --      1.3037                 1.5506                 1.4049
 Frc consts  --      1.4484                 1.7365                 1.6112
 IR Inten    --      1.0619                30.2850                 6.0860

                     67                     68                     69
                      A                      A                      A
 Frequencies --   1407.6042              1411.0460              1421.6498
 Red. masses --      1.5271                 1.4054                 1.6247
 Frc consts  --      1.7827                 1.6486                 1.9347
 IR Inten    --     74.6150                62.0150               107.9583

                     70                     71                     72
                      A                      A                      A
 Frequencies --   1445.1990              1453.7790              1474.2308
 Red. masses --      1.4044                 1.3162                 3.6068
 Frc consts  --      1.7282                 1.6390                 4.6185
 IR Inten    --      0.3692                84.6833               212.1743

                     73                     74                     75
                      A                      A                      A
 Frequencies --   1490.9286              1507.3030              1511.2170
 Red. masses --      2.9287                 1.1133                 1.0917
 Frc consts  --      3.8356                 1.4903                 1.4689
 IR Inten    --    199.9295                14.1891                 0.6806

                     76                     77                     78
                      A                      A                      A
 Frequencies --   1513.2988              1514.0336              1520.6292
 Red. masses --      1.3059                 1.1363                 1.1913
 Frc consts  --      1.7620                 1.5347                 1.6230
 IR Inten    --     28.4735                34.1098                 7.2160

                     79                     80                     81
                      A                      A                      A
 Frequencies --   1525.4813              1529.9684              1532.2203
 Red. masses --      1.1080                 1.1282                 1.0680
 Frc consts  --      1.5192                 1.5559                 1.4772
 IR Inten    --      3.1010                 5.6271                 5.6196

                     82                     83                     84
                      A                      A                      A
 Frequencies --   1539.4183              1581.0538              1610.6386
 Red. masses --      1.1342                 1.9556                 5.1202
 Frc consts  --      1.5836                 2.8802                 7.8259
 IR Inten    --     15.8557                37.3793               417.5976

                     85                     86                     87
                      A                      A                      A
 Frequencies --   1627.9009              1663.2338              2975.7088
 Red. masses --      6.1499                 1.5546                 1.0730
 Frc consts  --      9.6023                 2.5338                 5.5979
 IR Inten    --    554.7423               390.5584                51.0754

                     88                     89                     90
                      A                      A                      A
 Frequencies --   2978.7964              2991.7599              2994.8551
 Red. masses --      1.0740                 1.0709                 1.0714
 Frc consts  --      5.6147                 5.6477                 5.6617
 IR Inten    --     33.3890                39.3169                60.8372

                     91                     92                     93
                      A                      A                      A
 Frequencies --   2997.3271              3010.3364              3014.8799
 Red. masses --      1.0714                 1.0509                 1.0709
 Frc consts  --      5.6714                 5.6112                 5.7351
 IR Inten    --     76.0098               114.6068                70.4559

                     94                     95                     96
                      A                      A                      A
 Frequencies --   3055.7814              3069.4337              3071.3798
 Red. masses --      1.0648                 1.0939                 1.0890
 Frc consts  --      5.8581                 6.0722                 6.0524
 IR Inten    --     10.1911                34.0814                43.3329

                     97                     98                     99
                      A                      A                      A
 Frequencies --   3076.2873              3103.9455              3110.7085
 Red. masses --      1.0851                 1.1057                 1.0938
 Frc consts  --      6.0503                 6.2766                 6.2362
 IR Inten    --     66.4844                40.4039                45.7271

                    100                    101                    102
                      A                      A                      A
 Frequencies --   3114.5767              3139.1994              3162.5451
 Red. masses --      1.0952                 1.0915                 1.0872
 Frc consts  --      6.2597                 6.3376                 6.4066
 IR Inten    --     49.3705                13.6163                14.4924

                    103                    104                    105
                      A                      A                      A
 Frequencies --   3197.2321              3587.8279              3707.2937
 Red. masses --      1.0942                 1.0458                 1.1017
 Frc consts  --      6.5899                 7.9319                 8.9215
 IR Inten    --      2.2490                41.3972                23.5764

 - Thermochemistry -
 -------------------
 Temperature   298.150 Kelvin.  Pressure   1.00000 Atm.
 Atom     1 has atomic number  6 and mass  12.00000

 Molecular mass:   249.15896 amu.
 Principal axes and moments of inertia in atomic units:
                           1         2         3
     Eigenvalues --  2525.587116337.811458436.60056
           X            0.99994  -0.01093   0.00272
           Y            0.01093   0.99994   0.00120
           Z           -0.00273  -0.00117   1.00000
 This molecule is an asymmetric top.
 Rotational symmetry number  1.
 Warning -- assumption of classical behavior for rotation
           may cause significant error
 Rotational temperatures (Kelvin)      0.03429     0.01367     0.01027
 Rotational constants (GHZ):           0.71458     0.28476     0.21392
 Zero-point vibrational energy     843274.1 (Joules/Mol)
                                  201.54735 (Kcal/Mol)
 Warning -- explicit consideration of  26 degrees of freedom as
           vibrations may cause significant error
 Vibrational temperatures:     73.21    81.37   102.91   117.95   160.18
          (Kelvin)            195.86   218.96   305.09   327.59   347.36
                              365.91   395.82   408.96   452.49   500.42
                              522.21   584.43   607.95   639.15   682.57
                              698.38   721.47   736.99   773.62   781.45
                              824.63   941.50   975.94  1020.20  1063.46
                             1115.69  1152.12  1193.85  1252.93  1259.77
                             1298.68  1311.67  1342.69  1356.83  1409.75
                             1496.24  1501.58  1514.55  1566.75  1588.92
                             1594.00  1608.12  1643.16  1651.89  1664.27
                             1672.41  1738.35  1743.42  1755.68  1779.73
                             1789.37  1827.73  1868.08  1885.41  1895.98
                             1924.73  1928.36  1944.78  1975.68  1983.64
                             2007.33  2025.23  2030.18  2045.44  2079.32
                             2091.66  2121.09  2145.11  2168.67  2174.30
                             2177.30  2178.36  2187.85  2194.83  2201.28
                             2204.52  2214.88  2274.78  2317.35  2342.19
                             2393.02  4281.38  4285.82  4304.48  4308.93
                             4312.49  4331.20  4337.74  4396.59  4416.23
                             4419.03  4426.09  4465.89  4475.62  4481.18
                             4516.61  4550.20  4600.10  5162.08  5333.97

 Zero-point correction=                           0.321186 (Hartree/Particle)
 Thermal correction to Energy=                    0.337238
 Thermal correction to Enthalpy=                  0.338182
 Thermal correction to Gibbs Free Energy=         0.277851
 Sum of electronic and zero-point Energies=           -817.467269
 Sum of electronic and thermal Energies=              -817.451217
 Sum of electronic and thermal Enthalpies=            -817.450272
 Sum of electronic and thermal Free Energies=         -817.510604

                     E (Thermal)             CV                S
                      KCal/Mol        Cal/Mol-Kelvin    Cal/Mol-Kelvin
 Total                  211.620             63.110            126.979
 Electronic               0.000              0.000              0.000
 Translational            0.889              2.981             42.439
 Rotational               0.889              2.981             33.268
 Vibrational            209.843             57.148             51.272
 Vibration     1          0.595              1.977              4.783
 Vibration     2          0.596              1.975              4.574
 Vibration     3          0.598              1.968              4.111
 Vibration     4          0.600              1.961              3.843
 Vibration     5          0.607              1.940              3.246
 Vibration     6          0.614              1.917              2.858
 Vibration     7          0.619              1.900              2.645
 Vibration     8          0.643              1.823              2.026
 Vibration     9          0.651              1.799              1.897
 Vibration    10          0.658              1.777              1.792
 Vibration    11          0.665              1.755              1.700
 Vibration    12          0.677              1.719              1.564
 Vibration    13          0.683              1.703              1.508
 Vibration    14          0.702              1.646              1.339
 Vibration    15          0.725              1.580              1.176
 Vibration    16          0.737              1.549              1.109
 Vibration    17          0.771              1.457              0.940
 Vibration    18          0.785              1.421              0.883
 Vibration    19          0.804              1.374              0.813
 Vibration    20          0.831              1.307              0.725
 Vibration    21          0.841              1.282              0.696
 Vibration    22          0.857              1.247              0.655
 Vibration    23          0.867              1.223              0.628
 Vibration    24          0.893              1.167              0.570
 Vibration    25          0.898              1.155              0.559
 Vibration    26          0.929              1.089              0.498

 Optimization completed.
    -- Stationary point found.
 Normal termination of Gaussian 16 at Fri Dec 11 19:01:46 2020.

 ----------------------------------------------------------------------
 # B3LYP/6-311++G(d,p) empiricaldispersion=gd3bj scf=xqc pop=npa geom=c
 heck
 ----------------------------------------------------------------------

 --------------------------------------
 CID_82383016_JID_8053_Energie_neutraal
 --------------------------------------
 Structure from the checkpoint file:  "JID_8053.chk"
 Charge =  0 Multiplicity = 1

 SCF Done:  E(RB3LYP) =  -818.012923972     A.U. after   14 cycles
 Normal termination of Gaussian 16 at Fri Dec 11 19:08:37 2020.

 ----------------------------------------------------------------------
 # B3LYP/6-311++G(d,p) empiricaldispersion=gd3bj scf=xqc pop=npa geom=c
 heck
 ----------------------------------------------------------------------

 ------------------------------------
 CID_82383016_JID_8053_Energie_kation
 ------------------------------------
 Structure from the checkpoint file:  "JID_8053.chk"
 Charge =  1 Multiplicity = 2

 SCF Done:  E(UB3LYP) =  -817.754993831     A.U. after   22 cycles
 Normal termination of Gaussian 16 at Fri Dec 11 19:23:41 2020.
 Gaussian 16:  ES64L-G16RevA.03 25-Dec-2016

 ----------------------------------------------------------------------
 # B3LYP/6-311++G(d,p) empiricaldispersion=gd3bj scf=xqc pop=npa geom=c
 heck
 ----------------------------------------------------------------------

 -----------------------------------
 CID_82383016_JID_8053_Energie_anion
 -----------------------------------
 Structure from the checkpoint file:  "JID_8053.chk"
 Charge = -1 Multiplicity = 2

                         Standard orientation:
 ---------------------------------------------------------------------
 Center     Atomic      Atomic             Coordinates (Angstroms)
 Number     Number       Type             X           Y           Z
 ---------------------------------------------------------------------
      1          6           0        4.402766   -0.107285    0.261980
      2          7           0        3.080989   -0.654791    0.024117
      3          6           0        2.967219   -2.105120   -0.002738
      4          6           0        1.737102   -2.541206   -0.792833
      5          6           0        0.482696   -1.922603   -0.172799
      6          6           0        0.661718   -0.433979   -0.005500
      7          6           0        1.958398    0.137171    0.052198
      8          7           0        2.155162    1.467781    0.101828
      9          6           0        1.060666    2.230769    0.031415
     10          7           0       -0.212634    1.818010   -0.015672
     11          6           0       -0.397531    0.486843   -0.015731
     12          7           0       -1.728946    0.044204   -0.081762
     13          6           0       -2.224825   -0.789028    1.019588
     14          6           0       -3.530667   -1.456053    0.601174
     15          8           0       -4.503991   -0.497306    0.219728
     16          6           0       -4.019535    0.315661   -0.842838
     17          6           0       -2.734419    1.041129   -0.458638
     18          7           0        1.262633    3.591367   -0.016876
     19          1           0        4.354591    0.976396    0.177781
     20          1           0        5.109235   -0.503338   -0.478065
     21          1           0        4.771272   -0.373280    1.264621
     22          1           0        2.925369   -2.513824    1.021668
     23          1           0        3.879079   -2.500104   -0.465426
     24          1           0        1.844923   -2.208401   -1.832060
     25          1           0        1.671292   -3.634680   -0.797708
     26          1           0       -0.398323   -2.115454   -0.796642
     27          1           0        0.295860   -2.422873    0.790222
     28          1           0       -2.405291   -0.168469    1.914195
     29          1           0       -1.489748   -1.549023    1.283288
     30          1           0       -3.332419   -2.150279   -0.232847
     31          1           0       -3.958911   -2.019446    1.435632
     32          1           0       -4.813547    1.034209   -1.065932
     33          1           0       -3.838360   -0.303237   -1.737059
     34          1           0       -2.933021    1.741831    0.367016
     35          1           0       -2.357528    1.624316   -1.301043
     36          1           0        2.161188    3.907239    0.319046
     37          1           0        0.464297    4.153068    0.242381
 ---------------------------------------------------------------------

 SCF Done:  E(UB3LYP) =  -818.000137320     A.U. after   33 cycles
 SCF Done:  E(UB3LYP) =  -818.000137320     a.u. after    1 cycles

 The electronic state is 2-A.
 Alpha  occ. eigenvalues --  -19.04255 -14.23629 -14.23283 -14.22347 -14.19062
 Alpha  occ. eigenvalues --  -14.19051 -10.16576 -10.14778 -10.14284 -10.13304
 Alpha  occ. eigenvalues --  -10.13058 -10.11083 -10.10655 -10.10338 -10.09441
 Alpha  occ. eigenvalues --  -10.07393 -10.07145 -10.06774  -0.95971  -0.90403
 Alpha  occ. eigenvalues --   -0.86451  -0.85032  -0.78832  -0.76581  -0.71201
 Alpha  occ. eigenvalues --   -0.68917  -0.66505  -0.62404  -0.61025  -0.57589
 Alpha  occ. eigenvalues --   -0.56621  -0.54374  -0.51696  -0.49046  -0.47549
 Alpha  occ. eigenvalues --   -0.45348  -0.43613  -0.40997  -0.39545  -0.38878
 Alpha  occ. eigenvalues --   -0.38555  -0.38099  -0.37707  -0.36661  -0.35260
 Alpha  occ. eigenvalues --   -0.34889  -0.33878  -0.33394  -0.33163  -0.32763
 Alpha  occ. eigenvalues --   -0.31024  -0.30340  -0.29273  -0.27621  -0.27518
 Alpha  occ. eigenvalues --   -0.27102  -0.25680  -0.24418  -0.23270  -0.22945
 Alpha  occ. eigenvalues --   -0.22273  -0.20234  -0.18144  -0.15303  -0.15001
 Alpha  occ. eigenvalues --   -0.13296  -0.10287   0.04208
 Alpha virt. eigenvalues --    0.05942   0.06334   0.07163   0.07748   0.08003
 Alpha virt. eigenvalues --    0.08423   0.09035   0.09430   0.09955   0.10181
 Alpha virt. eigenvalues --    0.10398   0.10679   0.11202   0.11543   0.12164

  Beta  occ. eigenvalues --  -19.04252 -14.23631 -14.23283 -14.22322 -14.19058
  Beta  occ. eigenvalues --  -14.19049 -10.16557 -10.14768 -10.14279 -10.13298
  Beta  occ. eigenvalues --  -10.13042 -10.11071 -10.10651 -10.10304 -10.09416
  Beta  occ. eigenvalues --  -10.07373 -10.07120 -10.06765  -0.95962  -0.90385
  Beta  occ. eigenvalues --   -0.86439  -0.85013  -0.78806  -0.76571  -0.71166
  Beta  occ. eigenvalues --   -0.68900  -0.66466  -0.62383  -0.60980  -0.57558
  Beta  occ. eigenvalues --   -0.56585  -0.54326  -0.51663  -0.49001  -0.47500
  Beta  occ. eigenvalues --   -0.45325  -0.43573  -0.40959  -0.39529  -0.38852
  Beta  occ. eigenvalues --   -0.38530  -0.38073  -0.37674  -0.36641  -0.35233
  Beta  occ. eigenvalues --   -0.34855  -0.33848  -0.33349  -0.33136  -0.32727
  Beta  occ. eigenvalues --   -0.30997  -0.30299  -0.29241  -0.27597  -0.27498
  Beta  occ. eigenvalues --   -0.27062  -0.25634  -0.24376  -0.23241  -0.22923
  Beta  occ. eigenvalues --   -0.22231  -0.20208  -0.18124  -0.15285  -0.14975
  Beta  occ. eigenvalues --   -0.13289  -0.10246
  Beta virt. eigenvalues --    0.06161   0.06755   0.06987   0.07584   0.08085
  Beta virt. eigenvalues --    0.08444   0.08792   0.09333   0.09663   0.10278
  Beta virt. eigenvalues --    0.10505   0.10618   0.10926   0.11506   0.11737

 Mulliken charges and spin densities:
               1          2
     1  C    0.302734  -0.660227
     2  N   -0.199890   0.261068
     3  C    0.621718  -0.939262
     4  C    0.782004  -1.454821
     5  C    0.289768  -0.747152
     6  C   -0.523243   0.874115
     7  C    0.022008  -0.222614
     8  N   -0.255569  -0.000295
     9  C    0.192374  -0.102249
    10  N   -0.182849  -0.052478
    11  C   -0.488279   0.159920
    12  N    0.325124   0.002710
    13  C   -0.422390   0.342240
    14  C    0.507406  -0.929054
    15  O   -0.160300   0.030763
    16  C   -0.172795  -0.359467
    17  C    0.021408   0.058686
    18  N   -0.389739   0.123476
    19  H    0.095844   0.088638
    20  H   -0.186533   0.329788
    21  H   -0.206271   0.357645
    22  H   -0.205087   0.381139
    23  H   -0.313543   0.489568
    24  H    0.128104   0.045031
    25  H   -0.642503   0.827224
    26  H    0.165578   0.012870
    27  H    0.024223   0.153626
    28  H   -0.011552   0.185667
    29  H   -0.460904   0.603991
    30  H   -0.031754   0.174176
    31  H   -0.069313   0.246631
    32  H    0.107979   0.071921
    33  H    0.062569   0.063872
    34  H    0.095010   0.074303
    35  H    0.127449   0.037568
    36  H    0.002031   0.260458
    37  H    0.049182   0.210522
 Sum of Mulliken charges =  -1.00000   1.00000

 Dipole moment (field-independent basis, Debye):
    X=             -4.5062    Y=              4.3786    Z=             -1.6429  Tot=              6.4944
 Quadrupole moment (field-independent basis, Debye-Ang):
   XX=           -185.9522   YY=           -172.3856   ZZ=           -137.0439
   XY=              7.0424   XZ=              3.5700   YZ=              3.3201

 Summary of Natural Population Analysis:

                                       Natural Population
                Natural  -----------------------------------------------
    Atom  No    Charge         Core      Valence    Rydberg      Total
 -----------------------------------------------------------------------
      C    1   -0.17635      0.99964     2.16907    0.00764     3.17635
      N    2   -0.24910      0.99967     2.73671    0.01272     3.74910
      C    3   -0.07688      0.99961     2.06636    0.01090     3.07688
      C    4   -0.18979      0.99963     2.18087    0.00930     3.18979
      C    5   -0.19737      0.99961     2.18793    0.00983     3.19737
      C    6   -0.10753      0.99947     2.09770    0.01035     3.10753
      C    7    0.26266      0.99948     1.72576    0.01210     2.73734
      N    8   -0.31391      0.99964     2.80047    0.01380     3.81391
      C    9    0.30538      0.99963     1.67543    0.01956     2.69462
      N   10   -0.31005      0.99964     2.80094    0.00947     3.81005
      C   11    0.22916      0.99947     1.75675    0.01462     2.77084
      N   12   -0.26998      0.99965     2.75902    0.01131     3.76998
      C   13   -0.09827      0.99960     2.08741    0.01125     3.09827
      C   14   -0.01540      0.99958     2.00158    0.01424     3.01540
      O   15   -0.29951      0.99989     3.29048    0.00914     4.29951
      C   16   -0.01315      0.99957     2.00204    0.01154     3.01315
      C   17   -0.09908      0.99962     2.08945    0.01001     3.09908
      N   18   -0.39539      0.99970     2.88646    0.00922     3.89539
      H   19    0.11499      0.00000     0.38316    0.00185     0.38501
      H   20    0.09172      0.00000     0.40663    0.00165     0.40828
      H   21    0.08901      0.00000     0.40919    0.00180     0.41099
      H   22    0.09114      0.00000     0.40647    0.00239     0.40886
      H   23    0.09944      0.00000     0.39867    0.00189     0.40056
      H   24    0.09613      0.00000     0.40241    0.00145     0.40387
      H   25    0.10586      0.00000     0.39209    0.00204     0.39414
      H   26    0.10603      0.00000     0.39207    0.00190     0.39397
      H   27    0.10003      0.00000     0.39776    0.00221     0.39997
      H   28    0.08661      0.00000     0.41194    0.00145     0.41339
      H   29    0.10904      0.00000     0.38918    0.00178     0.39096
      H   30    0.08002      0.00000     0.41828    0.00170     0.41998
      H   31    0.09302      0.00000     0.40579    0.00119     0.40698
      H   32    0.08974      0.00000     0.40908    0.00118     0.41026
      H   33    0.07880      0.00000     0.41954    0.00166     0.42120
      H   34    0.09119      0.00000     0.40693    0.00188     0.40881
      H   35    0.10946      0.00000     0.38921    0.00134     0.39054
      H   36    0.19142      0.00000     0.30656    0.00202     0.30858
      H   37    0.19091      0.00000     0.30727    0.00182     0.30909
 =======================================================================
   * Total *    0.00002     17.99312    48.76666    0.24020    66.99998

 Normal termination of Gaussian 16 at Fri Dec 11 19:46:15 2020.
