 Gaussian 16, Revision A.03,

 -----------------------------------------------------------
 # opt freq B3LYP/6-31G(d) empiricaldispersion=gd3bj scf=xqc
 -----------------------------------------------------------

 ------------------------------
 CID_148185078_JID_136_neutraal
 ------------------------------
 Symbolic Z-matrix:
 Charge =  0 Multiplicity = 1

 SCF Done:  E(RB3LYP) =  -457.455180142     A.U. after   14 cycles
 SCF Done:  E(RB3LYP) =  -457.457994465     A.U. after   12 cycles
 SCF Done:  E(RB3LYP) =  -457.458308187     A.U. after   11 cycles
 SCF Done:  E(RB3LYP) =  -457.458423374     A.U. after   12 cycles
 SCF Done:  E(RB3LYP) =  -457.458459317     A.U. after   11 cycles
 SCF Done:  E(RB3LYP) =  -457.458481588     A.U. after   11 cycles
 SCF Done:  E(RB3LYP) =  -457.458497346     A.U. after   11 cycles
 SCF Done:  E(RB3LYP) =  -457.458502591     A.U. after   10 cycles
 SCF Done:  E(RB3LYP) =  -457.458504464     A.U. after    9 cycles
 SCF Done:  E(RB3LYP) =  -457.458504686     A.U. after    8 cycles
 SCF Done:  E(RB3LYP) =  -457.458504734     A.U. after    7 cycles
 Optimization completed.
    -- Stationary point found.
 Normal termination of Gaussian 16 at Tue Dec  8 10:17:19 2020.

 --------------------------------------------------------------------
 #N Geom=AllCheck Guess=TCheck SCRF=Check GenChk RB3LYP/6-31G(d) Freq
 --------------------------------------------------------------------

 Structure from the checkpoint file:  "JID_136.chk"
 ------------------------------
 CID_148185078_JID_136_neutraal
 ------------------------------
 Charge =  0 Multiplicity = 1

 SCF Done:  E(RB3LYP) =  -457.458504734     A.U. after    1 cycles

  Exact polarizability: 118.354   2.668 103.894  -7.487   2.224  45.404
 Approx polarizability: 169.167   5.767 174.245 -17.700   1.787  67.162

                      1                      2                      3
                      A                      A                      A
 Frequencies --     41.2341                45.8406               174.7126
 Red. masses --      3.5437                 2.9348                 4.0138
 Frc consts  --      0.0035                 0.0036                 0.0722
 IR Inten    --      2.4869                 0.4152                 1.4718

                      4                      5                      6
                      A                      A                      A
 Frequencies --    211.1632               270.9521               290.2034
 Red. masses --      1.7368                 1.9384                 2.5685
 Frc consts  --      0.0456                 0.0838                 0.1274
 IR Inten    --      2.3854                 5.3029                 6.4077

                      7                      8                      9
                      A                      A                      A
 Frequencies --    328.3113               341.8081               426.9595
 Red. masses --      1.1412                 3.4850                 3.4124
 Frc consts  --      0.0725                 0.2399                 0.3665
 IR Inten    --     24.4287                 5.4624                 3.3571

                     10                     11                     12
                      A                      A                      A
 Frequencies --    458.9548               520.0094               531.7458
 Red. masses --      3.1848                 3.8922                 6.3262
 Frc consts  --      0.3953                 0.6201                 1.0539
 IR Inten    --      8.2718                 1.8963                 5.9568

                     13                     14                     15
                      A                      A                      A
 Frequencies --    566.4148               609.1272               665.9149
 Red. masses --      3.8740                 6.6469                 1.4888
 Frc consts  --      0.7323                 1.4531                 0.3890
 IR Inten    --     12.4413                 4.0095               279.4357

                     16                     17                     18
                      A                      A                      A
 Frequencies --    723.1864               756.8484               792.8936
 Red. masses --      4.0941                 1.2528                 4.8097
 Frc consts  --      1.2616                 0.4228                 1.7816
 IR Inten    --     30.1241                78.5290                18.6248

                     19                     20                     21
                      A                      A                      A
 Frequencies --    847.0211               853.5580               889.7894
 Red. masses --      2.5934                 1.8041                 2.6866
 Frc consts  --      1.0963                 0.7744                 1.2532
 IR Inten    --      6.0246                11.5822                46.2531

                     22                     23                     24
                      A                      A                      A
 Frequencies --    922.8584               954.6073               984.7924
 Red. masses --      1.3331                 1.2043                 1.3535
 Frc consts  --      0.6689                 0.6466                 0.7734
 IR Inten    --      7.0642                 1.4249                21.3130

                     25                     26                     27
                      A                      A                      A
 Frequencies --   1059.2067              1067.0305              1096.4357
 Red. masses --      3.4624                 2.4393                 1.8004
 Frc consts  --      2.2887                 1.6363                 1.2752
 IR Inten    --      8.0159                10.5290                 8.1166

                     28                     29                     30
                      A                      A                      A
 Frequencies --   1164.5658              1177.8672              1190.1287
 Red. masses --      1.3889                 1.4121                 1.1098
 Frc consts  --      1.1098                 1.1542                 0.9261
 IR Inten    --     26.6164                 8.3571                 3.7904

                     31                     32                     33
                      A                      A                      A
 Frequencies --   1224.6019              1261.1805              1312.4656
 Red. masses --      2.4401                 1.9650                 2.3396
 Frc consts  --      2.1560                 1.8415                 2.3744
 IR Inten    --     44.0623                93.0014                40.9749

                     34                     35                     36
                      A                      A                      A
 Frequencies --   1341.2531              1394.5721              1463.9895
 Red. masses --      1.7767                 4.1216                 1.1908
 Frc consts  --      1.8832                 4.7228                 1.5037
 IR Inten    --     27.0546                 2.2866                 1.6316

                     37                     38                     39
                      A                      A                      A
 Frequencies --   1494.0662              1506.5025              1518.3637
 Red. masses --      1.2763                 1.0447                 2.0831
 Frc consts  --      1.6786                 1.3969                 2.8295
 IR Inten    --      0.4749                 6.7897                11.2305

                     40                     41                     42
                      A                      A                      A
 Frequencies --   1544.1522              1551.6392              1653.2239
 Red. masses --      1.0610                 2.8768                 4.7529
 Frc consts  --      1.4906                 4.0808                 7.6537
 IR Inten    --      7.3868               137.7902                17.9858

                     43                     44                     45
                      A                      A                      A
 Frequencies --   1657.7729              1688.6707              3023.3939
 Red. masses --      2.4444                 1.7341                 1.0438
 Frc consts  --      3.9580                 2.9134                 5.6217
 IR Inten    --      4.5525                98.8185                57.6218

                     46                     47                     48
                      A                      A                      A
 Frequencies --   3105.5965              3143.2046              3173.5007
 Red. masses --      1.0921                 1.1034                 1.0871
 Frc consts  --      6.2057                 6.4226                 6.4508
 IR Inten    --     24.0955                18.8724                13.0993

                     49                     50                     51
                      A                      A                      A
 Frequencies --   3191.3796              3207.7909              3245.8942
 Red. masses --      1.0887                 1.0955                 1.0913
 Frc consts  --      6.5328                 6.6419                 6.7740
 IR Inten    --     15.3318                30.0393                 1.7736

                     52                     53                     54
                      A                      A                      A
 Frequencies --   3485.1234              3544.3071              3647.9156
 Red. masses --      1.0759                 1.0473                 1.0980
 Frc consts  --      7.6996                 7.7515                 8.6088
 IR Inten    --      0.7365                10.2639                12.4944

 - Thermochemistry -
 -------------------
 Temperature   298.150 Kelvin.  Pressure   1.00000 Atm.
 Atom     1 has atomic number  6 and mass  12.00000

 Molecular mass:   138.07931 amu.
 Principal axes and moments of inertia in atomic units:
                           1         2         3
     Eigenvalues --   794.488911780.751372410.47039
           X            0.99996  -0.00548   0.00727
           Y            0.00541   0.99994   0.00959
           Z           -0.00732  -0.00955   0.99993
 This molecule is an asymmetric top.
 Rotational symmetry number  1.
 Warning -- assumption of classical behavior for rotation
           may cause significant error
 Rotational temperatures (Kelvin)      0.10902     0.04864     0.03593
 Rotational constants (GHZ):           2.27158     1.01347     0.74871
 Zero-point vibrational energy     438698.7 (Joules/Mol)
                                  104.85152 (Kcal/Mol)
 Warning -- explicit consideration of  14 degrees of freedom as
           vibrations may cause significant error
 Vibrational temperatures:     59.33    65.95   251.37   303.82   389.84
          (Kelvin)            417.54   472.37   491.79   614.30   660.33
                              748.18   765.06   814.94   876.40   958.10
                             1040.50  1088.94  1140.80  1218.67  1228.08
                             1280.21  1327.79  1373.47  1416.90  1523.96
                             1535.22  1577.53  1675.55  1694.69  1712.33
                             1761.93  1814.56  1888.35  1929.76  2006.48
                             2106.35  2149.63  2167.52  2184.59  2221.69
                             2232.46  2378.62  2385.17  2429.62  4349.99
                             4468.26  4522.37  4565.96  4591.68  4615.30
                             4670.12  5014.32  5099.47  5248.54

 Zero-point correction=                           0.167092 (Hartree/Particle)
 Thermal correction to Energy=                    0.176650
 Thermal correction to Enthalpy=                  0.177594
 Thermal correction to Gibbs Free Energy=         0.131655
 Sum of electronic and zero-point Energies=           -457.291413
 Sum of electronic and thermal Energies=              -457.281855
 Sum of electronic and thermal Enthalpies=            -457.280911
 Sum of electronic and thermal Free Energies=         -457.326850

                     E (Thermal)             CV                S
                      KCal/Mol        Cal/Mol-Kelvin    Cal/Mol-Kelvin
 Total                  110.850             36.384             96.688
 Electronic               0.000              0.000              0.000
 Translational            0.889              2.981             40.680
 Rotational               0.889              2.981             29.613
 Vibrational            109.072             30.422             26.395
 Vibration     1          0.594              1.981              5.199
 Vibration     2          0.595              1.979              4.989
 Vibration     3          0.627              1.874              2.384
 Vibration     4          0.643              1.824              2.034
 Vibration     5          0.675              1.727              1.590
 Vibration     6          0.686              1.692              1.473
 Vibration     7          0.712              1.619              1.268
 Vibration     8          0.721              1.592              1.204
 Vibration     9          0.789              1.412              0.869
 Vibration    10          0.817              1.341              0.769
 Vibration    11          0.875              1.206              0.610
 Vibration    12          0.887              1.180              0.583
 Vibration    13          0.922              1.104              0.511
 Vibration    14          0.968              1.012              0.434

 Optimization completed.
    -- Stationary point found.
 Normal termination of Gaussian 16 at Tue Dec  8 10:20:15 2020.

 ----------------------------------------------------------------------
 # B3LYP/6-311++G(d,p) empiricaldispersion=gd3bj scf=xqc pop=npa geom=c
 heck
 ----------------------------------------------------------------------

 --------------------------------------
 CID_148185078_JID_136_Energie_neutraal
 --------------------------------------
 Structure from the checkpoint file:  "JID_136.chk"
 Charge =  0 Multiplicity = 1

 SCF Done:  E(RB3LYP) =  -457.596616364     A.U. after   14 cycles
 Normal termination of Gaussian 16 at Tue Dec  8 10:21:15 2020.

 ----------------------------------------------------------------------
 # B3LYP/6-311++G(d,p) empiricaldispersion=gd3bj scf=xqc pop=npa geom=c
 heck
 ----------------------------------------------------------------------

 ------------------------------------
 CID_148185078_JID_136_Energie_kation
 ------------------------------------
 Structure from the checkpoint file:  "JID_136.chk"
 Charge =  1 Multiplicity = 2

 SCF Done:  E(UB3LYP) =  -457.325108559     A.U. after   21 cycles
 Normal termination of Gaussian 16 at Tue Dec  8 10:23:38 2020.
 Gaussian 16:  ES64L-G16RevA.03 25-Dec-2016

 ----------------------------------------------------------------------
 # B3LYP/6-311++G(d,p) empiricaldispersion=gd3bj scf=xqc pop=npa geom=c
 heck
 ----------------------------------------------------------------------

 -----------------------------------
 CID_148185078_JID_136_Energie_anion
 -----------------------------------
 Structure from the checkpoint file:  "JID_136.chk"
 Charge = -1 Multiplicity = 2

                         Standard orientation:
 ---------------------------------------------------------------------
 Center     Atomic      Atomic             Coordinates (Angstroms)
 Number     Number       Type             X           Y           Z
 ---------------------------------------------------------------------
      1          6           0        3.092001   -0.290039    0.796490
      2          7           0        2.352768   -0.470700   -0.451332
      3          8           0        1.308689    0.523116   -0.468911
      4          6           0        0.046732   -0.009443   -0.248242
      5          6           0       -0.253381   -1.364975   -0.241270
      6          6           0       -1.567091   -1.782024   -0.002580
      7          6           0       -2.564197   -0.837348    0.226685
      8          6           0       -2.254675    0.523825    0.218556
      9          6           0       -0.948329    0.963256   -0.016776
     10          7           0       -0.615067    2.321189   -0.082003
     11          1           0        2.455838   -0.606938    1.627318
     12          1           0        3.417368    0.746162    0.968336
     13          1           0        3.968502   -0.946154    0.758976
     14          1           0        2.932333   -0.161950   -1.231142
     15          1           0        0.544875   -2.074473   -0.418125
     16          1           0       -1.799729   -2.842635    0.002183
     17          1           0       -3.586645   -1.152062    0.414751
     18          1           0       -3.031261    1.264639    0.395205
     19          1           0        0.367547    2.498334    0.088108
     20          1           0       -1.208601    2.917218    0.481849
 ---------------------------------------------------------------------

 SCF Done:  E(UB3LYP) =  -457.581368990     A.U. after   32 cycles

 The electronic state is 2-A.
 Alpha  occ. eigenvalues --  -19.06620 -14.25445 -14.20543 -10.12018 -10.10550
 Alpha  occ. eigenvalues --  -10.08181 -10.06601 -10.06372 -10.06364 -10.06270
 Alpha  occ. eigenvalues --   -0.98464  -0.81340  -0.75722  -0.72857  -0.63402
 Alpha  occ. eigenvalues --   -0.61907  -0.56470  -0.50879  -0.48824  -0.42772
 Alpha  occ. eigenvalues --   -0.41417  -0.40070  -0.38536  -0.35003  -0.34461
 Alpha  occ. eigenvalues --   -0.32711  -0.31524  -0.30410  -0.29309  -0.28377
 Alpha  occ. eigenvalues --   -0.25794  -0.24729  -0.22767  -0.20815  -0.15162
 Alpha  occ. eigenvalues --   -0.13239  -0.09678   0.04778
 Alpha virt. eigenvalues --    0.06717   0.07619   0.08973   0.09285   0.09694
 Alpha virt. eigenvalues --    0.09861   0.11025   0.11476   0.12088   0.12898
 Alpha virt. eigenvalues --    0.14211   0.14677   0.16126   0.16848   0.17103

  Beta  occ. eigenvalues --  -19.06608 -14.25416 -14.20495 -10.12016 -10.10545
  Beta  occ. eigenvalues --  -10.08119 -10.06598 -10.06364 -10.06351 -10.06263
  Beta  occ. eigenvalues --   -0.98441  -0.81287  -0.75670  -0.72831  -0.63376
  Beta  occ. eigenvalues --   -0.61866  -0.56359  -0.50823  -0.48792  -0.42730
  Beta  occ. eigenvalues --   -0.41368  -0.40005  -0.38451  -0.34965  -0.34408
  Beta  occ. eigenvalues --   -0.32677  -0.31489  -0.30362  -0.29266  -0.28317
  Beta  occ. eigenvalues --   -0.25772  -0.24702  -0.22732  -0.20781  -0.15111
  Beta  occ. eigenvalues --   -0.13206  -0.09641
  Beta virt. eigenvalues --    0.07213   0.08026   0.08312   0.09476   0.09762
  Beta virt. eigenvalues --    0.10237   0.10517   0.11042   0.12301   0.12692
  Beta virt. eigenvalues --    0.13324   0.14385   0.15132   0.16410   0.16764

 Mulliken charges and spin densities:
               1          2
     1  C    1.764342  -2.134582
     2  N   -0.382860   0.128768
     3  O   -0.114238   0.033275
     4  C    1.446713  -1.763994
     5  C    1.417987  -1.026655
     6  C   -0.568654   0.200504
     7  C    0.155308  -0.370764
     8  C   -1.104657   0.989689
     9  C   -1.217933   1.024431
    10  N   -0.233857  -0.107904
    11  H   -0.214118   0.362639
    12  H   -0.576398   0.732129
    13  H   -0.865918   1.016462
    14  H   -0.129304   0.406259
    15  H    0.190631   0.020780
    16  H    0.054335   0.078195
    17  H    0.055112   0.071795
    18  H   -0.347617   0.491271
    19  H    0.091268   0.176860
    20  H   -0.420139   0.670841
 Sum of Mulliken charges =  -1.00000   1.00000

 Dipole moment (field-independent basis, Debye):
    X=             -5.6074    Y=             -3.7645    Z=             -1.6562  Tot=              6.9540
 Quadrupole moment (field-independent basis, Debye-Ang):
   XX=           -126.4871   YY=            -99.1689   ZZ=            -86.7402
   XY=              7.9003   XZ=             -3.7521   YZ=             -2.6985

 Summary of Natural Population Analysis:

                                       Natural Population
                Natural  -----------------------------------------------
    Atom  No    Charge         Core      Valence    Rydberg      Total
 -----------------------------------------------------------------------
      C    1   -0.18579      0.99966     2.17702    0.00911     3.18579
      N    2   -0.17199      0.99974     2.65801    0.01423     3.67199
      O    3   -0.21876      0.99987     3.20714    0.01175     4.21876
      C    4    0.14099      0.99933     1.84504    0.01464     2.85901
      C    5   -0.12959      0.99951     2.12218    0.00789     3.12959
      C    6   -0.11947      0.99957     2.10986    0.01004     3.11947
      C    7   -0.11181      0.99957     2.10281    0.00942     3.11181
      C    8   -0.12206      0.99953     2.11227    0.01026     3.12206
      C    9    0.06632      0.99945     1.92166    0.01257     2.93368
      N   10   -0.39668      0.99972     2.88605    0.01091     3.89668
      H   11    0.09486      0.00000     0.40351    0.00163     0.40514
      H   12    0.09141      0.00000     0.40469    0.00390     0.40859
      H   13    0.10084      0.00000     0.39509    0.00407     0.39916
      H   14    0.17358      0.00000     0.32297    0.00345     0.32642
      H   15    0.11489      0.00000     0.38380    0.00131     0.38511
      H   16    0.09614      0.00000     0.40308    0.00077     0.40386
      H   17    0.09638      0.00000     0.40285    0.00078     0.40362
      H   18    0.10004      0.00000     0.39884    0.00111     0.39996
      H   19    0.19393      0.00000     0.30296    0.00310     0.30607
      H   20    0.18676      0.00000     0.30803    0.00521     0.31324
 =======================================================================
   * Total *    0.00000      9.99596    26.86786    0.13618    37.00000

 Normal termination of Gaussian 16 at Tue Dec  8 10:27:17 2020.
