 Gaussian 16, Revision A.03,

 -----------------------------------------------------------
 # opt freq B3LYP/6-31G(d) empiricaldispersion=gd3bj scf=xqc
 -----------------------------------------------------------

 -------------------------------
 CID_146974339_JID_2625_neutraal
 -------------------------------
 Symbolic Z-matrix:
 Charge =  0 Multiplicity = 1

 SCF Done:  E(RB3LYP) =  -534.627628785     A.U. after   13 cycles
 SCF Done:  E(RB3LYP) =  -534.635103719     A.U. after   11 cycles
 SCF Done:  E(RB3LYP) =  -534.636978407     A.U. after   11 cycles
 SCF Done:  E(RB3LYP) =  -534.638068176     A.U. after   11 cycles
 SCF Done:  E(RB3LYP) =  -534.638717850     A.U. after   11 cycles
 SCF Done:  E(RB3LYP) =  -534.639037467     A.U. after   11 cycles
 SCF Done:  E(RB3LYP) =  -534.639156555     A.U. after   10 cycles
 SCF Done:  E(RB3LYP) =  -534.639196025     A.U. after   10 cycles
 SCF Done:  E(RB3LYP) =  -534.639228975     A.U. after   10 cycles
 SCF Done:  E(RB3LYP) =  -534.639240898     A.U. after   10 cycles
 SCF Done:  E(RB3LYP) =  -534.639243484     A.U. after    9 cycles
 SCF Done:  E(RB3LYP) =  -534.639243677     A.U. after    6 cycles
 SCF Done:  E(RB3LYP) =  -534.639243724     A.U. after    6 cycles
 Optimization completed.
    -- Stationary point found.

 1\1\GINC-NODE317\FOpt\RB3LYP\6-31G(d)\C8H18N4\VSC10255\09-Dec-2020\0\\
 # opt freq B3LYP/6-31G(d) empiricaldispersion=gd3bj scf=xqc\\CID_14697
 4339_JID_2625_neutraal\\0,1\C,1.2086028078,-0.1698131816,0.0436090534\
 C,0.5021515935,-1.1763934695,0.9557363376\C,0.9254203224,-1.092169645,
 2.4357790335\C,0.4174355451,0.1984946744,3.093548971\C,0.4443277877,-2
 .3202573732,3.2371950607\C,1.342822115,-3.5497418551,3.1379982511\N,0.
 8722769189,-4.6213021498,4.0151098446\C,1.3281241837,-5.853377125,3.38
 22303528\C,0.2132925438,-6.8572371778,3.0919695112\N,-0.0296866113,-6.

 Normal termination of Gaussian 16 at Wed Dec  9 17:48:06 2020.

 --------------------------------------------------------------------
 #N Geom=AllCheck Guess=TCheck SCRF=Check GenChk RB3LYP/6-31G(d) Freq
 --------------------------------------------------------------------

 Structure from the checkpoint file:  "JID_2625.chk"
 -------------------------------
 CID_146974339_JID_2625_neutraal
 -------------------------------
 Charge =  0 Multiplicity = 1

 SCF Done:  E(RB3LYP) =  -534.639243724     A.U. after    1 cycles

  Exact polarizability: 133.469  -0.451 100.591  -5.280   0.267  92.171
 Approx polarizability: 157.570   0.354 144.360  -7.675  -0.020 144.821

                      1                      2                      3
                      A                      A                      A
 Frequencies --     30.0323                44.2279                65.3344
 Red. masses --      3.2418                 3.8387                 2.4862
 Frc consts  --      0.0017                 0.0044                 0.0063
 IR Inten    --      0.0458                 1.1618                 0.1558

                      4                      5                      6
                      A                      A                      A
 Frequencies --    118.0855               148.8613               204.8252
 Red. masses --      2.3640                 2.3422                 1.8842
 Frc consts  --      0.0194                 0.0306                 0.0466
 IR Inten    --      0.5604                 1.0302                 2.5578

                      7                      8                      9
                      A                      A                      A
 Frequencies --    228.7704               241.5018               271.7655
 Red. masses --      1.0860                 2.4286                 2.1357
 Frc consts  --      0.0335                 0.0835                 0.0929
 IR Inten    --      0.0730                 0.5594                 0.8225

                     10                     11                     12
                      A                      A                      A
 Frequencies --    300.5356               314.4216               401.7501
 Red. masses --      3.0149                 2.1471                 2.4408
 Frc consts  --      0.1604                 0.1251                 0.2321
 IR Inten    --      1.0178                 1.1645                 0.9856

                     13                     14                     15
                      A                      A                      A
 Frequencies --    421.4074               443.5229               493.7532
 Red. masses --      1.9584                 3.7504                 2.2154
 Frc consts  --      0.2049                 0.4347                 0.3182
 IR Inten    --      1.4924                 9.6308                 7.4510

                     16                     17                     18
                      A                      A                      A
 Frequencies --    525.6221               660.0030               701.4980
 Red. masses --      2.5838                 3.4113                 3.9923
 Frc consts  --      0.4206                 0.8755                 1.1575
 IR Inten    --      2.6186                15.7478                35.2565

                     19                     20                     21
                      A                      A                      A
 Frequencies --    752.8929               779.7901               788.8524
 Red. masses --      3.3290                 1.6868                 2.0905
 Frc consts  --      1.1118                 0.6043                 0.7664
 IR Inten    --     43.7378                 1.6921                 9.2523

                     22                     23                     24
                      A                      A                      A
 Frequencies --    822.7692               843.8320               861.4282
 Red. masses --      1.8970                 2.7010                 2.2689
 Frc consts  --      0.7566                 1.1332                 0.9920
 IR Inten    --     14.2969                27.1670                62.8610

                     25                     26                     27
                      A                      A                      A
 Frequencies --    896.6398               926.8508               953.2378
 Red. masses --      1.9776                 1.8840                 2.3910
 Frc consts  --      0.9368                 0.9536                 1.2800
 IR Inten    --     10.5827                10.3639                42.5116

                     28                     29                     30
                      A                      A                      A
 Frequencies --    967.9084               986.1336               993.2166
 Red. masses --      3.5977                 2.3286                 1.2633
 Frc consts  --      1.9858                 1.3342                 0.7342
 IR Inten    --      9.1735                13.5726                 0.4086

                     31                     32                     33
                      A                      A                      A
 Frequencies --   1003.0472              1018.1575              1026.7435
 Red. masses --      2.6181                 1.7523                 1.5323
 Frc consts  --      1.5520                 1.0703                 0.9518
 IR Inten    --     30.0696                12.7128                 5.5122

                     34                     35                     36
                      A                      A                      A
 Frequencies --   1052.4889              1055.2426              1063.2232
 Red. masses --      3.6253                 2.4953                 1.9342
 Frc consts  --      2.3661                 1.6371                 1.2882
 IR Inten    --     11.8731                 6.4885                 9.8617

                     37                     38                     39
                      A                      A                      A
 Frequencies --   1103.7497              1140.2854              1148.3359
 Red. masses --      1.9308                 2.0160                 2.2111
 Frc consts  --      1.3859                 1.5444                 1.7179
 IR Inten    --      1.5706                36.6171                13.5394

                     40                     41                     42
                      A                      A                      A
 Frequencies --   1161.9076              1195.6715              1200.1912
 Red. masses --      2.1671                 1.7868                 1.3718
 Frc consts  --      1.7237                 1.5051                 1.1643
 IR Inten    --      5.4527                 4.0995                 9.7193

                     43                     44                     45
                      A                      A                      A
 Frequencies --   1228.5926              1261.2777              1283.6622
 Red. masses --      2.1683                 1.4322                 1.3810
 Frc consts  --      1.9284                 1.3424                 1.3407
 IR Inten    --      0.7189                 8.1004                 0.2110

                     46                     47                     48
                      A                      A                      A
 Frequencies --   1303.6773              1316.4063              1319.9310
 Red. masses --      1.2217                 1.3745                 1.2107
 Frc consts  --      1.2233                 1.4034                 1.2428
 IR Inten    --      2.9241                13.4420                 2.6190

                     49                     50                     51
                      A                      A                      A
 Frequencies --   1342.1127              1363.3716              1373.5914
 Red. masses --      1.2766                 1.2291                 1.2636
 Frc consts  --      1.3548                 1.3460                 1.4047
 IR Inten    --      2.7659                 1.8786                13.0974

                     52                     53                     54
                      A                      A                      A
 Frequencies --   1392.0511              1407.6265              1409.8786
 Red. masses --      1.3804                 1.4130                 1.3693
 Frc consts  --      1.5761                 1.6495                 1.6037
 IR Inten    --      9.0871                 4.4952                 0.6411

                     55                     56                     57
                      A                      A                      A
 Frequencies --   1429.7210              1438.4074              1443.9162
 Red. masses --      1.5674                 1.2899                 1.2208
 Frc consts  --      1.8877                 1.5724                 1.4996
 IR Inten    --     16.1791                 7.3381                 1.0733

                     58                     59                     60
                      A                      A                      A
 Frequencies --   1453.9031              1507.2832              1519.7182
 Red. masses --      1.1883                 1.0892                 1.1828
 Frc consts  --      1.4799                 1.4580                 1.6095
 IR Inten    --      8.7175                 4.6761                27.5088

                     61                     62                     63
                      A                      A                      A
 Frequencies --   1522.7319              1526.7211              1533.0306
 Red. masses --      1.0556                 1.0473                 1.0491
 Frc consts  --      1.4421                 1.4382                 1.4527
 IR Inten    --      5.2741                 1.3914                 3.7002

                     64                     65                     66
                      A                      A                      A
 Frequencies --   1540.5961              1544.0571              1545.7973
 Red. masses --      1.0438                 1.0831                 1.0995
 Frc consts  --      1.4597                 1.5213                 1.5479
 IR Inten    --      3.7319                 5.1943                 3.7133

                     67                     68                     69
                      A                      A                      A
 Frequencies --   2985.3236              2995.4293              3026.8409
 Red. masses --      1.0827                 1.0835                 1.0692
 Frc consts  --      5.6851                 5.7279                 5.7714
 IR Inten    --      6.3592                60.4060                11.6695

                     70                     71                     72
                      A                      A                      A
 Frequencies --   3032.9036              3041.4613              3043.5702
 Red. masses --      1.0582                 1.0390                 1.0396
 Frc consts  --      5.7348                 5.6630                 5.6739
 IR Inten    --     22.8401                55.5587                25.2179

                     73                     74                     75
                      A                      A                      A
 Frequencies --   3058.9893              3076.8786              3095.8606
 Red. masses --      1.0582                 1.1041                 1.0947
 Frc consts  --      5.8341                 6.1586                 6.1819
 IR Inten    --     51.7811                26.6382                15.7474

                     76                     77                     78
                      A                      A                      A
 Frequencies --   3102.0202              3103.8178              3107.2317
 Red. masses --      1.0911                 1.1009                 1.1009
 Frc consts  --      6.1856                 6.2486                 6.2627
 IR Inten    --     43.2331                24.6400                55.7313

                     79                     80                     81
                      A                      A                      A
 Frequencies --   3111.4168              3117.4404              3124.6541
 Red. masses --      1.1078                 1.0987                 1.0993
 Frc consts  --      6.3189                 6.2913                 6.3238
 IR Inten    --     44.9112                43.1423                38.7182

                     82                     83                     84
                      A                      A                      A
 Frequencies --   3457.0091              3473.7400              3500.4844
 Red. masses --      1.0770                 1.0736                 1.0758
 Frc consts  --      7.5837                 7.6329                 7.7666
 IR Inten    --      2.7863                 0.3085                 1.0753

 - Thermochemistry -
 -------------------
 Temperature   298.150 Kelvin.  Pressure   1.00000 Atm.
 Atom     1 has atomic number  6 and mass  12.00000

 Molecular mass:   170.15315 amu.
 Principal axes and moments of inertia in atomic units:
                           1         2         3
     Eigenvalues --   895.284403829.923254322.61656
           X            0.99999   0.00489  -0.00163
           Y           -0.00491   0.99986  -0.01594
           Z            0.00155   0.01595   0.99987
 This molecule is an asymmetric top.
 Rotational symmetry number  1.
 Warning -- assumption of classical behavior for rotation
           may cause significant error
 Rotational temperatures (Kelvin)      0.09674     0.02262     0.02004
 Rotational constants (GHZ):           2.01583     0.47122     0.41751
 Zero-point vibrational energy     716692.6 (Joules/Mol)
                                  171.29365 (Kcal/Mol)
 Warning -- explicit consideration of  16 degrees of freedom as
           vibrations may cause significant error
 Vibrational temperatures:     43.21    63.63    94.00   169.90   214.18
          (Kelvin)            294.70   329.15   347.47   391.01   432.40
                              452.38   578.03   606.31   638.13   710.40
                              756.25   949.60  1009.30  1083.24  1121.94
                             1134.98  1183.78  1214.09  1239.40  1290.06
                             1333.53  1371.50  1392.60  1418.83  1429.02
                             1443.16  1464.90  1477.25  1514.30  1518.26
                             1529.74  1588.05  1640.62  1652.20  1671.73
                             1720.30  1726.81  1767.67  1814.70  1846.90
                             1875.70  1894.02  1899.09  1931.00  1961.59
                             1976.29  2002.85  2025.26  2028.50  2057.05
                             2069.55  2077.47  2091.84  2168.64  2186.54
                             2190.87  2196.61  2205.69  2216.57  2221.55
                             2224.06  4295.21  4309.75  4354.95  4363.67
                             4375.98  4379.02  4401.20  4426.94  4454.25
                             4463.12  4465.70  4470.61  4476.63  4485.30
                             4495.68  4973.87  4997.94  5036.42

 Zero-point correction=                           0.272974 (Hartree/Particle)
 Thermal correction to Energy=                    0.285288
 Thermal correction to Enthalpy=                  0.286233
 Thermal correction to Gibbs Free Energy=         0.233404
 Sum of electronic and zero-point Energies=           -534.366270
 Sum of electronic and thermal Energies=              -534.353955
 Sum of electronic and thermal Enthalpies=            -534.353011
 Sum of electronic and thermal Free Energies=         -534.405839

                     E (Thermal)             CV                S
                      KCal/Mol        Cal/Mol-Kelvin    Cal/Mol-Kelvin
 Total                  179.021             47.039            111.187
 Electronic               0.000              0.000              0.000
 Translational            0.889              2.981             41.302
 Rotational               0.889              2.981             31.072
 Vibrational            177.244             41.077             38.812
 Vibration     1          0.594              1.984              5.827
 Vibration     2          0.595              1.980              5.060
 Vibration     3          0.597              1.971              4.289
 Vibration     4          0.608              1.934              3.131
 Vibration     5          0.618              1.904              2.687
 Vibration     6          0.640              1.833              2.089
 Vibration     7          0.651              1.797              1.889
 Vibration     8          0.658              1.777              1.792
 Vibration     9          0.675              1.725              1.585
 Vibration    10          0.693              1.673              1.414
 Vibration    11          0.702              1.646              1.339
 Vibration    12          0.767              1.466              0.956
 Vibration    13          0.784              1.424              0.887
 Vibration    14          0.803              1.375              0.816
 Vibration    15          0.849              1.264              0.674
 Vibration    16          0.881              1.193              0.597

                           ! Non-Optimized Parameters !

 1\1\GINC-NODE317\Freq\RB3LYP\6-31G(d)\C8H18N4\VSC10255\09-Dec-2020\0\\
 #N Geom=AllCheck Guess=TCheck SCRF=Check GenChk RB3LYP/6-31G(d) Freq\\
 CID_146974339_JID_2625_neutraal\\0,1\C,1.2086028078,-0.1698131816,0.04
 36090534\C,0.5021515935,-1.1763934695,0.9557363376\C,0.9254203224,-1.0
 92169645,2.4357790335\C,0.4174355451,0.1984946744,3.093548971\C,0.4443
 277877,-2.3202573732,3.2371950607\C,1.342822115,-3.5497418551,3.137998
 2511\N,0.8722769189,-4.6213021498,4.0151098446\C,1.3281241837,-5.85337
 7125,3.3822303528\C,0.2132925438,-6.8572371778,3.0919695112\N,-0.02968

 Normal termination of Gaussian 16 at Wed Dec  9 17:55:41 2020.

 ----------------------------------------------------------------------
 # B3LYP/6-311++G(d,p) empiricaldispersion=gd3bj scf=xqc pop=npa geom=c
 heck
 ----------------------------------------------------------------------

 ---------------------------------------
 CID_146974339_JID_2625_Energie_neutraal
 ---------------------------------------
 Structure from the checkpoint file:  "JID_2625.chk"
 Charge =  0 Multiplicity = 1

 SCF Done:  E(RB3LYP) =  -534.795970374     A.U. after   13 cycles
 Normal termination of Gaussian 16 at Wed Dec  9 17:58:54 2020.

 ----------------------------------------------------------------------
 # B3LYP/6-311++G(d,p) empiricaldispersion=gd3bj scf=xqc pop=npa geom=c
 heck
 ----------------------------------------------------------------------

 -------------------------------------
 CID_146974339_JID_2625_Energie_kation
 -------------------------------------
 Structure from the checkpoint file:  "JID_2625.chk"
 Charge =  1 Multiplicity = 2

 SCF Done:  E(UB3LYP) =  -534.496580052     A.U. after   22 cycles
 Normal termination of Gaussian 16 at Wed Dec  9 18:04:43 2020.
 Gaussian 16:  ES64L-G16RevA.03 25-Dec-2016

 ------------------------------------
 CID_146974339_JID_2625_Energie_anion
 ------------------------------------
 Structure from the checkpoint file:  "JID_2625.chk"
 Charge = -1 Multiplicity = 2

                         Standard orientation:
 ---------------------------------------------------------------------
 Center     Atomic      Atomic             Coordinates (Angstroms)
 Number     Number       Type             X           Y           Z
 ---------------------------------------------------------------------
      1          6           0        3.587871    1.670309   -0.185559
      2          6           0        2.409306    0.917568    0.437833
      3          6           0        2.198692   -0.502225   -0.124843
      4          6           0        3.323779   -1.452027    0.309415
      5          6           0        0.828326   -1.081019    0.286266
      6          6           0       -0.344572   -0.651172   -0.590265
      7          7           0       -1.576767   -1.334361   -0.197928
      8          6           0       -2.650143   -0.425579   -0.583055
      9          6           0       -3.588736   -0.045340    0.561190
     10          7           0       -2.601067    1.014185    0.918307
     11          7           0       -2.076443    0.960729   -0.491244
     12          7           0       -0.660534    0.818026   -0.502671
     13          1           0        4.543734    1.164723   -0.008976
     14          1           0        3.670562    2.681282    0.228962
     15          1           0        3.462017    1.767300   -1.271590
     16          1           0        2.554115    0.838478    1.525382
     17          1           0        1.489431    1.494263    0.300533
     18          1           0        2.221945   -0.439667   -1.225248
     19          1           0        3.315962   -1.583658    1.399175
     20          1           0        3.205420   -2.441508   -0.147125
     21          1           0        4.310657   -1.071233    0.027530
     22          1           0        0.866997   -2.177213    0.243906
     23          1           0        0.606802   -0.800748    1.325520
     24          1           0       -0.118348   -0.909248   -1.636964
     25          1           0       -1.569559   -1.397203    0.820218
     26          1           0       -3.054840   -0.674894   -1.567958
     27          1           0       -3.750317   -0.793420    1.343891
     28          1           0       -4.555382    0.323596    0.199881
     29          1           0       -3.040440    1.928993    1.033981
     30          1           0       -0.342207    1.297010   -1.342245
 ---------------------------------------------------------------------

 SCF Done:  E(UB3LYP) =  -534.779197331     A.U. after   30 cycles

 The electronic state is 2-A.
 Alpha  occ. eigenvalues --  -14.25730 -14.22485 -14.22244 -14.21129 -10.12872
 Alpha  occ. eigenvalues --  -10.12837 -10.10410 -10.07680 -10.07058 -10.06250
 Alpha  occ. eigenvalues --  -10.06007 -10.05857  -0.93867  -0.81880  -0.78201
 Alpha  occ. eigenvalues --   -0.71867  -0.66159  -0.63088  -0.59936  -0.59088
 Alpha  occ. eigenvalues --   -0.53844  -0.50935  -0.48121  -0.46040  -0.43441
 Alpha  occ. eigenvalues --   -0.41153  -0.38502  -0.37105  -0.35537  -0.34505
 Alpha  occ. eigenvalues --   -0.33335  -0.32783  -0.30842  -0.30625  -0.29114
 Alpha  occ. eigenvalues --   -0.28635  -0.27468  -0.26464  -0.26183  -0.25142
 Alpha  occ. eigenvalues --   -0.22854  -0.22169  -0.22017  -0.20920  -0.16511
 Alpha  occ. eigenvalues --   -0.14456  -0.12178   0.04552
 Alpha virt. eigenvalues --    0.06020   0.07211   0.07597   0.08715   0.08776
 Alpha virt. eigenvalues --    0.08968   0.10227   0.10736   0.10896   0.11359
 Alpha virt. eigenvalues --    0.12112   0.12510   0.13169   0.13817   0.14418

  Beta  occ. eigenvalues --  -14.25728 -14.22470 -14.22231 -14.21127 -10.12855
  Beta  occ. eigenvalues --  -10.12823 -10.10378 -10.07668 -10.07055 -10.06227
  Beta  occ. eigenvalues --  -10.06003 -10.05827  -0.93848  -0.81859  -0.78180
  Beta  occ. eigenvalues --   -0.71845  -0.66129  -0.63052  -0.59883  -0.59052
  Beta  occ. eigenvalues --   -0.53791  -0.50896  -0.48068  -0.45993  -0.43381
  Beta  occ. eigenvalues --   -0.41116  -0.38460  -0.37076  -0.35514  -0.34472
  Beta  occ. eigenvalues --   -0.33310  -0.32758  -0.30803  -0.30593  -0.29085
  Beta  occ. eigenvalues --   -0.28605  -0.27432  -0.26422  -0.26151  -0.25111
  Beta  occ. eigenvalues --   -0.22813  -0.22149  -0.21998  -0.20883  -0.16493
  Beta  occ. eigenvalues --   -0.14427  -0.12157
  Beta virt. eigenvalues --    0.06661   0.07282   0.07792   0.08025   0.09158
  Beta virt. eigenvalues --    0.09267   0.09483   0.10615   0.11123   0.11347
  Beta virt. eigenvalues --    0.11640   0.12455   0.12829   0.13403   0.14004

 Mulliken charges and spin densities:
               1          2
     1  C    0.949909  -1.660938
     2  C   -1.042648   0.863490
     3  C   -0.356509   0.530686
     4  C    0.764926  -1.463709
     5  C   -0.136892   0.860308
     6  C   -0.302200  -1.589924
     7  N    0.234144  -0.058877
     8  C   -1.490148   1.336438
     9  C    2.299546  -2.710403
    10  N   -0.292170   0.035772
    11  N    0.080606   0.154670
    12  N    0.067369  -0.234129
    13  H   -0.057482   0.183735
    14  H   -0.066455   0.194948
    15  H   -0.421242   0.568408
    16  H   -0.011487   0.127959
    17  H    0.295399  -0.079285
    18  H   -0.000009   0.155369
    19  H   -0.006587   0.145603
    20  H   -0.055236   0.181292
    21  H   -0.312877   0.448654
    22  H    0.065573   0.113345
    23  H    0.091645   0.029634
    24  H   -0.277231   0.473723
    25  H    0.283365  -0.064644
    26  H   -0.678817   0.944903
    27  H   -0.083633   0.249435
    28  H   -0.745002   0.901746
    29  H    0.083780   0.180711
    30  H    0.120363   0.181080
 Sum of Mulliken charges =  -1.00000   1.00000

 Dipole moment (field-independent basis, Debye):
    X=              1.8306    Y=             -1.3417    Z=              3.4895  Tot=              4.1627
 Quadrupole moment (field-independent basis, Debye-Ang):
   XX=           -173.2665   YY=           -111.9253   ZZ=           -108.5160
   XY=              0.9978   XZ=             -0.3008   YZ=             -1.0682

 Summary of Natural Population Analysis:

                                       Natural Population
                Natural  -----------------------------------------------
    Atom  No    Charge         Core      Valence    Rydberg      Total
 -----------------------------------------------------------------------
      C    1   -0.28550      0.99967     2.28100    0.00483     3.28550
      C    2   -0.19371      0.99961     2.18580    0.00830     3.19371
      C    3   -0.11252      0.99960     2.10228    0.01063     3.11252
      C    4   -0.28317      0.99965     2.27711    0.00640     3.28317
      C    5   -0.19303      0.99958     2.18313    0.01031     3.19303
      C    6    0.08020      0.99961     1.90649    0.01371     2.91980
      N    7   -0.33707      0.99974     2.82616    0.01117     3.83707
      C    8    0.07474      0.99963     1.90874    0.01689     2.92526
      C    9   -0.10235      0.99962     2.09165    0.01109     3.10235
      N   10   -0.25256      0.99977     2.74003    0.01275     3.75256
      N   11   -0.11157      0.99977     2.59565    0.01615     3.61157
      N   12   -0.25348      0.99972     2.74052    0.01324     3.75348
      H   13    0.09490      0.00000     0.40396    0.00113     0.40510
      H   14    0.09718      0.00000     0.40209    0.00074     0.40282
      H   15    0.09755      0.00000     0.40112    0.00133     0.40245
      H   16    0.08941      0.00000     0.40944    0.00115     0.41059
      H   17    0.10980      0.00000     0.38821    0.00199     0.39020
      H   18    0.09226      0.00000     0.40547    0.00227     0.40774
      H   19    0.09393      0.00000     0.40518    0.00089     0.40607
      H   20    0.09805      0.00000     0.40104    0.00091     0.40195
      H   21    0.10081      0.00000     0.39826    0.00094     0.39919
      H   22    0.10152      0.00000     0.39729    0.00119     0.39848
      H   23    0.09841      0.00000     0.40012    0.00148     0.40159
      H   24    0.08465      0.00000     0.41348    0.00188     0.41535
      H   25    0.17324      0.00000     0.32314    0.00362     0.32676
      H   26    0.09706      0.00000     0.40080    0.00214     0.40294
      H   27    0.09123      0.00000     0.40765    0.00112     0.40877
      H   28    0.09843      0.00000     0.39745    0.00412     0.40157
      H   29    0.17235      0.00000     0.32454    0.00311     0.32765
      H   30    0.17925      0.00000     0.31718    0.00356     0.32075
 =======================================================================
   * Total *    0.00000     11.99597    34.83498    0.16905    47.00000

 Normal termination of Gaussian 16 at Wed Dec  9 18:13:00 2020.
