 Gaussian 16, Revision A.03,

 -----------------------------------------------------------
 # opt freq B3LYP/6-31G(d) empiricaldispersion=gd3bj scf=xqc
 -----------------------------------------------------------

 ------------------------------
 CID_80633221_JID_7793_neutraal
 ------------------------------
 Symbolic Z-matrix:
 Charge =  0 Multiplicity = 1

 SCF Done:  E(RB3LYP) =  -711.656836522     A.U. after   14 cycles
 SCF Done:  E(RB3LYP) =  -711.663746556     A.U. after   12 cycles
 SCF Done:  E(RB3LYP) =  -711.664476446     A.U. after   11 cycles
 SCF Done:  E(RB3LYP) =  -711.664651011     A.U. after   11 cycles
 SCF Done:  E(RB3LYP) =  -711.664690448     A.U. after   10 cycles
 SCF Done:  E(RB3LYP) =  -711.664704424     A.U. after   10 cycles
 SCF Done:  E(RB3LYP) =  -711.664707217     A.U. after    8 cycles
 SCF Done:  E(RB3LYP) =  -711.664708001     A.U. after    8 cycles
 SCF Done:  E(RB3LYP) =  -711.664708220     A.U. after    6 cycles
 Optimization completed.
    -- Stationary point found.
 Normal termination of Gaussian 16 at Sun Dec 13 20:07:09 2020.

 --------------------------------------------------------------------
 #N Geom=AllCheck Guess=TCheck SCRF=Check GenChk RB3LYP/6-31G(d) Freq
 --------------------------------------------------------------------

 Structure from the checkpoint file:  "JID_7793.chk"
 ------------------------------
 CID_80633221_JID_7793_neutraal
 ------------------------------
 Charge =  0 Multiplicity = 1

 SCF Done:  E(RB3LYP) =  -711.664708220     A.U. after    1 cycles

  Exact polarizability: 235.259   1.300 154.598 -16.627  -0.094 117.328
 Approx polarizability: 290.886   1.618 251.042 -40.352  -0.208 184.476

                      1                      2                      3
                      A                      A                      A
 Frequencies --     26.8753                37.0265                65.3931
 Red. masses --      3.9149                 4.0452                 4.1066
 Frc consts  --      0.0017                 0.0033                 0.0103
 IR Inten    --      0.8615                 0.5138                 0.4912

                      4                      5                      6
                      A                      A                      A
 Frequencies --     72.4619                88.5443               123.0581
 Red. masses --      4.2895                 3.0379                 2.7363
 Frc consts  --      0.0133                 0.0140                 0.0244
 IR Inten    --      0.5770                 0.3090                 3.3018

                      7                      8                      9
                      A                      A                      A
 Frequencies --    138.0198               173.9296               214.5059
 Red. masses --      2.1105                 2.5880                 2.9188
 Frc consts  --      0.0237                 0.0461                 0.0791
 IR Inten    --      0.2794                 2.3874                 6.3336

                     10                     11                     12
                      A                      A                      A
 Frequencies --    234.5785               263.0172               290.2875
 Red. masses --      3.2765                 2.4911                 1.4285
 Frc consts  --      0.1062                 0.1015                 0.0709
 IR Inten    --      0.4930                10.0686                70.4481

                     13                     14                     15
                      A                      A                      A
 Frequencies --    294.9406               313.2418               350.6888
 Red. masses --      2.8117                 1.7900                 3.4424
 Frc consts  --      0.1441                 0.1035                 0.2494
 IR Inten    --     13.3957                 0.2704                13.9726

                     16                     17                     18
                      A                      A                      A
 Frequencies --    378.2528               425.3053               426.6556
 Red. masses --      2.6608                 2.4304                 3.5832
 Frc consts  --      0.2243                 0.2590                 0.3843
 IR Inten    --      0.3875                 6.5739                 4.6097

                     19                     20                     21
                      A                      A                      A
 Frequencies --    452.2618               462.1138               503.4659
 Red. masses --      2.0484                 2.1605                 2.6613
 Frc consts  --      0.2469                 0.2718                 0.3975
 IR Inten    --      4.1293                 1.2030                 7.5376

                     22                     23                     24
                      A                      A                      A
 Frequencies --    519.0131               528.7268               553.2757
 Red. masses --      2.4508                 2.5577                 2.2968
 Frc consts  --      0.3890                 0.4213                 0.4143
 IR Inten    --      2.1795                 4.5939                 9.3062

                     25                     26                     27
                      A                      A                      A
 Frequencies --    592.6438               659.2493               689.0674
 Red. masses --      2.4660                 5.8996                 2.6983
 Frc consts  --      0.5103                 1.5107                 0.7549
 IR Inten    --      5.5049                 0.8601                 1.5654

                     28                     29                     30
                      A                      A                      A
 Frequencies --    724.7554               772.9112               796.4477
 Red. masses --      2.4460                 4.0947                 1.8771
 Frc consts  --      0.7570                 1.4412                 0.7016
 IR Inten    --      1.9937                 3.6016                 7.4781

                     31                     32                     33
                      A                      A                      A
 Frequencies --    798.8853               813.4177               822.9895
 Red. masses --      1.6384                 3.1011                 1.7243
 Frc consts  --      0.6161                 1.2089                 0.6881
 IR Inten    --      6.1837                 7.4386                25.9510

                     34                     35                     36
                      A                      A                      A
 Frequencies --    833.0083               869.3247               871.3836
 Red. masses --      2.2631                 2.0398                 2.1949
 Frc consts  --      0.9253                 0.9082                 0.9819
 IR Inten    --      0.8051                43.5512                22.4377

                     37                     38                     39
                      A                      A                      A
 Frequencies --    895.6106               930.2549               950.3310
 Red. masses --      1.3464                 2.1488                 1.8787
 Frc consts  --      0.6363                 1.0956                 0.9997
 IR Inten    --     55.8672                 3.9930                 0.4875

                     40                     41                     42
                      A                      A                      A
 Frequencies --    957.4415               959.4694               972.7289
 Red. masses --      1.6845                 1.5967                 1.3248
 Frc consts  --      0.9098                 0.8660                 0.7386
 IR Inten    --     11.7491                 2.7908                 0.0551

                     43                     44                     45
                      A                      A                      A
 Frequencies --    996.1886              1012.5420              1025.1966
 Red. masses --      2.1822                 1.7343                 2.8734
 Frc consts  --      1.2760                 1.0476                 1.7793
 IR Inten    --      0.7037                 1.8082                17.5160

                     46                     47                     48
                      A                      A                      A
 Frequencies --   1041.4871              1061.8440              1073.1688
 Red. masses --      2.7553                 2.0259                 2.1552
 Frc consts  --      1.7609                 1.3458                 1.4624
 IR Inten    --      3.0580                21.3654                30.6629

                     49                     50                     51
                      A                      A                      A
 Frequencies --   1097.2826              1119.5600              1140.8332
 Red. masses --      2.2320                 1.9477                 2.3645
 Frc consts  --      1.5833                 1.4383                 1.8131
 IR Inten    --      5.0684                 7.1695                 0.2544

                     52                     53                     54
                      A                      A                      A
 Frequencies --   1158.8804              1167.9194              1178.1186
 Red. masses --      2.2687                 1.9012                 1.3401
 Frc consts  --      1.7952                 1.5279                 1.0959
 IR Inten    --      3.6833                 4.0400                 0.2841

                     55                     56                     57
                      A                      A                      A
 Frequencies --   1193.6599              1207.5404              1226.1122
 Red. masses --      1.2419                 1.1671                 1.3489
 Frc consts  --      1.0426                 1.0027                 1.1948
 IR Inten    --     15.1496                 2.6630                 3.0493

                     58                     59                     60
                      A                      A                      A
 Frequencies --   1239.9560              1257.7693              1270.6283
 Red. masses --      1.4848                 2.2560                 1.2633
 Frc consts  --      1.3450                 2.1028                 1.2017
 IR Inten    --      8.7856                 2.2623                 3.9217

                     61                     62                     63
                      A                      A                      A
 Frequencies --   1285.1615              1301.0522              1328.3349
 Red. masses --      1.4293                 1.5901                 1.2565
 Frc consts  --      1.3908                 1.5858                 1.3062
 IR Inten    --    108.0741                 9.1308                22.2165

                     64                     65                     66
                      A                      A                      A
 Frequencies --   1332.3482              1343.7431              1356.5982
 Red. masses --      1.2520                 2.0040                 1.3927
 Frc consts  --      1.3095                 2.1320                 1.5101
 IR Inten    --      0.1599                 1.2948                 5.4039

                     67                     68                     69
                      A                      A                      A
 Frequencies --   1368.7779              1376.2465              1378.6059
 Red. masses --      1.4445                 1.2928                 1.4763
 Frc consts  --      1.5945                 1.4427                 1.6531
 IR Inten    --     19.1119                12.1129                19.8139

                     70                     71                     72
                      A                      A                      A
 Frequencies --   1394.7278              1405.9644              1411.8539
 Red. masses --      1.3490                 1.3199                 1.3317
 Frc consts  --      1.5461                 1.5372                 1.5640
 IR Inten    --      6.3686                 6.3464                12.5319

                     73                     74                     75
                      A                      A                      A
 Frequencies --   1414.8223              1427.5287              1430.0730
 Red. masses --      1.3456                 1.3825                 1.4248
 Frc consts  --      1.5870                 1.6600                 1.7168
 IR Inten    --     36.3901                 5.9149                 1.8859

                     76                     77                     78
                      A                      A                      A
 Frequencies --   1438.8014              1440.7171              1459.9795
 Red. masses --      1.5982                 1.8267                 2.5252
 Frc consts  --      1.9493                 2.2339                 3.1713
 IR Inten    --     26.2721                 2.2351               142.2712

                     79                     80                     81
                      A                      A                      A
 Frequencies --   1503.0959              1507.7876              1508.4105
 Red. masses --      1.1535                 1.1076                 1.0807
 Frc consts  --      1.5355                 1.4836                 1.4487
 IR Inten    --     18.0685                 4.0126                 1.0618

                     82                     83                     84
                      A                      A                      A
 Frequencies --   1517.5612              1520.8905              1525.2832
 Red. masses --      1.0756                 1.0950                 1.0912
 Frc consts  --      1.4595                 1.4923                 1.4958
 IR Inten    --      1.8330                 3.4332                 3.1505

                     85                     86                     87
                      A                      A                      A
 Frequencies --   1536.1905              1539.4089              1545.5247
 Red. masses --      1.1441                 1.1494                 1.5824
 Frc consts  --      1.5908                 1.6048                 2.2271
 IR Inten    --     19.0316                20.3769               116.4359

                     88                     89                     90
                      A                      A                      A
 Frequencies --   1554.9265              1607.7164              1670.5363
 Red. masses --      1.3257                 5.3533                 5.1190
 Frc consts  --      1.8885                 8.1525                 8.4168
 IR Inten    --    153.5613                55.3822               206.7957

                     91                     92                     93
                      A                      A                      A
 Frequencies --   1694.2765              2945.0321              3020.5474
 Red. masses --      1.1194                 1.0735                 1.0628
 Frc consts  --      1.8933                 5.4855                 5.7129
 IR Inten    --     39.8123                75.6981                26.5601

                     94                     95                     96
                      A                      A                      A
 Frequencies --   3023.2682              3038.3867              3045.2006
 Red. masses --      1.0616                 1.0675                 1.0632
 Frc consts  --      5.7168                 5.8064                 5.8091
 IR Inten    --     23.1229                18.8621                23.0204

                     97                     98                     99
                      A                      A                      A
 Frequencies --   3047.6821              3053.8499              3055.0966
 Red. masses --      1.0705                 1.0964                 1.0959
 Frc consts  --      5.8581                 6.0242                 6.0265
 IR Inten    --     46.2239                21.8914                41.7153

                    100                    101                    102
                      A                      A                      A
 Frequencies --   3059.6895              3069.1885              3071.1731
 Red. masses --      1.0704                 1.0873                 1.0917
 Frc consts  --      5.9039                 6.0343                 6.0667
 IR Inten    --     18.1922                98.0511                61.7616

                    103                    104                    105
                      A                      A                      A
 Frequencies --   3075.5019              3084.0376              3096.2981
 Red. masses --      1.0694                 1.0723                 1.1019
 Frc consts  --      5.9599                 6.0089                 6.2240
 IR Inten    --      9.5654                71.0417                20.0181

                    106                    107                    108
                      A                      A                      A
 Frequencies --   3098.2555              3108.7611              3113.2395
 Red. masses --      1.0973                 1.0966                 1.1019
 Frc consts  --      6.2061                 6.2441                 6.2926
 IR Inten    --     56.1597                38.9561                51.4895

                    109                    110                    111
                      A                      A                      A
 Frequencies --   3157.9207              3166.3532              3173.8721
 Red. masses --      1.0901                 1.0941                 1.0897
 Frc consts  --      6.4052                 6.4630                 6.4674
 IR Inten    --     34.4903                 5.3643                19.4241

                    112                    113                    114
                      A                      A                      A
 Frequencies --   3236.4054              3465.8796              3550.7088
 Red. masses --      1.0910                 1.0498                 1.0919
 Frc consts  --      6.7330                 7.4303                 8.1109
 IR Inten    --     15.1062                 2.9327                 0.1488

 - Thermochemistry -
 -------------------
 Temperature   298.150 Kelvin.  Pressure   1.00000 Atm.
 Atom     1 has atomic number  6 and mass  12.00000

 Molecular mass:   233.18920 amu.
 Principal axes and moments of inertia in atomic units:
                           1         2         3
     Eigenvalues --  1442.977038643.198799249.31965
           X            1.00000   0.00204   0.00143
           Y           -0.00204   0.99999   0.00437
           Z           -0.00142  -0.00437   0.99999
 This molecule is an asymmetric top.
 Rotational symmetry number  1.
 Warning -- assumption of classical behavior for rotation
           may cause significant error
 Rotational temperatures (Kelvin)      0.06002     0.01002     0.00936
 Rotational constants (GHZ):           1.25071     0.20880     0.19512
 Zero-point vibrational energy     952212.8 (Joules/Mol)
                                  227.58431 (Kcal/Mol)
 Warning -- explicit consideration of  25 degrees of freedom as
           vibrations may cause significant error
 Vibrational temperatures:     38.67    53.27    94.09   104.26   127.40
          (Kelvin)            177.05   198.58   250.25   308.63   337.51
                              378.42   417.66   424.35   450.69   504.56
                              544.22   611.92   613.86   650.70   664.88
                              724.38   746.74   760.72   796.04   852.68
                              948.51   991.41  1042.76  1112.05  1145.91
                             1149.42  1170.33  1184.10  1198.51  1250.76
                             1253.73  1288.58  1338.43  1367.31  1377.54
                             1380.46  1399.54  1433.29  1456.82  1475.03
                             1498.47  1527.76  1544.05  1578.74  1610.80
                             1641.40  1667.37  1680.38  1695.05  1717.41
                             1737.38  1764.10  1784.02  1809.65  1828.15
                             1849.06  1871.92  1911.18  1916.95  1933.35
                             1951.84  1969.37  1980.11  1983.51  2006.70
                             2022.87  2031.34  2035.61  2053.90  2057.56
                             2070.11  2072.87  2100.58  2162.62  2169.37
                             2170.27  2183.43  2188.22  2194.54  2210.24
                             2214.87  2223.67  2237.19  2313.15  2403.53
                             2437.69  4237.24  4345.89  4349.81  4371.56
                             4381.36  4384.93  4393.81  4395.60  4402.21
                             4415.88  4418.73  4424.96  4437.24  4454.88
                             4457.70  4472.81  4479.26  4543.54  4555.68
                             4566.49  4656.47  4986.63  5108.68

 Zero-point correction=                           0.362679 (Hartree/Particle)
 Thermal correction to Energy=                    0.378922
 Thermal correction to Enthalpy=                  0.379866
 Thermal correction to Gibbs Free Energy=         0.318121
 Sum of electronic and zero-point Energies=           -711.302030
 Sum of electronic and thermal Energies=              -711.285786
 Sum of electronic and thermal Enthalpies=            -711.284842
 Sum of electronic and thermal Free Energies=         -711.346587

                     E (Thermal)             CV                S
                      KCal/Mol        Cal/Mol-Kelvin    Cal/Mol-Kelvin
 Total                  237.777             63.960            129.954
 Electronic               0.000              0.000              0.000
 Translational            0.889              2.981             42.242
 Rotational               0.889              2.981             33.111
 Vibrational            236.000             57.999             54.601
 Vibration     1          0.593              1.984              6.048
 Vibration     2          0.594              1.982              5.412
 Vibration     3          0.597              1.971              4.287
 Vibration     4          0.599              1.967              4.085
 Vibration     5          0.601              1.957              3.692
 Vibration     6          0.610              1.930              3.052
 Vibration     7          0.614              1.915              2.831
 Vibration     8          0.627              1.875              2.393
 Vibration     9          0.644              1.819              2.005
 Vibration    10          0.654              1.788              1.844
 Vibration    11          0.670              1.741              1.642
 Vibration    12          0.686              1.692              1.472
 Vibration    13          0.689              1.683              1.445
 Vibration    14          0.701              1.648              1.345
 Vibration    15          0.728              1.574              1.163
 Vibration    16          0.749              1.516              1.046
 Vibration    17          0.787              1.415              0.874
 Vibration    18          0.788              1.412              0.870
 Vibration    19          0.811              1.356              0.789
 Vibration    20          0.820              1.334              0.760
 Vibration    21          0.859              1.242              0.650
 Vibration    22          0.874              1.208              0.612
 Vibration    23          0.884              1.186              0.590
 Vibration    24          0.909              1.133              0.537
 Vibration    25          0.950              1.047              0.462

                           ! Non-Optimized Parameters !
 Normal termination of Gaussian 16 at Sun Dec 13 20:23:01 2020.

 ----------------------------------------------------------------------
 # B3LYP/6-311++G(d,p) empiricaldispersion=gd3bj scf=xqc pop=npa geom=c
 heck
 ----------------------------------------------------------------------

 --------------------------------------
 CID_80633221_JID_7793_Energie_neutraal
 --------------------------------------
 Structure from the checkpoint file:  "JID_7793.chk"
 Charge =  0 Multiplicity = 1

 SCF Done:  E(RB3LYP) =  -711.860052885     A.U. after   14 cycles
 Normal termination of Gaussian 16 at Sun Dec 13 20:30:50 2020.

 ----------------------------------------------------------------------
 # B3LYP/6-311++G(d,p) empiricaldispersion=gd3bj scf=xqc pop=npa geom=c
 heck
 ----------------------------------------------------------------------

 ------------------------------------
 CID_80633221_JID_7793_Energie_kation
 ------------------------------------
 Structure from the checkpoint file:  "JID_7793.chk"
 Charge =  1 Multiplicity = 2

 SCF Done:  E(UB3LYP) =  -711.602433142     A.U. after   21 cycles
 Normal termination of Gaussian 16 at Sun Dec 13 20:49:08 2020.
 Gaussian 16:  ES64L-G16RevA.03 25-Dec-2016

 ----------------------------------------------------------------------
 # B3LYP/6-311++G(d,p) empiricaldispersion=gd3bj scf=xqc pop=npa geom=c
 heck
 ----------------------------------------------------------------------

 -----------------------------------
 CID_80633221_JID_7793_Energie_anion
 -----------------------------------
 Structure from the checkpoint file:  "JID_7793.chk"
 Charge = -1 Multiplicity = 2

                         Standard orientation:
 ---------------------------------------------------------------------
 Center     Atomic      Atomic             Coordinates (Angstroms)
 Number     Number       Type             X           Y           Z
 ---------------------------------------------------------------------
      1          6           0       -4.512438   -0.159461   -0.027204
      2          6           0       -3.892096   -1.380534   -0.722331
      3          6           0       -2.374791   -1.608925   -0.567738
      4          6           0       -1.784393   -1.340430    0.838945
      5          7           0       -1.120350   -0.040499    0.961992
      6          6           0       -1.963671    1.141110    1.088707
      7          6           0       -2.585056    1.628349   -0.245906
      8          6           0       -4.061560    1.240101   -0.472321
      9          6           0        0.142466    0.087555    0.404332
     10          7           0        0.783557   -1.054665    0.091803
     11          6           0        2.025336   -0.987022   -0.393968
     12          6           0        2.732253    0.194146   -0.626373
     13          6           0        2.045638    1.378587   -0.323904
     14          6           0        0.755686    1.345377    0.179402
     15          6           0        4.152562    0.190800   -1.133905
     16          6           0        5.185092    0.292109    0.000911
     17          7           0        5.105851   -0.888874    0.862605
     18          1           0       -4.376657   -0.255189    1.057343
     19          1           0       -5.598433   -0.213046   -0.180591
     20          1           0       -4.413016   -2.264734   -0.329364
     21          1           0       -4.132470   -1.345162   -1.794053
     22          1           0       -1.818051   -0.999385   -1.286118
     23          1           0       -2.164550   -2.648515   -0.846058
     24          1           0       -1.039330   -2.098547    1.072815
     25          1           0       -2.560383   -1.386753    1.610104
     26          1           0       -1.370150    1.936261    1.547285
     27          1           0       -2.746584    0.905725    1.815786
     28          1           0       -1.961040    1.252269   -1.062763
     29          1           0       -2.516816    2.722317   -0.300318
     30          1           0       -4.297311    1.373934   -1.536898
     31          1           0       -4.690541    1.962354    0.066275
     32          1           0        2.492139   -1.944705   -0.623802
     33          1           0        2.524398    2.339910   -0.499734
     34          1           0        0.236068    2.273882    0.376601
     35          1           0        4.348278   -0.732595   -1.690595
     36          1           0        4.305782    1.030495   -1.823889
     37          1           0        6.191179    0.326148   -0.434886
     38          1           0        5.031135    1.250560    0.531185
     39          1           0        5.791336   -0.816870    1.612261
     40          1           0        4.191438   -0.910661    1.312721
 ---------------------------------------------------------------------

 SCF Done:  E(UB3LYP) =  -711.848580779     A.U. after   33 cycles
 SCF Done:  E(UB3LYP) =  -711.848580779     a.u. after    1 cycles

 The electronic state is 2-A.
 Alpha  occ. eigenvalues --  -14.23177 -14.20195 -14.20001 -10.14292 -10.10654
 Alpha  occ. eigenvalues --  -10.10431 -10.10169 -10.10103 -10.08491 -10.07939
 Alpha  occ. eigenvalues --  -10.07714 -10.07621 -10.07531 -10.07310 -10.07238
 Alpha  occ. eigenvalues --  -10.07186 -10.07167  -0.87623  -0.81682  -0.79402
 Alpha  occ. eigenvalues --   -0.71678  -0.71219  -0.68866  -0.67325  -0.63469
 Alpha  occ. eigenvalues --   -0.60541  -0.60425  -0.55700  -0.53232  -0.51237
 Alpha  occ. eigenvalues --   -0.49808  -0.48328  -0.46094  -0.43063  -0.41265
 Alpha  occ. eigenvalues --   -0.40364  -0.38232  -0.37935  -0.37097  -0.36132
 Alpha  occ. eigenvalues --   -0.35339  -0.34512  -0.33963  -0.33580  -0.32026
 Alpha  occ. eigenvalues --   -0.31131  -0.30209  -0.29659  -0.28867  -0.28197
 Alpha  occ. eigenvalues --   -0.28096  -0.27520  -0.27315  -0.25187  -0.25025
 Alpha  occ. eigenvalues --   -0.24740  -0.23820  -0.22462  -0.21498  -0.19156
 Alpha  occ. eigenvalues --   -0.18380  -0.15994  -0.15504  -0.10554   0.03929
 Alpha virt. eigenvalues --    0.05359   0.06472   0.06714   0.07129   0.07498
 Alpha virt. eigenvalues --    0.07614   0.08201   0.09066   0.09316   0.09839
 Alpha virt. eigenvalues --    0.09917   0.10037   0.10495   0.10961   0.11476

  Beta  occ. eigenvalues --  -14.23177 -14.20173 -14.19972 -10.14280 -10.10639
  Beta  occ. eigenvalues --  -10.10429 -10.10148 -10.10098 -10.08435 -10.07932
  Beta  occ. eigenvalues --  -10.07714 -10.07615 -10.07519 -10.07294 -10.07217
  Beta  occ. eigenvalues --  -10.07181 -10.07154  -0.87597  -0.81652  -0.79363
  Beta  occ. eigenvalues --   -0.71637  -0.71171  -0.68840  -0.67283  -0.63431
  Beta  occ. eigenvalues --   -0.60509  -0.60388  -0.55658  -0.53182  -0.51187
  Beta  occ. eigenvalues --   -0.49771  -0.48285  -0.46046  -0.43025  -0.41238
  Beta  occ. eigenvalues --   -0.40325  -0.38209  -0.37898  -0.37059  -0.36094
  Beta  occ. eigenvalues --   -0.35306  -0.34480  -0.33927  -0.33544  -0.31997
  Beta  occ. eigenvalues --   -0.31091  -0.30142  -0.29632  -0.28846  -0.28162
  Beta  occ. eigenvalues --   -0.28063  -0.27486  -0.27283  -0.25161  -0.25001
  Beta  occ. eigenvalues --   -0.24708  -0.23791  -0.22426  -0.21467  -0.19055
  Beta  occ. eigenvalues --   -0.18260  -0.15961  -0.15476  -0.10513
  Beta virt. eigenvalues --    0.05907   0.06231   0.06863   0.07298   0.07415
  Beta virt. eigenvalues --    0.07812   0.07986   0.08530   0.09283   0.09578
  Beta virt. eigenvalues --    0.09994   0.10211   0.10330   0.10715   0.11109

 Mulliken charges and spin densities:
               1          2
     1  C   -0.402345   0.489719
     2  C    0.237248  -0.921926
     3  C   -0.087114   0.140156
     4  C   -0.331947  -0.179242
     5  N    0.221918   0.009273
     6  C   -0.203368  -0.031614
     7  C    0.126777  -0.204442
     8  C    0.667564  -1.363343
     9  C   -0.330421  -0.346505
    10  N   -0.028363   0.042323
    11  C   -1.966683   1.256310
    12  C    1.259924  -0.425910
    13  C    0.860906  -0.849163
    14  C    0.036918  -0.108369
    15  C   -0.063676  -0.429042
    16  C    0.776611  -1.225502
    17  N   -0.509915   0.087870
    18  H    0.038573   0.044751
    19  H   -0.303324   0.492022
    20  H   -0.024848   0.160447
    21  H   -0.090273   0.233443
    22  H    0.126509   0.029011
    23  H    0.123701   0.044871
    24  H    0.241809  -0.017612
    25  H    0.029642   0.104040
    26  H   -0.111711   0.313088
    27  H   -0.080845   0.227400
    28  H    0.265173  -0.131365
    29  H   -0.283344   0.465992
    30  H   -0.155799   0.305824
    31  H   -0.256335   0.408153
    32  H    0.064428   0.122779
    33  H   -0.590850   0.780117
    34  H   -0.225688   0.380110
    35  H    0.157347   0.000576
    36  H   -0.093265   0.235967
    37  H   -0.238241   0.389294
    38  H   -0.075699   0.200943
    39  H   -0.008804   0.245842
    40  H    0.227809   0.023713
 Sum of Mulliken charges =  -1.00000   1.00000

 Dipole moment (field-independent basis, Debye):
    X=             -0.4747    Y=             -3.6164    Z=              0.0877  Tot=              3.6485
 Quadrupole moment (field-independent basis, Debye-Ang):
   XX=           -226.1284   YY=           -153.8196   ZZ=           -132.6211
   XY=              6.0351   XZ=             -4.0805   YZ=             -0.1220

 Summary of Natural Population Analysis:

                                       Natural Population
                Natural  -----------------------------------------------
    Atom  No    Charge         Core      Valence    Rydberg      Total
 -----------------------------------------------------------------------
      C    1   -0.19351      0.99962     2.18527    0.00862     3.19351
      C    2   -0.18894      0.99962     2.18086    0.00846     3.18894
      C    3   -0.20068      0.99962     2.19340    0.00766     3.20068
      C    4   -0.08642      0.99960     2.07699    0.00983     3.08642
      N    5   -0.25056      0.99965     2.73973    0.01117     3.75056
      C    6   -0.08588      0.99961     2.07456    0.01172     3.08588
      C    7   -0.20347      0.99962     2.19499    0.00886     3.20347
      C    8   -0.18803      0.99962     2.17976    0.00865     3.18803
      C    9    0.20810      0.99952     1.77709    0.01530     2.79190
      N   10   -0.26195      0.99967     2.75260    0.00968     3.76195
      C   11    0.03568      0.99953     1.95205    0.01275     2.96432
      C   12   -0.06511      0.99949     2.05494    0.01068     3.06511
      C   13   -0.06563      0.99952     2.05570    0.01041     3.06563
      C   14   -0.14237      0.99952     2.13437    0.00847     3.14237
      C   15   -0.20023      0.99960     2.18973    0.01090     3.20023
      C   16   -0.08381      0.99964     2.07336    0.01082     3.08381
      N   17   -0.42597      0.99977     2.91546    0.01074     3.92597
      H   18    0.09092      0.00000     0.40773    0.00135     0.40908
      H   19    0.10135      0.00000     0.39735    0.00130     0.39865
      H   20    0.09374      0.00000     0.40520    0.00106     0.40626
      H   21    0.09554      0.00000     0.40348    0.00098     0.40446
      H   22    0.10055      0.00000     0.39813    0.00132     0.39945
      H   23    0.09858      0.00000     0.40049    0.00093     0.40142
      H   24    0.11341      0.00000     0.38526    0.00133     0.38659
      H   25    0.09176      0.00000     0.40722    0.00103     0.40824
      H   26    0.10163      0.00000     0.39693    0.00143     0.39837
      H   27    0.09689      0.00000     0.40192    0.00119     0.40311
      H   28    0.09880      0.00000     0.39967    0.00153     0.40120
      H   29    0.10189      0.00000     0.39650    0.00161     0.39811
      H   30    0.09600      0.00000     0.40290    0.00110     0.40400
      H   31    0.09763      0.00000     0.40075    0.00162     0.40237
      H   32    0.09001      0.00000     0.40872    0.00127     0.40999
      H   33    0.10119      0.00000     0.39745    0.00136     0.39881
      H   34    0.10664      0.00000     0.39156    0.00180     0.39336
      H   35    0.10169      0.00000     0.39705    0.00126     0.39831
      H   36    0.10292      0.00000     0.39599    0.00108     0.39708
      H   37    0.08899      0.00000     0.40950    0.00151     0.41101
      H   38    0.07824      0.00000     0.41979    0.00197     0.42176
      H   39    0.17466      0.00000     0.32375    0.00159     0.32534
      H   40    0.17575      0.00000     0.32228    0.00197     0.32425
 =======================================================================
   * Total *   -0.00000     16.99323    46.80050    0.20628    64.00000

 Normal termination of Gaussian 16 at Sun Dec 13 21:17:23 2020.
