 Gaussian 16, Revision A.03,

 -----------------------------------------------------------
 # opt freq B3LYP/6-31G(d) empiricaldispersion=gd3bj scf=xqc
 -----------------------------------------------------------

 -------------------------------
 CID_143473161_JID_6007_neutraal
 -------------------------------
 Symbolic Z-matrix:
 Charge =  0 Multiplicity = 1

 SCF Done:  E(RB3LYP) =  -642.694311126     A.U. after   14 cycles
 SCF Done:  E(RB3LYP) =  -642.699350835     A.U. after   14 cycles
 SCF Done:  E(RB3LYP) =  -642.693503893     A.U. after   14 cycles
 SCF Done:  E(RB3LYP) =  -642.695850522     A.U. after   13 cycles
 SCF Done:  E(RB3LYP) =  -642.699979619     A.U. after   10 cycles
 SCF Done:  E(RB3LYP) =  -642.700571282     A.U. after   12 cycles
 SCF Done:  E(RB3LYP) =  -642.700806492     A.U. after   13 cycles
 SCF Done:  E(RB3LYP) =  -642.695490022     A.U. after   14 cycles
 SCF Done:  E(RB3LYP) =  -642.700420788     A.U. after   13 cycles
 SCF Done:  E(RB3LYP) =  -642.701308599     A.U. after   10 cycles
 SCF Done:  E(RB3LYP) =  -642.703127585     A.U. after    7 cycles
 SCF Done:  E(RB3LYP) =  -642.703127660     A.U. after    7 cycles
 SCF Done:  E(RB3LYP) =  -642.703127730     A.U. after    7 cycles
 SCF Done:  E(RB3LYP) =  -642.703127764     A.U. after    6 cycles
 SCF Done:  E(RB3LYP) =  -642.703127790     A.U. after    6 cycles
 Optimization completed.
    -- Stationary point found.
 Normal termination of Gaussian 16 at Thu Dec 10 21:48:04 2020.

 --------------------------------------------------------------------
 #N Geom=AllCheck Guess=TCheck SCRF=Check GenChk RB3LYP/6-31G(d) Freq
 --------------------------------------------------------------------

 Structure from the checkpoint file:  "JID_6007.chk"
 -------------------------------
 CID_143473161_JID_6007_neutraal
 -------------------------------
 Charge =  0 Multiplicity = 1

 SCF Done:  E(RB3LYP) =  -642.703127790     A.U. after    1 cycles

  Exact polarizability: 183.332  19.450 147.629  -7.002   4.607 152.063
 Approx polarizability: 242.601  32.256 200.354 -11.195  10.745 251.765

                      1                      2                      3
                      A                      A                      A
 Frequencies --     18.9758                24.5153                31.1783
 Red. masses --      3.2016                 3.7093                 3.4803
 Frc consts  --      0.0007                 0.0013                 0.0020
 IR Inten    --      0.2483                 0.0601                 0.0172

                      4                      5                      6
                      A                      A                      A
 Frequencies --     48.5095                57.1621                68.1641
 Red. masses --      3.8132                 3.8028                 2.4798
 Frc consts  --      0.0053                 0.0073                 0.0068
 IR Inten    --      0.8837                 0.2241                 0.1879

                      7                      8                      9
                      A                      A                      A
 Frequencies --     79.7159                82.8380                93.3069
 Red. masses --      2.9898                 3.0873                 2.4920
 Frc consts  --      0.0112                 0.0125                 0.0128
 IR Inten    --      0.3733                 0.1244                 0.2291

                     10                     11                     12
                      A                      A                      A
 Frequencies --     99.1667               109.3909               150.5221
 Red. masses --      2.3139                 2.8502                 1.7457
 Frc consts  --      0.0134                 0.0201                 0.0233
 IR Inten    --      0.4058                 0.2754                 0.2343

                     13                     14                     15
                      A                      A                      A
 Frequencies --    200.6395               211.4585               239.0015
 Red. masses --      3.0554                 2.3620                 1.0503
 Frc consts  --      0.0725                 0.0622                 0.0353
 IR Inten    --      2.0206                 0.3004                 0.1576

                     16                     17                     18
                      A                      A                      A
 Frequencies --    256.0876               275.7688               282.2983
 Red. masses --      1.2724                 2.1127                 1.3725
 Frc consts  --      0.0492                 0.0947                 0.0644
 IR Inten    --      0.1316                 0.5123                 0.0524

                     19                     20                     21
                      A                      A                      A
 Frequencies --    326.7238               327.8326               369.0235
 Red. masses --      1.6132                 2.3742                 2.4502
 Frc consts  --      0.1015                 0.1503                 0.1966
 IR Inten    --      0.1459                 0.0693                 0.8459

                     22                     23                     24
                      A                      A                      A
 Frequencies --    409.6808               418.4414               439.8447
 Red. masses --      2.0487                 3.6696                 1.9567
 Frc consts  --      0.2026                 0.3786                 0.2230
 IR Inten    --      0.5767                 4.6855                 0.4470

                     25                     26                     27
                      A                      A                      A
 Frequencies --    505.5560               526.2695               601.1304
 Red. masses --      2.8448                 2.9959                 2.8645
 Frc consts  --      0.4284                 0.4889                 0.6099
 IR Inten    --      1.4515                 1.6780                 6.1468

                     28                     29                     30
                      A                      A                      A
 Frequencies --    643.3567               729.0737               761.7398
 Red. masses --      6.5829                 1.2795                 1.1683
 Frc consts  --      1.6053                 0.4007                 0.3994
 IR Inten    --      1.8784                11.8812                 4.8368

                     31                     32                     33
                      A                      A                      A
 Frequencies --    764.7778               769.9304               781.9013
 Red. masses --      1.7119                 1.3007                 2.5705
 Frc consts  --      0.5899                 0.4543                 0.9259
 IR Inten    --      7.8509                 5.3258                13.3602

                     34                     35                     36
                      A                      A                      A
 Frequencies --    806.7319               818.5467               831.9262
 Red. masses --      1.5163                 2.7472                 2.0322
 Frc consts  --      0.5814                 1.0845                 0.8287
 IR Inten    --      2.4966                 6.3524                 0.2825

                     37                     38                     39
                      A                      A                      A
 Frequencies --    844.3809               884.1410               905.0207
 Red. masses --      1.6077                 1.8770                 1.3537
 Frc consts  --      0.6754                 0.8645                 0.6533
 IR Inten    --      0.6074                 2.3667                 0.9208

                     40                     41                     42
                      A                      A                      A
 Frequencies --    915.2232               962.2236               974.1148
 Red. masses --      1.4500                 1.9587                 1.4221
 Frc consts  --      0.7156                 1.0685                 0.7950
 IR Inten    --      0.1643                 2.4289                 0.0600

                     43                     44                     45
                      A                      A                      A
 Frequencies --    975.4575               982.9678               998.0419
 Red. masses --      2.0840                 1.1610                 1.5797
 Frc consts  --      1.1683                 0.6609                 0.9271
 IR Inten    --      1.8405                 1.5745                 3.6919

                     46                     47                     48
                      A                      A                      A
 Frequencies --   1003.1210              1009.1364              1015.8191
 Red. masses --      1.3034                 1.3776                 5.9434
 Frc consts  --      0.7727                 0.8265                 3.6134
 IR Inten    --      0.3044                 0.7781                 5.4904

                     49                     50                     51
                      A                      A                      A
 Frequencies --   1031.1990              1055.5256              1081.3003
 Red. masses --      1.6990                 2.5506                 2.2774
 Frc consts  --      1.0644                 1.6743                 1.5689
 IR Inten    --      0.6400                 0.1635                 2.9279

                     52                     53                     54
                      A                      A                      A
 Frequencies --   1097.6599              1105.7475              1111.9811
 Red. masses --      2.0983                 1.9836                 1.5108
 Frc consts  --      1.4896                 1.4289                 1.1007
 IR Inten    --      0.2004                 0.9587                 0.7640

                     55                     56                     57
                      A                      A                      A
 Frequencies --   1136.1934              1146.5646              1171.0238
 Red. masses --      2.0063                 1.4598                 1.8226
 Frc consts  --      1.5260                 1.1307                 1.4726
 IR Inten    --      3.9743                 1.0638                 1.5091

                     58                     59                     60
                      A                      A                      A
 Frequencies --   1186.6965              1204.8208              1212.4575
 Red. masses --      1.1318                 1.4000                 1.8260
 Frc consts  --      0.9391                 1.1974                 1.5815
 IR Inten    --      3.0018                 3.9650                 0.4364

                     61                     62                     63
                      A                      A                      A
 Frequencies --   1236.4437              1264.0816              1281.4365
 Red. masses --      1.4399                 2.4049                 1.4350
 Frc consts  --      1.2970                 2.2641                 1.3884
 IR Inten    --      0.9914                 4.6499                 1.0837

                     64                     65                     66
                      A                      A                      A
 Frequencies --   1306.5753              1319.0510              1326.6318
 Red. masses --      1.2280                 3.5918                 1.2671
 Frc consts  --      1.2351                 3.6820                 1.3139
 IR Inten    --      0.1344                 0.5071                 1.3404

                     67                     68                     69
                      A                      A                      A
 Frequencies --   1329.0738              1337.0475              1351.1588
 Red. masses --      1.1700                 1.2245                 1.2870
 Frc consts  --      1.2176                 1.2897                 1.3844
 IR Inten    --      0.4312                 5.6485                 3.2408

                     70                     71                     72
                      A                      A                      A
 Frequencies --   1361.0195              1378.2463              1392.6287
 Red. masses --      1.2405                 1.4371                 1.3139
 Frc consts  --      1.3539                 1.6084                 1.5013
 IR Inten    --      3.7585                 3.1846                 4.2582

                     73                     74                     75
                      A                      A                      A
 Frequencies --   1399.2795              1400.9768              1415.5056
 Red. masses --      1.4686                 1.3737                 1.4668
 Frc consts  --      1.6942                 1.5885                 1.7316
 IR Inten    --      1.4774                15.0233                 2.3979

                     76                     77                     78
                      A                      A                      A
 Frequencies --   1428.3194              1439.9888              1444.6486
 Red. masses --      1.5039                 1.2417                 1.2516
 Frc consts  --      1.8076                 1.5170                 1.5390
 IR Inten    --      2.2434                 2.9428                 0.9223

                     79                     80                     81
                      A                      A                      A
 Frequencies --   1446.3506              1481.6834              1508.4291
 Red. masses --      1.2525                 2.1282                 1.0901
 Frc consts  --      1.5437                 2.7528                 1.4614
 IR Inten    --      6.2091                21.7480                 1.5092

                     82                     83                     84
                      A                      A                      A
 Frequencies --   1514.4327              1517.9010              1518.2921
 Red. masses --      1.0665                 1.1312                 1.0833
 Frc consts  --      1.4412                 1.5357                 1.4713
 IR Inten    --      2.0530                 7.1717                 3.9872

                     85                     86                     87
                      A                      A                      A
 Frequencies --   1519.6043              1522.7622              1527.8203
 Red. masses --      1.2160                 1.1406                 1.1010
 Frc consts  --      1.6544                 1.5582                 1.5142
 IR Inten    --      5.3512                 2.0155                 3.5399

                     88                     89                     90
                      A                      A                      A
 Frequencies --   1530.0990              1531.5687              1534.5661
 Red. masses --      1.0660                 1.3435                 1.0801
 Frc consts  --      1.4705                 1.8568                 1.4985
 IR Inten    --      1.8717                20.4592                 2.1451

                     91                     92                     93
                      A                      A                      A
 Frequencies --   1536.8396              1538.9017              1544.0959
 Red. masses --      1.0725                 1.0864                 1.0827
 Frc consts  --      1.4924                 1.5158                 1.5210
 IR Inten    --      4.3305                10.3837                 3.1524

                     94                     95                     96
                      A                      A                      A
 Frequencies --   1552.4438              1631.6769              1652.3498
 Red. masses --      1.0606                 5.6423                 5.4588
 Frc consts  --      1.5060                 8.8506                 8.7812
 IR Inten    --     11.6081                13.7927                46.6992

                     97                     98                     99
                      A                      A                      A
 Frequencies --   3022.2093              3022.3474              3025.8860
 Red. masses --      1.0610                 1.0617                 1.0666
 Frc consts  --      5.7100                 5.7142                 5.7538
 IR Inten    --     29.7702                 6.7407                14.6914

                    100                    101                    102
                      A                      A                      A
 Frequencies --   3027.2909              3031.3246              3039.3836
 Red. masses --      1.0636                 1.0691                 1.0399
 Frc consts  --      5.7427                 5.7880                 5.6600
 IR Inten    --     18.0791                40.2164                19.0174

                    103                    104                    105
                      A                      A                      A
 Frequencies --   3040.3528              3041.9385              3050.9641
 Red. masses --      1.0484                 1.0516                 1.0472
 Frc consts  --      5.7097                 5.7335                 5.7431
 IR Inten    --     75.2065                36.6745                28.9228

                    106                    107                    108
                      A                      A                      A
 Frequencies --   3055.2718              3056.4424              3059.9942
 Red. masses --      1.0948                 1.0863                 1.0743
 Frc consts  --      6.0212                 5.9793                 5.9267
 IR Inten    --     44.1844                27.0560                10.9093

                    109                    110                    111
                      A                      A                      A
 Frequencies --   3063.8039              3068.1752              3085.0102
 Red. masses --      1.0997                 1.0945                 1.0973
 Frc consts  --      6.0820                 6.0705                 6.1533
 IR Inten    --     62.1278                 6.8526                58.0959

                    112                    113                    114
                      A                      A                      A
 Frequencies --   3095.0506              3097.5382              3107.7934
 Red. masses --      1.0969                 1.1012                 1.1022
 Frc consts  --      6.1907                 6.2250                 6.2722
 IR Inten    --     29.0636                65.6221                77.4798

                    115                    116                    117
                      A                      A                      A
 Frequencies --   3109.9693              3111.8395              3126.6066
 Red. masses --      1.1020                 1.1018                 1.1011
 Frc consts  --      6.2797                 6.2859                 6.3417
 IR Inten    --     49.9749                48.2580                32.3627

                    118                    119                    120
                      A                      A                      A
 Frequencies --   3130.0807              3133.5422              3170.5563
 Red. masses --      1.0949                 1.0997                 1.0891
 Frc consts  --      6.3201                 6.3619                 6.4502
 IR Inten    --     10.5281                23.2039                20.8313

                    121                    122                    123
                      A                      A                      A
 Frequencies --   3188.9862              3203.6487              3217.2307
 Red. masses --      1.0873                 1.0930                 1.0975
 Frc consts  --      6.5151                 6.6095                 6.6927
 IR Inten    --      4.3603                20.4619                19.1861

 - Thermochemistry -
 -------------------
 Temperature   298.150 Kelvin.  Pressure   1.00000 Atm.
 Atom     1 has atomic number  6 and mass  12.00000

 Molecular mass:   221.21435 amu.
 Principal axes and moments of inertia in atomic units:
                           1         2         3
     Eigenvalues --  3434.049285060.065997127.75131
           X            0.99980  -0.01971   0.00349
           Y            0.01968   0.99978   0.00783
           Z           -0.00364  -0.00776   0.99996
 This molecule is an asymmetric top.
 Rotational symmetry number  1.
 Warning -- assumption of classical behavior for rotation
           may cause significant error
 Rotational temperatures (Kelvin)      0.02522     0.01712     0.01215
 Rotational constants (GHZ):           0.52554     0.35666     0.25320
 Zero-point vibrational energy    1038222.1 (Joules/Mol)
                                  248.14103 (Kcal/Mol)
 Warning -- explicit consideration of  27 degrees of freedom as
           vibrations may cause significant error
 Vibrational temperatures:     27.30    35.27    44.86    69.79    82.24
          (Kelvin)             98.07   114.69   119.19   134.25   142.68
                              157.39   216.57   288.68   304.24   343.87
                              368.45   396.77   406.16   470.08   471.68
                              530.94   589.44   602.04   632.84   727.38
                              757.18   864.89   925.65  1048.97  1095.97
                             1100.34  1107.76  1124.98  1160.71  1177.71
                             1196.96  1214.88  1272.08  1302.12  1316.80
                             1384.43  1401.53  1403.47  1414.27  1435.96
                             1443.27  1451.92  1461.54  1483.67  1518.67
                             1555.75  1579.29  1590.92  1599.89  1634.73
                             1649.65  1684.84  1707.39  1733.47  1744.46
                             1778.97  1818.73  1843.70  1879.87  1897.82
                             1908.73  1912.24  1923.71  1944.02  1958.20
                             1982.99  2003.68  2013.25  2015.69  2036.60
                             2055.03  2071.82  2078.53  2080.98  2131.81
                             2170.29  2178.93  2183.92  2184.48  2186.37
                             2190.92  2198.19  2201.47  2203.59  2207.90
                             2211.17  2214.14  2221.61  2233.62  2347.62
                             2377.36  4348.29  4348.48  4353.58  4355.60
                             4361.40  4373.00  4374.39  4376.67  4389.66
                             4395.85  4397.54  4402.65  4408.13  4414.42
                             4438.64  4453.09  4456.67  4471.42  4474.55
                             4477.24  4498.49  4503.49  4508.47  4561.72
                             4588.24  4609.34  4628.88

 Zero-point correction=                           0.395438 (Hartree/Particle)
 Thermal correction to Energy=                    0.415179
 Thermal correction to Enthalpy=                  0.416123
 Thermal correction to Gibbs Free Energy=         0.343967
 Sum of electronic and zero-point Energies=           -642.307690
 Sum of electronic and thermal Energies=              -642.287949
 Sum of electronic and thermal Enthalpies=            -642.287005
 Sum of electronic and thermal Free Energies=         -642.359161

                     E (Thermal)             CV                S
                      KCal/Mol        Cal/Mol-Kelvin    Cal/Mol-Kelvin
 Total                  260.529             70.780            151.865
 Electronic               0.000              0.000              0.000
 Translational            0.889              2.981             42.085
 Rotational               0.889              2.981             33.182
 Vibrational            258.751             64.818             76.599
 Vibration     1          0.593              1.986              6.739
 Vibration     2          0.593              1.985              6.230
 Vibration     3          0.594              1.983              5.753
 Vibration     4          0.595              1.978              4.877
 Vibration     5          0.596              1.975              4.553
 Vibration     6          0.598              1.969              4.206
 Vibration     7          0.600              1.963              3.898
 Vibration     8          0.600              1.961              3.822
 Vibration     9          0.602              1.954              3.590
 Vibration    10          0.604              1.950              3.471
 Vibration    11          0.606              1.942              3.280
 Vibration    12          0.618              1.902              2.666
 Vibration    13          0.638              1.839              2.127
 Vibration    14          0.643              1.823              2.031
 Vibration    15          0.657              1.781              1.810
 Vibration    16          0.666              1.753              1.688
 Vibration    17          0.677              1.718              1.560
 Vibration    18          0.681              1.706              1.520
 Vibration    19          0.710              1.622              1.276
 Vibration    20          0.711              1.620              1.271
 Vibration    21          0.741              1.536              1.084
 Vibration    22          0.774              1.449              0.928
 Vibration    23          0.781              1.430              0.897
 Vibration    24          0.800              1.383              0.827
 Vibration    25          0.861              1.238              0.644
 Vibration    26          0.881              1.192              0.596
 Vibration    27          0.959              1.029              0.448

                           ! Non-Optimized Parameters !
 Normal termination of Gaussian 16 at Thu Dec 10 22:04:02 2020.

 ----------------------------------------------------------------------
 # B3LYP/6-311++G(d,p) empiricaldispersion=gd3bj scf=xqc pop=npa geom=c
 heck
 ----------------------------------------------------------------------

 ---------------------------------------
 CID_143473161_JID_6007_Energie_neutraal
 ---------------------------------------
 Structure from the checkpoint file:  "JID_6007.chk"
 Charge =  0 Multiplicity = 1

 SCF Done:  E(RB3LYP) =  -642.876721289     A.U. after   14 cycles
 Normal termination of Gaussian 16 at Thu Dec 10 22:11:44 2020.

 ----------------------------------------------------------------------
 # B3LYP/6-311++G(d,p) empiricaldispersion=gd3bj scf=xqc pop=npa geom=c
 heck
 ----------------------------------------------------------------------

 -------------------------------------
 CID_143473161_JID_6007_Energie_kation
 -------------------------------------
 Structure from the checkpoint file:  "JID_6007.chk"
 Charge =  1 Multiplicity = 2

 SCF Done:  E(UB3LYP) =  -642.548298734     A.U. after   32 cycles
 Normal termination of Gaussian 16 at Thu Dec 10 22:36:36 2020.
 Gaussian 16:  ES64L-G16RevA.03 25-Dec-2016

 ----------------------------------------------------------------------
 # B3LYP/6-311++G(d,p) empiricaldispersion=gd3bj scf=xqc pop=npa geom=c
 heck
 ----------------------------------------------------------------------

 ------------------------------------
 CID_143473161_JID_6007_Energie_anion
 ------------------------------------
 Structure from the checkpoint file:  "JID_6007.chk"
 Charge = -1 Multiplicity = 2

                         Standard orientation:
 ---------------------------------------------------------------------
 Center     Atomic      Atomic             Coordinates (Angstroms)
 Number     Number       Type             X           Y           Z
 ---------------------------------------------------------------------
      1          6           0       -0.019600   -2.679865   -0.362691
      2          6           0        0.937650   -2.892347    0.814949
      3          6           0        2.411730   -3.034289    0.407898
      4          6           0        3.005269   -1.781756   -0.243493
      5          6           0       -4.199359   -1.500683   -0.748615
      6          6           0       -3.723346   -0.290847    0.059534
      7          6           0       -2.776647    0.610219   -0.739990
      8          6           0       -2.317223    1.877391   -0.004203
      9          6           0       -1.647040    1.636814    1.357316
     10          6           0       -0.452035    0.659160    1.335336
     11          6           0        0.693430    1.129779    0.475087
     12          6           0        1.755410    1.863369    1.021111
     13          6           0        2.782727    2.301140    0.189788
     14          6           0        2.721076    1.997969   -1.169407
     15          6           0        1.625960    1.267029   -1.626440
     16          7           0        0.636083    0.837896   -0.836360
     17          1           0        0.166601   -1.728607   -0.870790
     18          1           0       -1.062741   -2.672377   -0.023955
     19          1           0        0.081925   -3.487344   -1.099135
     20          1           0        0.841079   -2.054636    1.519967
     21          1           0        0.636392   -3.792719    1.367333
     22          1           0        3.001168   -3.289919    1.299000
     23          1           0        2.512593   -3.886675   -0.279381
     24          1           0        2.913214   -0.911376    0.416583
     25          1           0        4.068831   -1.921174   -0.469284
     26          1           0        2.496668   -1.533405   -1.179763
     27          1           0       -4.738399   -1.185257   -1.650336
     28          1           0       -4.870180   -2.140129   -0.163556
     29          1           0       -3.348505   -2.113094   -1.071349
     30          1           0       -4.590888    0.294194    0.397890
     31          1           0       -3.222466   -0.644719    0.970615
     32          1           0       -1.894084    0.037835   -1.047591
     33          1           0       -3.279122    0.913818   -1.669365
     34          1           0       -1.624405    2.422246   -0.656393
     35          1           0       -3.179494    2.539871    0.156622
     36          1           0       -1.310273    2.600016    1.763671
     37          1           0       -2.385061    1.245819    2.068894
     38          1           0       -0.097361    0.517936    2.363336
     39          1           0       -0.783608   -0.315963    0.969739
     40          1           0        1.770788    2.078634    2.085642
     41          1           0        3.618173    2.864900    0.595741
     42          1           0        3.499149    2.313483   -1.857204
     43          1           0        1.539425    1.004884   -2.679488
 ---------------------------------------------------------------------

 SCF Done:  E(UB3LYP) =  -642.864470893     A.U. after   33 cycles
 SCF Done:  E(UB3LYP) =  -642.864470893     a.u. after    1 cycles

 The electronic state is 2-A.
 Alpha  occ. eigenvalues --  -14.18920 -10.09738 -10.09596 -10.07302 -10.06796
 Alpha  occ. eigenvalues --  -10.06779 -10.06759 -10.06731 -10.06677 -10.06479
 Alpha  occ. eigenvalues --  -10.06350 -10.06163 -10.06006 -10.05749 -10.05347
 Alpha  occ. eigenvalues --  -10.05237  -0.83194  -0.71163  -0.69480  -0.69137
 Alpha  occ. eigenvalues --   -0.68237  -0.64823  -0.61940  -0.60567  -0.55559
 Alpha  occ. eigenvalues --   -0.54072  -0.52135  -0.51409  -0.48811  -0.46817
 Alpha  occ. eigenvalues --   -0.45042  -0.40444  -0.38675  -0.36913  -0.36482
 Alpha  occ. eigenvalues --   -0.35786  -0.35590  -0.34630  -0.33641  -0.32685
 Alpha  occ. eigenvalues --   -0.31883  -0.31195  -0.30312  -0.29229  -0.28502
 Alpha  occ. eigenvalues --   -0.28298  -0.27947  -0.27415  -0.26992  -0.25900
 Alpha  occ. eigenvalues --   -0.25658  -0.24476  -0.24062  -0.22775  -0.22590
 Alpha  occ. eigenvalues --   -0.22483  -0.21797  -0.21699  -0.21287  -0.17934
 Alpha  occ. eigenvalues --   -0.14873  -0.14618   0.04413
 Alpha virt. eigenvalues --    0.06247   0.06764   0.07036   0.07129   0.08030
 Alpha virt. eigenvalues --    0.08277   0.08634   0.08761   0.09140   0.09261
 Alpha virt. eigenvalues --    0.10315   0.10530   0.10765   0.11403   0.11474

  Beta  occ. eigenvalues --  -14.18758 -10.09677 -10.09598 -10.07165 -10.06788
  Beta  occ. eigenvalues --  -10.06759 -10.06745 -10.06719 -10.06670 -10.06472
  Beta  occ. eigenvalues --  -10.06325 -10.06160 -10.06002 -10.05747 -10.05334
  Beta  occ. eigenvalues --  -10.05230  -0.82967  -0.71130  -0.69465  -0.68914
  Beta  occ. eigenvalues --   -0.68168  -0.64759  -0.61923  -0.60517  -0.55504
  Beta  occ. eigenvalues --   -0.54046  -0.52052  -0.51271  -0.48699  -0.46787
  Beta  occ. eigenvalues --   -0.44988  -0.40359  -0.38616  -0.36867  -0.36405
  Beta  occ. eigenvalues --   -0.35766  -0.35565  -0.34557  -0.33605  -0.32654
  Beta  occ. eigenvalues --   -0.31869  -0.31138  -0.30133  -0.29143  -0.28464
  Beta  occ. eigenvalues --   -0.28278  -0.27884  -0.27285  -0.26924  -0.25852
  Beta  occ. eigenvalues --   -0.25617  -0.24422  -0.24011  -0.22758  -0.22563
  Beta  occ. eigenvalues --   -0.22466  -0.21768  -0.21670  -0.21256  -0.17250
  Beta  occ. eigenvalues --   -0.14591  -0.14438
  Beta virt. eigenvalues --    0.06262   0.06898   0.07237   0.07476   0.07944
  Beta virt. eigenvalues --    0.08208   0.08630   0.08833   0.09013   0.09223
  Beta virt. eigenvalues --    0.09624   0.10512   0.10752   0.10863   0.11385

 Mulliken charges and spin densities:
               1          2
     1  C   -0.250543  -0.291272
     2  C    0.017735   0.043634
     3  C   -0.084431  -0.429128
     4  C   -0.458878   0.070149
     5  C   -0.062792  -0.599989
     6  C   -0.304011   0.174667
     7  C   -0.054803  -0.311858
     8  C   -0.195783   0.171257
     9  C    0.713315  -1.199552
    10  C    0.576230  -0.682105
    11  C   -1.080066   1.092482
    12  C   -0.551670   0.320962
    13  C    1.045294  -1.380331
    14  C    0.610955  -0.787061
    15  C   -0.241910   0.171806
    16  N   -0.040526   0.191506
    17  H    0.043127   0.064764
    18  H    0.100408   0.033494
    19  H   -0.010189   0.144889
    20  H   -0.015265   0.148638
    21  H   -0.038526   0.194860
    22  H   -0.050924   0.196521
    23  H    0.072673   0.029005
    24  H    0.291819  -0.149202
    25  H   -0.060569   0.209467
    26  H    0.151010  -0.008750
    27  H    0.042399   0.074474
    28  H   -0.098786   0.230987
    29  H    0.128013   0.003347
    30  H    0.024667   0.106901
    31  H   -0.030332   0.162349
    32  H    0.139718   0.036415
    33  H    0.079198   0.053241
    34  H    0.078926   0.057394
    35  H    0.046148   0.105367
    36  H   -0.003521   0.159313
    37  H   -0.185462   0.347992
    38  H   -0.178705   0.370163
    39  H    0.247030  -0.214821
    40  H   -0.548903   0.722470
    41  H   -0.639655   0.819468
    42  H   -0.288953   0.444993
    43  H    0.066539   0.101094
 Sum of Mulliken charges =  -1.00000   1.00000

 Dipole moment (field-independent basis, Debye):
    X=             -2.9248    Y=             -2.2118    Z=             -2.9342  Tot=              4.6964
 Quadrupole moment (field-independent basis, Debye-Ang):
   XX=           -174.8188   YY=           -154.1854   ZZ=           -140.2848
   XY=            -12.2658   XZ=             -0.1709   YZ=             -1.9602

 Summary of Natural Population Analysis:

                                       Natural Population
                Natural  -----------------------------------------------
    Atom  No    Charge         Core      Valence    Rydberg      Total
 -----------------------------------------------------------------------
      C    1   -0.29454      0.99966     2.28992    0.00496     3.29454
      C    2   -0.19145      0.99964     2.18379    0.00802     3.19145
      C    3   -0.18682      0.99964     2.18044    0.00673     3.18682
      C    4   -0.28918      0.99966     2.28415    0.00537     3.28918
      C    5   -0.28259      0.99967     2.27882    0.00411     3.28259
      C    6   -0.19271      0.99964     2.18538    0.00769     3.19271
      C    7   -0.19632      0.99962     2.18933    0.00737     3.19632
      C    8   -0.18983      0.99963     2.18110    0.00911     3.18983
      C    9   -0.18253      0.99962     2.17495    0.00796     3.18253
      C   10   -0.21071      0.99959     2.20035    0.01077     3.21071
      C   11    0.11796      0.99952     1.86622    0.01629     2.88204
      C   12   -0.12530      0.99950     2.11591    0.00990     3.12530
      C   13   -0.06010      0.99956     2.05000    0.01053     3.06010
      C   14   -0.12480      0.99955     2.11563    0.00962     3.12480
      C   15    0.02623      0.99958     1.95966    0.01454     2.97377
      N   16   -0.23118      0.99968     2.72026    0.01125     3.73118
      H   17    0.11046      0.00000     0.38804    0.00150     0.38954
      H   18    0.09735      0.00000     0.40164    0.00101     0.40265
      H   19    0.09077      0.00000     0.40826    0.00097     0.40923
      H   20    0.09542      0.00000     0.40303    0.00156     0.40458
      H   21    0.09086      0.00000     0.40814    0.00100     0.40914
      H   22    0.09243      0.00000     0.40640    0.00117     0.40757
      H   23    0.08746      0.00000     0.41133    0.00121     0.41254
      H   24    0.10248      0.00000     0.39605    0.00147     0.39752
      H   25    0.09461      0.00000     0.40461    0.00078     0.40539
      H   26    0.09876      0.00000     0.40014    0.00109     0.40124
      H   27    0.09202      0.00000     0.40689    0.00109     0.40798
      H   28    0.09583      0.00000     0.40327    0.00090     0.40417
      H   29    0.09746      0.00000     0.40140    0.00114     0.40254
      H   30    0.08970      0.00000     0.40913    0.00117     0.41030
      H   31    0.09508      0.00000     0.40346    0.00146     0.40492
      H   32    0.10810      0.00000     0.38997    0.00193     0.39190
      H   33    0.09060      0.00000     0.40836    0.00104     0.40940
      H   34    0.10172      0.00000     0.39717    0.00111     0.39828
      H   35    0.09116      0.00000     0.40790    0.00094     0.40884
      H   36    0.09745      0.00000     0.40149    0.00105     0.40255
      H   37    0.09546      0.00000     0.40323    0.00130     0.40454
      H   38    0.10158      0.00000     0.39690    0.00153     0.39842
      H   39    0.10538      0.00000     0.39172    0.00289     0.39462
      H   40    0.10367      0.00000     0.39489    0.00144     0.39633
      H   41    0.10072      0.00000     0.39764    0.00164     0.39928
      H   42    0.10129      0.00000     0.39765    0.00106     0.39871
      H   43    0.08604      0.00000     0.41298    0.00098     0.41396
 =======================================================================
   * Total *   -0.00000     15.99375    45.82760    0.17864    62.00000

 Normal termination of Gaussian 16 at Thu Dec 10 23:04:27 2020.
