 Gaussian 16, Revision A.03,

 -----------------------------------------------------------
 # opt freq B3LYP/6-31G(d) empiricaldispersion=gd3bj scf=xqc
 -----------------------------------------------------------

 -----------------------------
 CID_68707712_JID_978_neutraal
 -----------------------------
 Symbolic Z-matrix:
 Charge =  0 Multiplicity = 1

 SCF Done:  E(RB3LYP) =  -813.955341009     A.U. after   15 cycles
 SCF Done:  E(RB3LYP) =  -813.960566921     A.U. after   12 cycles
 SCF Done:  E(RB3LYP) =  -813.961251797     A.U. after   12 cycles
 SCF Done:  E(RB3LYP) =  -813.961330988     A.U. after   11 cycles
 SCF Done:  E(RB3LYP) =  -813.961345517     A.U. after    9 cycles
 SCF Done:  E(RB3LYP) =  -813.961344988     A.U. after    9 cycles
 SCF Done:  E(RB3LYP) =  -813.961347070     A.U. after    8 cycles
 SCF Done:  E(RB3LYP) =  -813.961347540     A.U. after    8 cycles
 Optimization completed.
    -- Stationary point found.
 Normal termination of Gaussian 16 at Tue Dec  8 13:31:19 2020.

 --------------------------------------------------------------------
 #N Geom=AllCheck Guess=TCheck SCRF=Check GenChk RB3LYP/6-31G(d) Freq
 --------------------------------------------------------------------

 Structure from the checkpoint file:  "JID_978.chk"
 -----------------------------
 CID_68707712_JID_978_neutraal
 -----------------------------
 Charge =  0 Multiplicity = 1

 SCF Done:  E(RB3LYP) =  -813.961347540     A.U. after    1 cycles

  Exact polarizability: 144.540  -4.393  89.058  -0.000  -0.001  37.480
 Approx polarizability: 225.007 -26.031 175.360  -0.001  -0.001  59.824

                      1                      2                      3
                      A                      A                      A
 Frequencies --     74.7009               112.1961               130.9331
 Red. masses --      5.9231                 6.6506                 6.6866
 Frc consts  --      0.0195                 0.0493                 0.0675
 IR Inten    --      0.1233                 0.0881                 0.0703

                      4                      5                      6
                      A                      A                      A
 Frequencies --    310.0242               357.4196               452.0648
 Red. masses --      7.9391                10.6225                 6.8040
 Frc consts  --      0.4496                 0.7995                 0.8192
 IR Inten    --      0.8407                 0.0114                 0.3073

                      7                      8                      9
                      A                      A                      A
 Frequencies --    486.8763               634.5584               648.4011
 Red. masses --      4.8241                10.9072                 5.6221
 Frc consts  --      0.6738                 2.5877                 1.3926
 IR Inten    --      2.3334                 2.8206                 9.9615

                     10                     11                     12
                      A                      A                      A
 Frequencies --    659.9777               712.5879               745.7614
 Red. masses --      3.2688                 2.0182                 1.8306
 Frc consts  --      0.8389                 0.6038                 0.5998
 IR Inten    --     17.1313                 3.5392                 3.9791

                     13                     14                     15
                      A                      A                      A
 Frequencies --    797.5493               809.0058               825.3054
 Red. masses --      7.2859                 1.4928                 1.2765
 Frc consts  --      2.7305                 0.5756                 0.5123
 IR Inten    --      6.0366                 4.3416                53.2643

                     16                     17                     18
                      A                      A                      A
 Frequencies --    859.9587               884.3880               900.9610
 Red. masses --      1.4304                 4.5626                 6.2799
 Frc consts  --      0.6232                 2.1026                 3.0034
 IR Inten    --      7.8280                49.2712                39.1025

                     19                     20                     21
                      A                      A                      A
 Frequencies --    944.2744               981.2188              1087.9991
 Red. masses --      6.9356                 5.0928                 2.0229
 Frc consts  --      3.6436                 2.8889                 1.4108
 IR Inten    --      1.6096                12.2186                19.0144

                     22                     23                     24
                      A                      A                      A
 Frequencies --   1131.8094              1138.2008              1206.7210
 Red. masses --      4.2260                 3.7615                 1.6463
 Frc consts  --      3.1896                 2.8711                 1.4124
 IR Inten    --      4.3285                44.8272                 2.4132

                     25                     26                     27
                      A                      A                      A
 Frequencies --   1258.7622              1296.4302              1337.0206
 Red. masses --      1.3457                 1.6940                 2.1793
 Frc consts  --      1.2563                 1.6775                 2.2953
 IR Inten    --      0.5676                 8.4355                 3.5030

                     28                     29                     30
                      A                      A                      A
 Frequencies --   1394.3316              1485.1836              1522.3585
 Red. masses --      6.2370                 5.8127                 8.8325
 Frc consts  --      7.1443                 7.5542                12.0605
 IR Inten    --     12.5662                 0.5453                65.1933

                     31                     32                     33
                      A                      A                      A
 Frequencies --   1563.7237              1669.9059              3251.3921
 Red. masses --      5.7104                 8.7079                 1.0943
 Frc consts  --      8.2269                14.3070                 6.8157
 IR Inten    --     11.9245                 3.7626                 0.6508

                     34                     35                     36
                      A                      A                      A
 Frequencies --   3294.2166              3299.0700              3302.4757
 Red. masses --      1.0946                 1.0959                 1.1011
 Frc consts  --      6.9985                 7.0273                 7.0754
 IR Inten    --      5.0680                 1.2408                 2.4749

 - Thermochemistry -
 -------------------
 Temperature   298.150 Kelvin.  Pressure   1.00000 Atm.
 Atom     1 has atomic number  6 and mass  12.00000

 Molecular mass:   152.00443 amu.
 Principal axes and moments of inertia in atomic units:
                           1         2         3
     Eigenvalues --   431.640252707.861723139.50197
           X            0.99996   0.00904  -0.00000
           Y           -0.00904   0.99996  -0.00000
           Z            0.00000   0.00000   1.00000
 This molecule is an asymmetric top.
 Rotational symmetry number  1.
 Rotational temperatures (Kelvin)      0.20066     0.03199     0.02759
 Rotational constants (GHZ):           4.18112     0.66648     0.57485
 Zero-point vibrational energy     248630.4 (Joules/Mol)
                                   59.42410 (Kcal/Mol)
 Warning -- explicit consideration of   7 degrees of freedom as
           vibrations may cause significant error
 Vibrational temperatures:    107.48   161.43   188.38   446.06   514.25
          (Kelvin)            650.42   700.51   912.99   932.90   949.56
                             1025.26  1072.98  1147.50  1163.98  1187.43
                             1237.29  1272.44  1296.28  1358.60  1411.75
                             1565.39  1628.42  1637.62  1736.20  1811.08
                             1865.27  1923.67  2006.13  2136.85  2190.33
                             2249.85  2402.62  4678.03  4739.64  4746.63
                             4751.53

 Zero-point correction=                           0.094698 (Hartree/Particle)
 Thermal correction to Energy=                    0.102200
 Thermal correction to Enthalpy=                  0.103144
 Thermal correction to Gibbs Free Energy=         0.061281
 Sum of electronic and zero-point Energies=           -813.866649
 Sum of electronic and thermal Energies=              -813.859148
 Sum of electronic and thermal Enthalpies=            -813.858203
 Sum of electronic and thermal Free Energies=         -813.900067

                     E (Thermal)             CV                S
                      KCal/Mol        Cal/Mol-Kelvin    Cal/Mol-Kelvin
 Total                   64.131             28.107             88.109
 Electronic               0.000              0.000              0.000
 Translational            0.889              2.981             40.966
 Rotational               0.889              2.981             29.685
 Vibrational             62.354             22.145             17.457
 Vibration     1          0.599              1.966              4.025
 Vibration     2          0.607              1.939              3.231
 Vibration     3          0.612              1.922              2.932
 Vibration     4          0.699              1.655              1.362
 Vibration     5          0.733              1.560              1.133
 Vibration     6          0.811              1.356              0.790
 Vibration     7          0.843              1.279              0.692

 Optimization completed.
    -- Stationary point found.
 Normal termination of Gaussian 16 at Tue Dec  8 13:34:16 2020.

 ----------------------------------------------------------------------
 # B3LYP/6-311++G(d,p) empiricaldispersion=gd3bj scf=xqc pop=npa geom=c
 heck
 ----------------------------------------------------------------------

 -------------------------------------
 CID_68707712_JID_978_Energie_neutraal
 -------------------------------------
 Structure from the checkpoint file:  "JID_978.chk"
 Charge =  0 Multiplicity = 1

 SCF Done:  E(RB3LYP) =  -814.098138006     A.U. after   14 cycles
 Normal termination of Gaussian 16 at Tue Dec  8 13:36:11 2020.

 ----------------------------------------------------------------------
 # B3LYP/6-311++G(d,p) empiricaldispersion=gd3bj scf=xqc pop=npa geom=c
 heck
 ----------------------------------------------------------------------

 -----------------------------------
 CID_68707712_JID_978_Energie_kation
 -----------------------------------
 Structure from the checkpoint file:  "JID_978.chk"
 Charge =  1 Multiplicity = 2

 SCF Done:  E(UB3LYP) =  -813.793268561     A.U. after   20 cycles
 Normal termination of Gaussian 16 at Tue Dec  8 13:37:59 2020.
 Gaussian 16:  ES64L-G16RevA.03 25-Dec-2016

 ----------------------------------------------------------------------
 # B3LYP/6-311++G(d,p) empiricaldispersion=gd3bj scf=xqc pop=npa geom=c
 heck
 ----------------------------------------------------------------------

 ----------------------------------
 CID_68707712_JID_978_Energie_anion
 ----------------------------------
 Structure from the checkpoint file:  "JID_978.chk"
 Charge = -1 Multiplicity = 2

                         Standard orientation:
 ---------------------------------------------------------------------
 Center     Atomic      Atomic             Coordinates (Angstroms)
 Number     Number       Type             X           Y           Z
 ---------------------------------------------------------------------
      1          6           0       -2.013341    1.113671   -0.000033
      2          6           0       -1.078184    0.120419    0.000010
      3          8           0       -1.755501   -1.079046   -0.000044
      4          6           0       -3.069377   -0.725499    0.000070
      5          7           0       -3.284104    0.551589   -0.000018
      6          6           0        0.366591    0.097281    0.000011
      7          6           0        1.161695   -1.022179   -0.000007
      8         16           0        2.830612   -0.565157   -0.000006
      9          6           0        2.326472    1.111439    0.000017
     10          7           0        1.043976    1.305995    0.000019
     11          1           0       -1.853626    2.180938   -0.000061
     12          1           0       -3.787362   -1.532041    0.000089
     13          1           0        0.853299   -2.056976   -0.000019
     14          1           0        3.059655    1.909076    0.000023
 ---------------------------------------------------------------------

 SCF Done:  E(UB3LYP) =  -814.095297543     A.U. after   22 cycles

 The electronic state is 2-A.
 Alpha  occ. eigenvalues --  -88.71421 -19.03801 -14.16339 -14.16097 -10.09411
 Alpha  occ. eigenvalues --  -10.07068 -10.06599 -10.04103 -10.03187 -10.01473
 Alpha  occ. eigenvalues --   -7.80109  -5.76385  -5.76047  -5.75758  -0.97654
 Alpha  occ. eigenvalues --   -0.80481  -0.76847  -0.63835  -0.63438  -0.56834
 Alpha  occ. eigenvalues --   -0.47633  -0.46266  -0.42942  -0.40348  -0.37120
 Alpha  occ. eigenvalues --   -0.34051  -0.32390  -0.28021  -0.27397  -0.25598
 Alpha  occ. eigenvalues --   -0.25439  -0.24530  -0.21266  -0.17626  -0.14750
 Alpha  occ. eigenvalues --   -0.14342  -0.12704  -0.12704  -0.06892   0.06576
 Alpha virt. eigenvalues --    0.09955   0.10165   0.11729   0.12420   0.12506
 Alpha virt. eigenvalues --    0.14204   0.14949   0.15711   0.15931   0.16701
 Alpha virt. eigenvalues --    0.17083   0.18286   0.18408   0.19257   0.19561

  Beta  occ. eigenvalues --  -88.71341 -19.03620 -14.16414 -14.16168 -10.09160
  Beta  occ. eigenvalues --  -10.06965 -10.06359 -10.04043 -10.03067 -10.00879
  Beta  occ. eigenvalues --   -7.80036  -5.76353  -5.76016  -5.75483  -0.97354
  Beta  occ. eigenvalues --   -0.80306  -0.76742  -0.63376  -0.62934  -0.56328
  Beta  occ. eigenvalues --   -0.47449  -0.45623  -0.42381  -0.40051  -0.36905
  Beta  occ. eigenvalues --   -0.33761  -0.31534  -0.27843  -0.27249  -0.25211
  Beta  occ. eigenvalues --   -0.24657  -0.24267  -0.20800  -0.17064  -0.14767
  Beta  occ. eigenvalues --   -0.13068  -0.12682  -0.11188  -0.04936
  Beta virt. eigenvalues --    0.09908   0.10130   0.11708   0.12378   0.12541
  Beta virt. eigenvalues --    0.13841   0.14213   0.15223   0.15786   0.16006
  Beta virt. eigenvalues --    0.16674   0.17043   0.18319   0.18786   0.19502

 Mulliken charges and spin densities:
               1          2
     1  C   -0.553371   0.084098
     2  C    0.156837   0.062603
     3  O   -0.125245   0.031415
     4  C    0.028261   0.200666
     5  N   -0.169918  -0.041947
     6  C   -1.225804  -0.016806
     7  C    0.629293   0.477857
     8  S   -0.573719   0.130900
     9  C    0.138815   0.174023
    10  N    0.008369  -0.043613
    11  H    0.111216  -0.006130
    12  H    0.134530  -0.013842
    13  H    0.242504  -0.028837
    14  H    0.198231  -0.010388
 Sum of Mulliken charges =  -1.00000   1.00000

 Dipole moment (field-independent basis, Debye):
    X=              1.3244    Y=             -1.3426    Z=             -0.0000  Tot=              1.8859
 Quadrupole moment (field-independent basis, Debye-Ang):
   XX=            -99.9732   YY=            -72.8643   ZZ=            -73.2106
   XY=              7.5721   XZ=              0.0001   YZ=              0.0000

 Summary of Natural Population Analysis:

                                       Natural Population
                Natural  -----------------------------------------------
    Atom  No    Charge         Core      Valence    Rydberg      Total
 -----------------------------------------------------------------------
      C    1   -0.03555      0.99953     2.02128    0.01473     3.03555
      C    2    0.14665      0.99943     1.84048    0.01344     2.85335
      O    3   -0.22835      0.99987     3.21936    0.00912     4.22835
      C    4    0.20416      0.99967     1.77560    0.02057     2.79584
      N    5   -0.27755      0.99972     2.76610    0.01172     3.77755
      C    6    0.02323      0.99946     1.96460    0.01271     2.97677
      C    7   -0.08603      0.99951     2.07632    0.01020     3.08603
      S    8    0.17752      4.99948     2.79847    0.02452     7.82248
      C    9   -0.03080      0.99967     2.01287    0.01826     3.03080
      N   10   -0.25043      0.99967     2.73930    0.01146     3.75043
      H   11    0.09682      0.00000     0.40214    0.00104     0.40318
      H   12    0.07521      0.00000     0.42371    0.00109     0.42479
      H   13    0.10109      0.00000     0.39792    0.00099     0.39891
      H   14    0.08403      0.00000     0.41465    0.00132     0.41597
 =======================================================================
   * Total *   -0.00000     13.99602    24.85280    0.15118    39.00000

 Normal termination of Gaussian 16 at Tue Dec  8 13:40:18 2020.
