 Gaussian 16, Revision A.03,

 -----------------------------------------------------------
 # opt freq B3LYP/6-31G(d) empiricaldispersion=gd3bj scf=xqc
 -----------------------------------------------------------

 -------------------------------
 CID_116654244_JID_4913_neutraal
 -------------------------------
 Symbolic Z-matrix:
 Charge =  0 Multiplicity = 1

 SCF Done:  E(RB3LYP) =  -689.043889651     A.U. after   15 cycles
 SCF Done:  E(RB3LYP) =  -689.048875527     A.U. after   13 cycles
 SCF Done:  E(RB3LYP) =  -689.047723388     A.U. after   14 cycles
 SCF Done:  E(RB3LYP) =  -689.049711324     A.U. after   13 cycles
 SCF Done:  E(RB3LYP) =  -689.050070464     A.U. after   13 cycles
 SCF Done:  E(RB3LYP) =  -689.050620681     A.U. after   11 cycles
 SCF Done:  E(RB3LYP) =  -689.050756499     A.U. after   12 cycles
 SCF Done:  E(RB3LYP) =  -689.050799830     A.U. after   11 cycles
 SCF Done:  E(RB3LYP) =  -689.050828603     A.U. after   10 cycles
 SCF Done:  E(RB3LYP) =  -689.050850404     A.U. after   10 cycles
 SCF Done:  E(RB3LYP) =  -689.050957736     A.U. after    9 cycles
 SCF Done:  E(RB3LYP) =  -689.050958820     A.U. after    9 cycles
 SCF Done:  E(RB3LYP) =  -689.050959508     A.U. after    8 cycles
 SCF Done:  E(RB3LYP) =  -689.050959708     A.U. after    7 cycles
 SCF Done:  E(RB3LYP) =  -689.050959749     A.U. after    7 cycles
 Optimization completed.
    -- Stationary point found.
 Normal termination of Gaussian 16 at Thu Dec 10 10:58:03 2020.

 --------------------------------------------------------------------
 #N Geom=AllCheck Guess=TCheck SCRF=Check GenChk RB3LYP/6-31G(d) Freq
 --------------------------------------------------------------------

 Structure from the checkpoint file:  "JID_4913.chk"
 -------------------------------
 CID_116654244_JID_4913_neutraal
 -------------------------------
 Charge =  0 Multiplicity = 1

 SCF Done:  E(RB3LYP) =  -689.050959749     A.U. after    1 cycles

  Exact polarizability: 124.105  -1.401 116.651  -2.424   1.107 107.807
 Approx polarizability: 154.783  -1.628 161.891 -11.483  -7.073 168.975

                      1                      2                      3
                      A                      A                      A
 Frequencies --     30.2313                34.6231                60.3583
 Red. masses --      3.0228                 3.8259                 3.2495
 Frc consts  --      0.0016                 0.0027                 0.0070
 IR Inten    --      0.9313                 0.5408                 0.5818

                      4                      5                      6
                      A                      A                      A
 Frequencies --     62.5334                96.4950                98.3429
 Red. masses --      3.4942                 2.9770                 1.6514
 Frc consts  --      0.0081                 0.0163                 0.0094
 IR Inten    --      3.7828                 2.2983                 0.1583

                      7                      8                      9
                      A                      A                      A
 Frequencies --    112.3414               127.4595               148.4618
 Red. masses --      1.3180                 2.2003                 2.3937
 Frc consts  --      0.0098                 0.0211                 0.0311
 IR Inten    --      0.1950                 0.6317                 0.1327

                     10                     11                     12
                      A                      A                      A
 Frequencies --    181.1054               208.2076               230.8613
 Red. masses --      2.6703                 1.2657                 2.3014
 Frc consts  --      0.0516                 0.0323                 0.0723
 IR Inten    --      2.0453                 0.4399                 4.5951

                     13                     14                     15
                      A                      A                      A
 Frequencies --    236.9012               247.8984               269.5286
 Red. masses --      1.2697                 1.0545                 3.0775
 Frc consts  --      0.0420                 0.0382                 0.1317
 IR Inten    --      0.4755                 0.2975                 1.9861

                     16                     17                     18
                      A                      A                      A
 Frequencies --    276.6689               300.0482               328.6043
 Red. masses --      3.8975                 2.5100                 3.5840
 Frc consts  --      0.1758                 0.1331                 0.2280
 IR Inten    --     11.5889                 2.6144                 9.9428

                     19                     20                     21
                      A                      A                      A
 Frequencies --    381.7205               405.9178               418.6866
 Red. masses --      2.6116                 3.1031                 3.4278
 Frc consts  --      0.2242                 0.3012                 0.3540
 IR Inten    --      4.0661                 8.0802                 2.9702

                     22                     23                     24
                      A                      A                      A
 Frequencies --    436.9216               481.3528               552.2471
 Red. masses --      2.9941                 2.8698                 3.6005
 Frc consts  --      0.3368                 0.3918                 0.6470
 IR Inten    --      0.6006                 9.5747                11.5890

                     25                     26                     27
                      A                      A                      A
 Frequencies --    585.3611               654.2370               696.0835
 Red. masses --      4.7959                 4.2348                 5.4008
 Frc consts  --      0.9682                 1.0680                 1.5418
 IR Inten    --     16.4429                 4.1680                17.7653

                     28                     29                     30
                      A                      A                      A
 Frequencies --    741.2501               764.6597               818.5986
 Red. masses --      3.5385                10.3271                 4.8013
 Frc consts  --      1.1455                 3.5577                 1.8956
 IR Inten    --      3.5784                36.2205                 0.8895

                     31                     32                     33
                      A                      A                      A
 Frequencies --    874.0422               948.3301               956.5138
 Red. masses --      3.8724                 1.2210                 1.3856
 Frc consts  --      1.7430                 0.6470                 0.7469
 IR Inten    --      6.1564                 1.6482                 0.4688

                     34                     35                     36
                      A                      A                      A
 Frequencies --    959.3777               982.5738              1007.0111
 Red. masses --      3.0519                 2.4055                 2.3812
 Frc consts  --      1.6550                 1.3683                 1.4227
 IR Inten    --     25.8074                 4.7819                29.0141

                     37                     38                     39
                      A                      A                      A
 Frequencies --   1071.6922              1094.1446              1138.4187
 Red. masses --      1.8993                 1.3736                 1.2307
 Frc consts  --      1.2853                 0.9688                 0.9397
 IR Inten    --      8.3874                 4.5401                 3.5869

                     40                     41                     42
                      A                      A                      A
 Frequencies --   1162.0835              1172.8932              1179.7183
 Red. masses --      1.3027                 2.1318                 1.6865
 Frc consts  --      1.0365                 1.7279                 1.3829
 IR Inten    --     12.8508                 8.3356                22.8492

                     43                     44                     45
                      A                      A                      A
 Frequencies --   1182.1093              1196.9752              1200.1783
 Red. masses --      1.5224                 2.2195                 2.5344
 Frc consts  --      1.2534                 1.8736                 2.1508
 IR Inten    --     31.2534               297.4697               156.0041

                     46                     47                     48
                      A                      A                      A
 Frequencies --   1219.3603              1247.5118              1299.9498
 Red. masses --      1.9453                 2.7204                 5.1913
 Frc consts  --      1.7041                 2.4944                 5.1687
 IR Inten    --      8.0986               109.1828                47.4546

                     49                     50                     51
                      A                      A                      A
 Frequencies --   1329.2341              1363.9593              1390.2767
 Red. masses --      1.5238                 1.9181                 1.2995
 Frc consts  --      1.5863                 2.1025                 1.4799
 IR Inten    --      5.4255               154.4726                 2.2484

                     52                     53                     54
                      A                      A                      A
 Frequencies --   1415.1460              1427.1803              1440.2897
 Red. masses --      1.2959                 1.3565                 1.2809
 Frc consts  --      1.5290                 1.6279                 1.5656
 IR Inten    --      6.2320                19.3295                68.7501

                     55                     56                     57
                      A                      A                      A
 Frequencies --   1442.4889              1446.5146              1454.5915
 Red. masses --      2.1860                 1.6688                 1.3103
 Frc consts  --      2.6799                 2.0574                 1.6334
 IR Inten    --    112.9838                76.6397                22.7617

                     58                     59                     60
                      A                      A                      A
 Frequencies --   1486.5233              1495.8740              1508.9935
 Red. masses --      1.2062                 1.2025                 1.0468
 Frc consts  --      1.5704                 1.5853                 1.4044
 IR Inten    --     46.2528                18.8461                 0.2339

                     61                     62                     63
                      A                      A                      A
 Frequencies --   1513.0766              1516.9674              1521.1858
 Red. masses --      1.0709                 1.1199                 1.0609
 Frc consts  --      1.4446                 1.5183                 1.4464
 IR Inten    --     14.8224                20.1495                25.1993

                     64                     65                     66
                      A                      A                      A
 Frequencies --   1524.4819              1528.6824              1531.1244
 Red. masses --      1.0603                 1.0611                 1.0513
 Frc consts  --      1.4519                 1.4610                 1.4522
 IR Inten    --      5.6345                10.6147                 0.5930

                     67                     68                     69
                      A                      A                      A
 Frequencies --   1532.9666              1549.8022              1556.1242
 Red. masses --      1.0521                 1.0662                 1.1917
 Frc consts  --      1.4567                 1.5089                 1.7003
 IR Inten    --      9.4082                 1.5233                94.1251

                     70                     71                     72
                      A                      A                      A
 Frequencies --   1562.2916              1773.0814              1788.4867
 Red. masses --      1.2275                 9.7037                10.1098
 Frc consts  --      1.7652                17.9741                19.0530
 IR Inten    --     36.1662               201.5706               360.9260

                     73                     74                     75
                      A                      A                      A
 Frequencies --   3024.5074              3029.3605              3033.3216
 Red. masses --      1.0441                 1.0432                 1.0430
 Frc consts  --      5.6276                 5.6403                 5.6541
 IR Inten    --     42.4722                54.9384                68.8104

                     76                     77                     78
                      A                      A                      A
 Frequencies --   3058.7953              3062.9315              3064.7255
 Red. masses --      1.0385                 1.0422                 1.0605
 Frc consts  --      5.7249                 5.7606                 5.8687
 IR Inten    --     23.7533                12.8108                23.6043

                     79                     80                     81
                      A                      A                      A
 Frequencies --   3078.0573              3079.6284              3080.1115
 Red. masses --      1.1011                 1.1015                 1.0844
 Frc consts  --      6.1466                 6.1550                 6.0612
 IR Inten    --     41.5722                70.6909                23.8115

                     82                     83                     84
                      A                      A                      A
 Frequencies --   3086.2789              3113.0259              3120.3963
 Red. masses --      1.0963                 1.1045                 1.1021
 Frc consts  --      6.1526                 6.3061                 6.3223
 IR Inten    --     30.0638                10.1430                21.9506

                     85                     86                     87
                      A                      A                      A
 Frequencies --   3124.9280              3168.3056              3170.4199
 Red. masses --      1.1018                 1.0958                 1.1000
 Frc consts  --      6.3393                 6.4809                 6.5143
 IR Inten    --     37.5627                19.9107                 3.9996

                     88                     89                     90
                      A                      A                      A
 Frequencies --   3176.0849              3195.5269              3203.8605
 Red. masses --      1.0996                 1.0956                 1.0945
 Frc consts  --      6.5356                 6.5915                 6.6193
 IR Inten    --     14.3526                 1.3121                 3.6365

 - Thermochemistry -
 -------------------
 Temperature   298.150 Kelvin.  Pressure   1.00000 Atm.
 Atom     1 has atomic number  6 and mass  12.00000

 Molecular mass:   202.13174 amu.
 Principal axes and moments of inertia in atomic units:
                           1         2         3
     Eigenvalues --  1787.763554004.375964439.13253
           X            0.99976  -0.00774   0.02072
           Y            0.00745   0.99987   0.01407
           Z           -0.02083  -0.01391   0.99969
 This molecule is an asymmetric top.
 Rotational symmetry number  1.
 Warning -- assumption of classical behavior for rotation
           may cause significant error
 Rotational temperatures (Kelvin)      0.04845     0.02163     0.01951
 Rotational constants (GHZ):           1.00950     0.45069     0.40655
 Zero-point vibrational energy     728826.0 (Joules/Mol)
                                  174.19361 (Kcal/Mol)
 Warning -- explicit consideration of  25 degrees of freedom as
           vibrations may cause significant error
 Vibrational temperatures:     43.50    49.81    86.84    89.97   138.83
          (Kelvin)            141.49   161.63   183.39   213.60   260.57
                              299.56   332.16   340.85   356.67   387.79
                              398.06   431.70   472.79   549.21   584.03
                              602.40   628.63   692.56   794.56   842.20
                              941.30  1001.51  1066.49  1100.17  1177.78
                             1257.55  1364.44  1376.21  1380.33  1413.70
                             1448.86  1541.93  1574.23  1637.93  1671.98
                             1687.53  1697.35  1700.79  1722.18  1726.79
                             1754.39  1794.89  1870.34  1912.47  1962.43
                             2000.30  2036.08  2053.39  2072.26  2075.42
                             2081.21  2092.83  2138.78  2152.23  2171.11
                             2176.98  2182.58  2188.65  2193.39  2199.43
                             2202.95  2205.60  2229.82  2238.92  2247.79
                             2551.07  2573.23  4351.59  4358.57  4364.27
                             4400.92  4406.88  4409.46  4428.64  4430.90
                             4431.59  4440.47  4478.95  4489.55  4496.07
                             4558.49  4561.53  4569.68  4597.65  4609.64

 Zero-point correction=                           0.277595 (Hartree/Particle)
 Thermal correction to Energy=                    0.294591
 Thermal correction to Enthalpy=                  0.295535
 Thermal correction to Gibbs Free Energy=         0.231995
 Sum of electronic and zero-point Energies=           -688.773365
 Sum of electronic and thermal Energies=              -688.756369
 Sum of electronic and thermal Enthalpies=            -688.755424
 Sum of electronic and thermal Free Energies=         -688.818964

                     E (Thermal)             CV                S
                      KCal/Mol        Cal/Mol-Kelvin    Cal/Mol-Kelvin
 Total                  184.859             59.555            133.731
 Electronic               0.000              0.000              0.000
 Translational            0.889              2.981             41.816
 Rotational               0.889              2.981             31.830
 Vibrational            183.081             53.593             60.085
 Vibration     1          0.594              1.984              5.814
 Vibration     2          0.594              1.983              5.545
 Vibration     3          0.597              1.973              4.445
 Vibration     4          0.597              1.972              4.376
 Vibration     5          0.603              1.952              3.524
 Vibration     6          0.604              1.950              3.487
 Vibration     7          0.607              1.939              3.228
 Vibration     8          0.611              1.926              2.984
 Vibration     9          0.618              1.904              2.692
 Vibration    10          0.630              1.865              2.317
 Vibration    11          0.642              1.828              2.059
 Vibration    12          0.653              1.794              1.872
 Vibration    13          0.656              1.784              1.826
 Vibration    14          0.662              1.766              1.745
 Vibration    15          0.674              1.729              1.599
 Vibration    16          0.678              1.717              1.554
 Vibration    17          0.693              1.674              1.417
 Vibration    18          0.712              1.618              1.267
 Vibration    19          0.751              1.509              1.032
 Vibration    20          0.771              1.457              0.941
 Vibration    21          0.782              1.430              0.896
 Vibration    22          0.797              1.390              0.836
 Vibration    23          0.838              1.291              0.706
 Vibration    24          0.908              1.135              0.540
 Vibration    25          0.942              1.063              0.476

                           ! Non-Optimized Parameters !
 Normal termination of Gaussian 16 at Thu Dec 10 11:07:47 2020.

 ----------------------------------------------------------------------
 # B3LYP/6-311++G(d,p) empiricaldispersion=gd3bj scf=xqc pop=npa geom=c
 heck
 ----------------------------------------------------------------------

 ---------------------------------------
 CID_116654244_JID_4913_Energie_neutraal
 ---------------------------------------
 Structure from the checkpoint file:  "JID_4913.chk"
 Charge =  0 Multiplicity = 1

 SCF Done:  E(RB3LYP) =  -689.253592867     A.U. after   15 cycles
 Normal termination of Gaussian 16 at Thu Dec 10 11:11:46 2020.

 ----------------------------------------------------------------------
 # B3LYP/6-311++G(d,p) empiricaldispersion=gd3bj scf=xqc pop=npa geom=c
 heck
 ----------------------------------------------------------------------

 -------------------------------------
 CID_116654244_JID_4913_Energie_kation
 -------------------------------------
 Structure from the checkpoint file:  "JID_4913.chk"
 Charge =  1 Multiplicity = 2

 SCF Done:  E(UB3LYP) =  -688.938872139     A.U. after   33 cycles
 SCF Done:  E(UB3LYP) =  -688.938873082     a.u. after    2 cycles
 Normal termination of Gaussian 16 at Thu Dec 10 11:32:37 2020.
 Gaussian 16:  ES64L-G16RevA.03 25-Dec-2016

 ----------------------------------------------------------------------
 # B3LYP/6-311++G(d,p) empiricaldispersion=gd3bj scf=xqc pop=npa geom=c
 heck
 ----------------------------------------------------------------------

 ------------------------------------
 CID_116654244_JID_4913_Energie_anion
 ------------------------------------
 Structure from the checkpoint file:  "JID_4913.chk"
 Charge = -1 Multiplicity = 2

                         Standard orientation:
 ---------------------------------------------------------------------
 Center     Atomic      Atomic             Coordinates (Angstroms)
 Number     Number       Type             X           Y           Z
 ---------------------------------------------------------------------
      1          6           0        3.521323   -0.515302    1.172047
      2          6           0        3.005226   -0.434180   -0.260767
      3          6           0        2.542666   -1.770289   -0.833647
      4          8           0        1.979765    0.592614   -0.406991
      5          6           0        0.798085    0.431009    0.236655
      6          8           0        0.524327   -0.493333    0.987038
      7          7           0       -0.090121    1.425220   -0.079167
      8          6           0        0.268133    2.611018   -0.841249
      9          6           0       -1.361546    1.438858    0.635554
     10          6           0       -2.135783    0.112201    0.710810
     11          8           0       -2.647880   -0.203043    1.777025
     12          7           0       -2.297775   -0.622756   -0.435628
     13          6           0       -1.787458   -0.265444   -1.745541
     14          6           0       -2.859802   -1.959194   -0.322169
     15          1           0        2.762722   -0.929110    1.837836
     16          1           0        3.805038    0.479710    1.530377
     17          1           0        4.410612   -1.154981    1.201779
     18          1           0        3.797131   -0.030827   -0.899758
     19          1           0        1.760608   -2.210438   -0.213005
     20          1           0        2.158968   -1.635476   -1.850869
     21          1           0        3.391949   -2.461100   -0.879400
     22          1           0       -0.530669    2.845840   -1.555496
     23          1           0        0.410920    3.482730   -0.187740
     24          1           0        1.188704    2.427357   -1.390147
     25          1           0       -1.232020    1.741661    1.679131
     26          1           0       -1.995979    2.187395    0.146952
     27          1           0       -0.797986   -0.702025   -1.942595
     28          1           0       -2.484007   -0.640852   -2.503952
     29          1           0       -1.718798    0.815725   -1.863775
     30          1           0       -3.183246   -2.106425    0.706777
     31          1           0       -3.717069   -2.073174   -0.997484
     32          1           0       -2.106384   -2.715226   -0.581805
 ---------------------------------------------------------------------

 SCF Done:  E(UB3LYP) =  -689.243955620     A.U. after   30 cycles

 The electronic state is 2-A.
 Alpha  occ. eigenvalues --  -19.06136 -18.99521 -18.98456 -14.25038 -14.24462
 Alpha  occ. eigenvalues --  -10.21980 -10.17369 -10.14010 -10.11934 -10.10340
 Alpha  occ. eigenvalues --  -10.10296 -10.10059 -10.06703 -10.06444  -1.00798
 Alpha  occ. eigenvalues --   -0.93978  -0.91776  -0.85040  -0.83581  -0.69941
 Alpha  occ. eigenvalues --   -0.65406  -0.62456  -0.61109  -0.60029  -0.59040
 Alpha  occ. eigenvalues --   -0.53796  -0.46909  -0.44749  -0.41883  -0.39984
 Alpha  occ. eigenvalues --   -0.39801  -0.38434  -0.38134  -0.37416  -0.35544
 Alpha  occ. eigenvalues --   -0.35295  -0.34625  -0.32281  -0.31869  -0.31428
 Alpha  occ. eigenvalues --   -0.30976  -0.30622  -0.30053  -0.29699  -0.28893
 Alpha  occ. eigenvalues --   -0.28471  -0.26960  -0.26739  -0.26241  -0.24556
 Alpha  occ. eigenvalues --   -0.20451  -0.17804  -0.16462  -0.14927  -0.14484
 Alpha  occ. eigenvalues --    0.04013
 Alpha virt. eigenvalues --    0.06120   0.06691   0.08129   0.08575   0.08718
 Alpha virt. eigenvalues --    0.09309   0.09851   0.10104   0.11125   0.11689
 Alpha virt. eigenvalues --    0.12101   0.12251   0.12490   0.13144   0.13314

  Beta  occ. eigenvalues --  -19.06132 -18.99517 -18.98454 -14.25038 -14.24460
  Beta  occ. eigenvalues --  -10.21978 -10.17367 -10.13995 -10.11919 -10.10295
  Beta  occ. eigenvalues --  -10.10243 -10.10045 -10.06686 -10.06416  -1.00790
  Beta  occ. eigenvalues --   -0.93972  -0.91769  -0.85031  -0.83571  -0.69910
  Beta  occ. eigenvalues --   -0.65375  -0.62402  -0.61047  -0.59984  -0.59005
  Beta  occ. eigenvalues --   -0.53760  -0.46872  -0.44707  -0.41848  -0.39936
  Beta  occ. eigenvalues --   -0.39760  -0.38395  -0.38107  -0.37389  -0.35516
  Beta  occ. eigenvalues --   -0.35266  -0.34593  -0.32254  -0.31842  -0.31397
  Beta  occ. eigenvalues --   -0.30947  -0.30589  -0.30026  -0.29663  -0.28868
  Beta  occ. eigenvalues --   -0.28442  -0.26937  -0.26718  -0.26212  -0.24524
  Beta  occ. eigenvalues --   -0.20441  -0.17789  -0.16451  -0.14914  -0.14469
  Beta virt. eigenvalues --    0.06332   0.07051   0.07472   0.08628   0.09054
  Beta virt. eigenvalues --    0.09332   0.09734   0.10283   0.10504   0.11268
  Beta virt. eigenvalues --    0.11945   0.12302   0.12661   0.12735   0.13238

 Mulliken charges and spin densities:
               1          2
     1  C    0.411192  -0.854253
     2  C   -0.790032   0.871319
     3  C    0.763932  -1.234348
     4  O   -0.035523   0.023438
     5  C   -0.085762  -0.135746
     6  O   -0.211052   0.014315
     7  N   -0.318041   0.231900
     8  C    1.286676  -1.605713
     9  C    0.238837  -0.615438
    10  C   -0.089747   0.097855
    11  O   -0.343072   0.009951
    12  N   -0.067285   0.107477
    13  C    0.407102  -0.797101
    14  C    0.030504  -0.332414
    15  H    0.119570   0.063830
    16  H    0.010087   0.119634
    17  H   -0.125244   0.278245
    18  H   -0.588248   0.765197
    19  H    0.063024   0.108181
    20  H   -0.179726   0.323267
    21  H   -0.134066   0.286443
    22  H   -0.417550   0.575768
    23  H   -0.283085   0.441701
    24  H   -0.266664   0.464978
    25  H    0.180386   0.037323
    26  H   -0.097515   0.293908
    27  H    0.277216  -0.090834
    28  H   -0.661720   0.831470
    29  H   -0.296339   0.468633
    30  H    0.146055   0.021413
    31  H    0.025381   0.123300
    32  H    0.030710   0.106301
 Sum of Mulliken charges =  -1.00000   1.00000

 Dipole moment (field-independent basis, Debye):
    X=             -0.5554    Y=             -1.9792    Z=              2.7482  Tot=              3.4319
 Quadrupole moment (field-independent basis, Debye-Ang):
   XX=           -149.8049   YY=           -127.7798   ZZ=           -134.2524
   XY=              3.4060   XZ=              4.1545   YZ=              6.2382

 Summary of Natural Population Analysis:

                                       Natural Population
                Natural  -----------------------------------------------
    Atom  No    Charge         Core      Valence    Rydberg      Total
 -----------------------------------------------------------------------
      C    1   -0.30147      0.99964     2.29564    0.00619     3.30147
      C    2    0.06701      0.99955     1.91987    0.01357     2.93299
      C    3   -0.30161      0.99964     2.29589    0.00609     3.30161
      O    4   -0.29223      0.99986     3.28288    0.00949     4.29223
      C    5    0.46698      0.99964     1.50734    0.02604     2.53302
      O    6   -0.33256      0.99987     3.32799    0.00470     4.33256
      N    7   -0.26614      0.99965     2.75524    0.01125     3.76614
      C    8   -0.17466      0.99963     2.16682    0.00821     3.17466
      C    9   -0.11970      0.99957     2.10868    0.01146     3.11970
      C   10    0.35009      0.99964     1.62611    0.02416     2.64991
      O   11   -0.32689      0.99987     3.32182    0.00520     4.32689
      N   12   -0.25549      0.99964     2.74517    0.01067     3.75549
      C   13   -0.17352      0.99963     2.16568    0.00821     3.17352
      C   14   -0.17757      0.99964     2.17050    0.00743     3.17757
      H   15    0.11183      0.00000     0.38730    0.00088     0.38817
      H   16    0.10191      0.00000     0.39718    0.00092     0.39809
      H   17    0.10078      0.00000     0.39841    0.00081     0.39922
      H   18    0.09213      0.00000     0.40579    0.00208     0.40787
      H   19    0.11049      0.00000     0.38832    0.00119     0.38951
      H   20    0.10407      0.00000     0.39461    0.00132     0.39593
      H   21    0.10142      0.00000     0.39758    0.00100     0.39858
      H   22    0.09597      0.00000     0.40148    0.00255     0.40403
      H   23    0.09214      0.00000     0.40636    0.00150     0.40786
      H   24    0.11528      0.00000     0.38288    0.00184     0.38472
      H   25    0.10920      0.00000     0.38980    0.00099     0.39080
      H   26    0.10828      0.00000     0.39033    0.00139     0.39172
      H   27    0.09524      0.00000     0.40321    0.00155     0.40476
      H   28    0.09696      0.00000     0.40154    0.00151     0.40304
      H   29    0.10366      0.00000     0.39440    0.00194     0.39634
      H   30    0.11491      0.00000     0.38409    0.00099     0.38509
      H   31    0.09086      0.00000     0.40825    0.00088     0.40914
      H   32    0.09264      0.00000     0.40651    0.00085     0.40736
 =======================================================================
   * Total *    0.00000     13.99548    40.82767    0.17685    55.00000

 Normal termination of Gaussian 16 at Thu Dec 10 11:42:55 2020.
