 Gaussian 16, Revision A.03,

 -----------------------------------------------------------
 # opt freq B3LYP/6-31G(d) empiricaldispersion=gd3bj scf=xqc
 -----------------------------------------------------------

 -------------------------------
 CID_130836559_JID_4670_neutraal
 -------------------------------
 Symbolic Z-matrix:
 Charge =  0 Multiplicity = 1

 SCF Done:  E(RB3LYP) =  -1358.28176946     A.U. after   17 cycles
 SCF Done:  E(RB3LYP) =  -1358.28758719     A.U. after   15 cycles
 SCF Done:  E(RB3LYP) =  -1358.28838466     A.U. after   14 cycles
 SCF Done:  E(RB3LYP) =  -1358.28906969     A.U. after   13 cycles
 SCF Done:  E(RB3LYP) =  -1358.28929754     A.U. after   13 cycles
 SCF Done:  E(RB3LYP) =  -1358.28936965     A.U. after   12 cycles
 SCF Done:  E(RB3LYP) =  -1358.28939692     A.U. after   11 cycles
 SCF Done:  E(RB3LYP) =  -1358.28940713     A.U. after   10 cycles
 SCF Done:  E(RB3LYP) =  -1358.28941023     A.U. after    9 cycles
 SCF Done:  E(RB3LYP) =  -1358.28941141     A.U. after    9 cycles
 SCF Done:  E(RB3LYP) =  -1358.28941253     A.U. after    8 cycles
 SCF Done:  E(RB3LYP) =  -1358.28941262     A.U. after    8 cycles
 SCF Done:  E(RB3LYP) =  -1358.28941266     A.U. after    7 cycles
 SCF Done:  E(RB3LYP) =  -1358.28941270     A.U. after    6 cycles
 SCF Done:  E(RB3LYP) =  -1358.28941273     A.U. after    7 cycles
 Optimization completed.
    -- Stationary point found.
 Normal termination of Gaussian 16 at Thu Dec 10 10:20:07 2020.

 --------------------------------------------------------------------
 #N Geom=AllCheck Guess=TCheck SCRF=Check GenChk RB3LYP/6-31G(d) Freq
 --------------------------------------------------------------------

 Structure from the checkpoint file:  "JID_4670.chk"
 -------------------------------
 CID_130836559_JID_4670_neutraal
 -------------------------------
 Charge =  0 Multiplicity = 1

 SCF Done:  E(RB3LYP) =  -1358.28941273     A.U. after    1 cycles

  Exact polarizability: 122.667  22.572 130.437 -18.552  -4.019 126.085
 Approx polarizability: 191.479  48.249 238.578 -67.851 -18.415 264.304

                      1                      2                      3
                      A                      A                      A
 Frequencies --     34.6569                36.8652                65.0518
 Red. masses --     10.0409                 8.9402                 5.6444
 Frc consts  --      0.0071                 0.0072                 0.0141
 IR Inten    --      0.7614                 1.2126                 5.6371

                      4                      5                      6
                      A                      A                      A
 Frequencies --     97.4769               106.7799               119.2688
 Red. masses --      7.4353                 5.8069                 1.1538
 Frc consts  --      0.0416                 0.0390                 0.0097
 IR Inten    --      2.8920                 2.2721                 0.1546

                      7                      8                      9
                      A                      A                      A
 Frequencies --    178.4489               217.6597               264.2550
 Red. masses --      4.9674                 4.9520                 3.7667
 Frc consts  --      0.0932                 0.1382                 0.1550
 IR Inten    --      8.5368                 1.0576                 2.1848

                     10                     11                     12
                      A                      A                      A
 Frequencies --    276.9542               330.0602               362.3379
 Red. masses --      2.8019                 5.0659                 3.1788
 Frc consts  --      0.1266                 0.3252                 0.2459
 IR Inten    --      3.2020                 2.3007                 1.8578

                     13                     14                     15
                      A                      A                      A
 Frequencies --    400.9344               462.2484               527.0544
 Red. masses --      3.6551                 4.0384                 5.2593
 Frc consts  --      0.3462                 0.5084                 0.8608
 IR Inten    --     12.2135                13.7932                 0.5393

                     16                     17                     18
                      A                      A                      A
 Frequencies --    538.5897               562.3528               583.0155
 Red. masses --      1.9631                 5.6279                 6.0281
 Frc consts  --      0.3355                 1.0486                 1.2072
 IR Inten    --    162.7641                19.5202                19.1031

                     19                     20                     21
                      A                      A                      A
 Frequencies --    611.1463               620.8286               645.9044
 Red. masses --      4.2517                 7.9497                 6.5289
 Frc consts  --      0.9356                 1.8053                 1.6048
 IR Inten    --    155.5005                 5.7788                 2.5105

                     22                     23                     24
                      A                      A                      A
 Frequencies --    650.2819               697.6226               723.8339
 Red. masses --      6.1608                 3.5897                11.4988
 Frc consts  --      1.5349                 1.0293                 3.5496
 IR Inten    --     10.4493                 6.0848                12.0130

                     25                     26                     27
                      A                      A                      A
 Frequencies --    784.3338               910.3697               940.2078
 Red. masses --      6.4250                 2.4088                 2.9212
 Frc consts  --      2.3288                 1.1762                 1.5215
 IR Inten    --      0.1680                 0.7500                 5.0404

                     28                     29                     30
                      A                      A                      A
 Frequencies --    979.4694              1004.3141              1034.8482
 Red. masses --      5.6608                 2.0209                 2.6305
 Frc consts  --      3.1997                 1.2010                 1.6597
 IR Inten    --      1.6521                19.5206                12.7843

                     31                     32                     33
                      A                      A                      A
 Frequencies --   1064.0497              1069.4028              1091.4735
 Red. masses --      3.6989                 1.4243                 4.8055
 Frc consts  --      2.4674                 0.9597                 3.3730
 IR Inten    --      0.4979                 1.1758                 5.1935

                     34                     35                     36
                      A                      A                      A
 Frequencies --   1120.3383              1148.7838              1174.6764
 Red. masses --      4.0504                 3.4105                 3.8914
 Frc consts  --      2.9954                 2.6518                 3.1637
 IR Inten    --      4.8429                 6.2764                46.8223

                     37                     38                     39
                      A                      A                      A
 Frequencies --   1214.5072              1268.3234              1284.9648
 Red. masses --      2.7576                 2.0746                 1.6714
 Frc consts  --      2.3965                 1.9662                 1.6259
 IR Inten    --     14.5053                80.2864                70.6860

                     40                     41                     42
                      A                      A                      A
 Frequencies --   1298.5798              1370.9013              1386.8247
 Red. masses --      2.6475                 2.2364                 1.5324
 Frc consts  --      2.6304                 2.4764                 1.7364
 IR Inten    --     47.3059                89.6524                 1.6063

                     43                     44                     45
                      A                      A                      A
 Frequencies --   1401.4230              1429.8298              1435.5569
 Red. masses --      1.3675                 2.6397                 1.2660
 Frc consts  --      1.5824                 3.1796                 1.5372
 IR Inten    --      7.4777                75.6240                 4.6202

                     46                     47                     48
                      A                      A                      A
 Frequencies --   1493.8696              1494.8117              1497.7418
 Red. masses --      1.3973                 1.4009                 1.4767
 Frc consts  --      1.8372                 1.8443                 1.9517
 IR Inten    --     32.3804                17.8170                15.9110

                     49                     50                     51
                      A                      A                      A
 Frequencies --   1506.7616              1516.2787              1537.2899
 Red. masses --      1.0525                 1.4757                 4.8410
 Frc consts  --      1.4079                 1.9989                 6.7406
 IR Inten    --     10.1379                34.2287                 8.2306

                     52                     53                     54
                      A                      A                      A
 Frequencies --   1552.0762              3063.2089              3073.9017
 Red. masses --      3.5720                 1.0364                 1.0646
 Frc consts  --      5.0697                 5.7295                 5.9268
 IR Inten    --     11.1890                10.2726                18.7230

                     55                     56                     57
                      A                      A                      A
 Frequencies --   3080.8775              3122.5984              3128.9902
 Red. masses --      1.0616                 1.1021                 1.1043
 Frc consts  --      5.9369                 6.3312                 6.3698
 IR Inten    --     32.4906                 6.7319                 3.6614

                     58                     59                     60
                      A                      A                      A
 Frequencies --   3151.1687              3163.2072              3520.0704
 Red. masses --      1.1010                 1.1016                 1.0790
 Frc consts  --      6.4413                 6.4942                 7.8775
 IR Inten    --      2.1439                 2.5870                47.2517

 - Thermochemistry -
 -------------------
 Temperature   298.150 Kelvin.  Pressure   1.00000 Atm.
 Atom     1 has atomic number  6 and mass  12.00000

 Molecular mass:   228.02519 amu.
 Principal axes and moments of inertia in atomic units:
                           1         2         3
     Eigenvalues --  2133.532783917.442384179.50969
           X            0.99808   0.05982   0.01628
           Y           -0.06099   0.99452   0.08487
           Z           -0.01111  -0.08570   0.99626
 This molecule is an asymmetric top.
 Rotational symmetry number  1.
 Warning -- assumption of classical behavior for rotation
           may cause significant error
 Rotational temperatures (Kelvin)      0.04060     0.02211     0.02072
 Rotational constants (GHZ):           0.84589     0.46069     0.43181
 Zero-point vibrational energy     415281.6 (Joules/Mol)
                                   99.25468 (Kcal/Mol)
 Warning -- explicit consideration of  19 degrees of freedom as
           vibrations may cause significant error
 Vibrational temperatures:     49.86    53.04    93.60   140.25   153.63
          (Kelvin)            171.60   256.75   313.16   380.20   398.48
                              474.88   521.32   576.86   665.07   758.31
                              774.91   809.10   838.83   879.30   893.23
                              929.31   935.61  1003.72  1041.44  1128.48
                             1309.82  1352.75  1409.24  1444.98  1488.92
                             1530.93  1538.63  1570.39  1611.92  1652.84
                             1690.10  1747.40  1824.83  1848.78  1868.37
                             1972.42  1995.33  2016.34  2057.21  2065.45
                             2149.35  2150.70  2154.92  2167.89  2181.59
                             2211.82  2233.09  4407.27  4422.66  4432.70
                             4492.72  4501.92  4533.83  4551.15  5064.60

 Zero-point correction=                           0.158172 (Hartree/Particle)
 Thermal correction to Energy=                    0.171137
 Thermal correction to Enthalpy=                  0.172081
 Thermal correction to Gibbs Free Energy=         0.116657
 Sum of electronic and zero-point Energies=          -1358.131240
 Sum of electronic and thermal Energies=             -1358.118276
 Sum of electronic and thermal Enthalpies=           -1358.117332
 Sum of electronic and thermal Free Energies=        -1358.172756

                     E (Thermal)             CV                S
                      KCal/Mol        Cal/Mol-Kelvin    Cal/Mol-Kelvin
 Total                  107.390             46.887            116.650
 Electronic               0.000              0.000              0.000
 Translational            0.889              2.981             42.175
 Rotational               0.889              2.981             31.924
 Vibrational            105.612             40.925             42.550
 Vibration     1          0.594              1.983              5.543
 Vibration     2          0.594              1.982              5.421
 Vibration     3          0.597              1.971              4.298
 Vibration     4          0.603              1.951              3.504
 Vibration     5          0.606              1.944              3.327
 Vibration     6          0.609              1.933              3.112
 Vibration     7          0.629              1.869              2.345
 Vibration     8          0.646              1.814              1.978
 Vibration     9          0.671              1.738              1.633
 Vibration    10          0.678              1.716              1.552
 Vibration    11          0.713              1.615              1.260
 Vibration    12          0.736              1.550              1.112
 Vibration    13          0.767              1.468              0.959
 Vibration    14          0.820              1.334              0.760
 Vibration    15          0.882              1.190              0.594
 Vibration    16          0.894              1.165              0.568
 Vibration    17          0.918              1.113              0.519
 Vibration    18          0.940              1.068              0.480
 Vibration    19          0.970              1.008              0.431

                           ! Non-Optimized Parameters !
 Normal termination of Gaussian 16 at Thu Dec 10 10:25:50 2020.

 ----------------------------------------------------------------------
 # B3LYP/6-311++G(d,p) empiricaldispersion=gd3bj scf=xqc pop=npa geom=c
 heck
 ----------------------------------------------------------------------

 ---------------------------------------
 CID_130836559_JID_4670_Energie_neutraal
 ---------------------------------------
 Structure from the checkpoint file:  "JID_4670.chk"
 Charge =  0 Multiplicity = 1

 SCF Done:  E(RB3LYP) =  -1358.49130380     A.U. after   17 cycles
 Normal termination of Gaussian 16 at Thu Dec 10 10:28:08 2020.

 ----------------------------------------------------------------------
 # B3LYP/6-311++G(d,p) empiricaldispersion=gd3bj scf=xqc pop=npa geom=c
 heck
 ----------------------------------------------------------------------

 -------------------------------------
 CID_130836559_JID_4670_Energie_kation
 -------------------------------------
 Structure from the checkpoint file:  "JID_4670.chk"
 Charge =  1 Multiplicity = 2

 SCF Done:  E(UB3LYP) =  -1358.18254849     A.U. after   33 cycles
 SCF Done:  E(UB3LYP) =  -1358.18377689     a.u. after    7 cycles
 Normal termination of Gaussian 16 at Thu Dec 10 11:07:20 2020.
 Gaussian 16:  ES64L-G16RevA.03 25-Dec-2016

 ----------------------------------------------------------------------
 # B3LYP/6-311++G(d,p) empiricaldispersion=gd3bj scf=xqc pop=npa geom=c
 heck
 ----------------------------------------------------------------------

 ------------------------------------
 CID_130836559_JID_4670_Energie_anion
 ------------------------------------
 Structure from the checkpoint file:  "JID_4670.chk"
 Charge = -1 Multiplicity = 2

                         Standard orientation:
 ---------------------------------------------------------------------
 Center     Atomic      Atomic             Coordinates (Angstroms)
 Number     Number       Type             X           Y           Z
 ---------------------------------------------------------------------
      1          6           0       -3.418618   -1.529611   -0.630862
      2          6           0       -2.552603   -0.374258   -0.249816
      3          7           0       -2.741859    0.352754    0.814797
      4          7           0       -1.807337    1.338313    0.975145
      5          6           0       -0.914812    1.359299    0.028698
      6         16           0       -1.162734    0.132788   -1.196924
      7          6           0        0.268408    2.275821    0.055289
      8          6           0        1.476748    1.646266    0.778270
      9          7           0        1.958692    0.432249    0.137468
     10          6           0        1.605633   -0.864378    0.436555
     11         16           0        0.901297   -1.433591    1.815029
     12          7           0        1.970277   -1.618660   -0.709477
     13          7           0        2.440946   -0.847163   -1.603337
     14          7           0        2.341567    0.445163   -1.196433
     15          1           0       -3.843109   -1.401036   -1.632270
     16          1           0       -2.847897   -2.464489   -0.621805
     17          1           0       -4.231185   -1.604543    0.094946
     18          1           0        0.554090    2.575415   -0.958089
     19          1           0       -0.015114    3.175805    0.609268
     20          1           0        2.301089    2.365280    0.837449
     21          1           0        1.200884    1.341034    1.790024
     22          1           0        3.139703    1.027956   -1.445141
 ---------------------------------------------------------------------

 SCF Done:  E(UB3LYP) =  -1358.52281410     A.U. after   30 cycles

 The electronic state is 2-A.
 Alpha  occ. eigenvalues --  -88.77864 -88.63372 -14.25158 -14.24159 -14.23158
 Alpha  occ. eigenvalues --  -14.23027 -14.20455 -14.17520 -10.13880 -10.13521
 Alpha  occ. eigenvalues --  -10.10750 -10.10390 -10.09175 -10.09009  -7.86508
 Alpha  occ. eigenvalues --   -7.72188  -5.82754  -5.82433  -5.82123  -5.68588
 Alpha  occ. eigenvalues --   -5.68022  -5.67749  -0.97782  -0.92096  -0.82023
 Alpha  occ. eigenvalues --   -0.74619  -0.73693  -0.70919  -0.66298  -0.62759
 Alpha  occ. eigenvalues --   -0.58739  -0.55529  -0.51175  -0.48892  -0.45973
 Alpha  occ. eigenvalues --   -0.44142  -0.41440  -0.38448  -0.36818  -0.35823
 Alpha  occ. eigenvalues --   -0.34932  -0.34012  -0.32887  -0.31066  -0.30215
 Alpha  occ. eigenvalues --   -0.29044  -0.27567  -0.27110  -0.23270  -0.20170
 Alpha  occ. eigenvalues --   -0.19653  -0.19003  -0.18813  -0.17536  -0.16185
 Alpha  occ. eigenvalues --   -0.16012  -0.12332  -0.06986  -0.06245   0.03127
 Alpha virt. eigenvalues --    0.06323   0.07452   0.07736   0.09368   0.09913
 Alpha virt. eigenvalues --    0.10363   0.11754   0.12317   0.12543   0.12910
 Alpha virt. eigenvalues --    0.13002   0.14179   0.14703   0.15428   0.15996

  Beta  occ. eigenvalues --  -88.77865 -88.63337 -14.24894 -14.23887 -14.23146
  Beta  occ. eigenvalues --  -14.23029 -14.19512 -14.17463 -10.13870 -10.13508
  Beta  occ. eigenvalues --  -10.10750 -10.10144 -10.09176 -10.08987  -7.86509
  Beta  occ. eigenvalues --   -7.72156  -5.82753  -5.82433  -5.82125  -5.68578
  Beta  occ. eigenvalues --   -5.67903  -5.67731  -0.97054  -0.92079  -0.81273
  Beta  occ. eigenvalues --   -0.74443  -0.73299  -0.70853  -0.66119  -0.62733
  Beta  occ. eigenvalues --   -0.58429  -0.55282  -0.50446  -0.48821  -0.45748
  Beta  occ. eigenvalues --   -0.43868  -0.41045  -0.38040  -0.36584  -0.35730
  Beta  occ. eigenvalues --   -0.34828  -0.33691  -0.32722  -0.30323  -0.30089
  Beta  occ. eigenvalues --   -0.28636  -0.27464  -0.26831  -0.22817  -0.19636
  Beta  occ. eigenvalues --   -0.19132  -0.18473  -0.16956  -0.16392  -0.15989
  Beta  occ. eigenvalues --   -0.15781  -0.11661  -0.06129  -0.05784
  Beta virt. eigenvalues --    0.06349   0.07556   0.07747   0.09519   0.09830
  Beta virt. eigenvalues --    0.10243   0.11001   0.11786   0.12339   0.12739
  Beta virt. eigenvalues --    0.12916   0.13009   0.14175   0.14743   0.15624

 Mulliken charges and spin densities:
               1          2
     1  C   -0.472800  -0.015102
     2  C    0.074305   0.006386
     3  N   -0.108700   0.020091
     4  N    0.104307  -0.016917
     5  C   -0.058839   0.073426
     6  S    0.162040  -0.011829
     7  C   -0.554136  -0.207463
     8  C   -0.211082   0.039576
     9  N    0.322226   0.065089
    10  C   -0.165199   0.123981
    11  S   -0.586928   0.087397
    12  N   -0.145388   0.029544
    13  N   -0.077994   0.383647
    14  N   -0.334231   0.057153
    15  H    0.139893   0.008755
    16  H    0.178177   0.003401
    17  H    0.156740  -0.000768
    18  H    0.184566  -0.003127
    19  H    0.122922   0.057225
    20  H   -0.015042   0.180011
    21  H    0.131281  -0.018948
    22  H    0.153882   0.138472
 Sum of Mulliken charges =  -1.00000   1.00000

 Dipole moment (field-independent basis, Debye):
    X=             -3.9214    Y=              5.0894    Z=             -3.6327  Tot=              7.3808
 Quadrupole moment (field-independent basis, Debye-Ang):
   XX=           -122.0527   YY=           -116.4441   ZZ=           -121.3899
   XY=             18.8907   XZ=             10.0435   YZ=              0.8943

 Summary of Natural Population Analysis:

                                       Natural Population
                Natural  -----------------------------------------------
    Atom  No    Charge         Core      Valence    Rydberg      Total
 -----------------------------------------------------------------------
      C    1   -0.30637      0.99961     2.30166    0.00510     3.30637
      C    2    0.02838      0.99965     1.95604    0.01593     2.97162
      N    3   -0.15014      0.99962     2.63533    0.01519     3.65014
      N    4   -0.15084      0.99962     2.63500    0.01622     3.65084
      C    5    0.03482      0.99961     1.94715    0.01842     2.96518
      S    6    0.19589      4.99938     2.78569    0.01905     7.80411
      C    7   -0.21867      0.99956     2.20815    0.01096     3.21867
      C    8   -0.08595      0.99961     2.07273    0.01361     3.08595
      N    9   -0.13263      0.99959     2.61737    0.01566     3.63263
      C   10    0.12575      0.99965     1.85055    0.02405     2.87425
      S   11   -0.13879      4.99953     3.12310    0.01616     8.13879
      N   12   -0.16029      0.99973     2.64312    0.01744     3.66029
      N   13    0.11403      0.99978     2.36845    0.01774     3.38597
      N   14   -0.10661      0.99973     2.58691    0.01997     3.60661
      H   15    0.10267      0.00000     0.39642    0.00091     0.39733
      H   16    0.11360      0.00000     0.38547    0.00092     0.38640
      H   17    0.11247      0.00000     0.38643    0.00110     0.38753
      H   18    0.10712      0.00000     0.39161    0.00127     0.39288
      H   19    0.11242      0.00000     0.38585    0.00173     0.38758
      H   20    0.09413      0.00000     0.40454    0.00134     0.40587
      H   21    0.12141      0.00000     0.37684    0.00175     0.37859
      H   22    0.18761      0.00000     0.30858    0.00382     0.31239
 =======================================================================
   * Total *    0.00000     21.99466    36.76698    0.23835    59.00000

 Normal termination of Gaussian 16 at Thu Dec 10 11:13:14 2020.
