 Gaussian 16, Revision A.03,

 -----------------------------------------------------------
 # opt freq B3LYP/6-31G(d) empiricaldispersion=gd3bj scf=xqc
 -----------------------------------------------------------

 -------------------------------
 CID_127352742_JID_9117_neutraal
 -------------------------------
 Symbolic Z-matrix:
 Charge =  0 Multiplicity = 1

 SCF Done:  E(RB3LYP) =  -857.005883772     A.U. after   15 cycles
 SCF Done:  E(RB3LYP) =  -857.011806449     A.U. after   13 cycles
 SCF Done:  E(RB3LYP) =  -857.010722337     A.U. after   13 cycles
 SCF Done:  E(RB3LYP) =  -857.012698695     A.U. after   12 cycles
 SCF Done:  E(RB3LYP) =  -857.013927099     A.U. after   12 cycles
 SCF Done:  E(RB3LYP) =  -857.013999611     A.U. after   12 cycles
 SCF Done:  E(RB3LYP) =  -857.014392256     A.U. after   12 cycles
 SCF Done:  E(RB3LYP) =  -857.014543396     A.U. after   11 cycles
 SCF Done:  E(RB3LYP) =  -857.014649339     A.U. after   11 cycles
 SCF Done:  E(RB3LYP) =  -857.014701563     A.U. after   11 cycles
 SCF Done:  E(RB3LYP) =  -857.014788499     A.U. after    8 cycles
 SCF Done:  E(RB3LYP) =  -857.014788946     A.U. after    8 cycles
 SCF Done:  E(RB3LYP) =  -857.014789091     A.U. after    7 cycles
 SCF Done:  E(RB3LYP) =  -857.014789197     A.U. after    7 cycles
 SCF Done:  E(RB3LYP) =  -857.014789255     A.U. after    7 cycles
 Optimization completed.
    -- Stationary point found.
 Normal termination of Gaussian 16 at Sun Dec 13 12:47:19 2020.

 --------------------------------------------------------------------
 #N Geom=AllCheck Guess=TCheck SCRF=Check GenChk RB3LYP/6-31G(d) Freq
 --------------------------------------------------------------------

 Structure from the checkpoint file:  "JID_9117.chk"
 -------------------------------
 CID_127352742_JID_9117_neutraal
 -------------------------------
 Charge =  0 Multiplicity = 1

 SCF Done:  E(RB3LYP) =  -857.014789255     A.U. after    1 cycles

  Exact polarizability: 183.586   4.126 178.039   5.606   0.795 128.523
 Approx polarizability: 252.945   8.014 261.068  15.737  -1.252 204.419

                      1                      2                      3
                      A                      A                      A
 Frequencies --     31.1464                42.9005                50.6575
 Red. masses --      4.9798                 4.7682                 3.5039
 Frc consts  --      0.0028                 0.0052                 0.0053
 IR Inten    --      0.7309                 4.4063                 1.3582

                      4                      5                      6
                      A                      A                      A
 Frequencies --     69.4992                82.5874                85.8173
 Red. masses --      3.7702                 3.5533                 3.3808
 Frc consts  --      0.0107                 0.0143                 0.0147
 IR Inten    --      2.0024                 1.8086                 0.3788

                      7                      8                      9
                      A                      A                      A
 Frequencies --    105.6008               119.6331               134.5070
 Red. masses --      1.9509                 1.2359                 2.4371
 Frc consts  --      0.0128                 0.0104                 0.0260
 IR Inten    --      0.1759                 0.1070                 2.5082

                     10                     11                     12
                      A                      A                      A
 Frequencies --    152.0046               181.8517               200.9199
 Red. masses --      4.0339                 1.4561                 2.3238
 Frc consts  --      0.0549                 0.0284                 0.0553
 IR Inten    --      2.0227                 0.2626                 2.0763

                     13                     14                     15
                      A                      A                      A
 Frequencies --    207.0557               226.4812               254.2985
 Red. masses --      3.1178                 2.9232                 2.9809
 Frc consts  --      0.0788                 0.0883                 0.1136
 IR Inten    --      3.1498                 2.0932                 5.0540

                     16                     17                     18
                      A                      A                      A
 Frequencies --    266.3641               280.9282               302.5048
 Red. masses --      3.5954                 2.7678                 4.4281
 Frc consts  --      0.1503                 0.1287                 0.2387
 IR Inten    --      1.1149                 1.0110                 0.8032

                     19                     20                     21
                      A                      A                      A
 Frequencies --    346.5094               398.6684               404.6386
 Red. masses --      2.7926                 3.8921                 2.7488
 Frc consts  --      0.1976                 0.3645                 0.2652
 IR Inten    --      4.9761                 0.8989                 0.2108

                     22                     23                     24
                      A                      A                      A
 Frequencies --    440.6752               454.6046               468.1074
 Red. masses --      3.0320                 3.1384                 2.7034
 Frc consts  --      0.3469                 0.3821                 0.3490
 IR Inten    --     10.6545                 3.2985                 3.4443

                     25                     26                     27
                      A                      A                      A
 Frequencies --    565.6923               574.6418               628.3917
 Red. masses --      5.0455                 2.6503                 2.5475
 Frc consts  --      0.9513                 0.5156                 0.5927
 IR Inten    --     16.8026                 1.2895                38.8410

                     28                     29                     30
                      A                      A                      A
 Frequencies --    657.2414               683.8718               695.7899
 Red. masses --      4.2708                 4.8313                 3.5186
 Frc consts  --      1.0870                 1.3313                 1.0036
 IR Inten    --      2.7484                 6.7083                 0.7479

                     31                     32                     33
                      A                      A                      A
 Frequencies --    732.1080               744.5777               771.9373
 Red. masses --      4.1342                 2.4799                 4.5613
 Frc consts  --      1.3055                 0.8100                 1.6014
 IR Inten    --     13.4346                48.6628                 6.3837

                     34                     35                     36
                      A                      A                      A
 Frequencies --    786.3525               796.2867               815.1809
 Red. masses --      1.2634                 6.2038                 1.9160
 Frc consts  --      0.4603                 2.3177                 0.7502
 IR Inten    --      1.5068                32.4204                 4.6221

                     37                     38                     39
                      A                      A                      A
 Frequencies --    824.6425               839.0081               861.2260
 Red. masses --      1.4193                 2.0377                 1.9802
 Frc consts  --      0.5687                 0.8451                 0.8654
 IR Inten    --      9.8385                 0.5581                 5.2504

                     40                     41                     42
                      A                      A                      A
 Frequencies --    909.8017               937.3490               963.9321
 Red. masses --      2.8940                 2.9432                 1.9006
 Frc consts  --      1.4114                 1.5236                 1.0405
 IR Inten    --     11.1941                12.0289                 2.2175

                     43                     44                     45
                      A                      A                      A
 Frequencies --    984.7862               997.9227              1008.7952
 Red. masses --      1.9718                 2.1533                 1.8612
 Frc consts  --      1.1267                 1.2634                 1.1159
 IR Inten    --      1.4915                 4.9500                 7.3109

                     46                     47                     48
                      A                      A                      A
 Frequencies --   1012.6578              1018.7183              1047.9342
 Red. masses --      2.0673                 2.6698                 1.3672
 Frc consts  --      1.2491                 1.6325                 0.8846
 IR Inten    --      9.4181                25.1573                 9.1927

                     49                     50                     51
                      A                      A                      A
 Frequencies --   1070.8640              1086.2585              1094.1212
 Red. masses --      2.0138                 1.4154                 1.4249
 Frc consts  --      1.3606                 0.9840                 1.0050
 IR Inten    --      9.0752                 1.4757                 1.7429

                     52                     53                     54
                      A                      A                      A
 Frequencies --   1103.5210              1121.2156              1138.6998
 Red. masses --      2.4099                 1.9966                 2.1027
 Frc consts  --      1.7291                 1.4788                 1.6064
 IR Inten    --     33.4359                20.2250                 4.9415

                     55                     56                     57
                      A                      A                      A
 Frequencies --   1146.1735              1151.4986              1157.4921
 Red. masses --      1.2605                 2.1986                 2.6965
 Frc consts  --      0.9756                 1.7176                 2.1286
 IR Inten    --      5.5546                13.8759                 6.5144

                     58                     59                     60
                      A                      A                      A
 Frequencies --   1159.5389              1207.8891              1219.5747
 Red. masses --      1.3211                 1.3746                 1.6074
 Frc consts  --      1.0466                 1.1817                 1.4086
 IR Inten    --      0.3495                 1.0568                71.1900

                     61                     62                     63
                      A                      A                      A
 Frequencies --   1222.9844              1225.3653              1243.1474
 Red. masses --      2.0836                 2.9085                 1.6302
 Frc consts  --      1.8361                 2.5731                 1.4843
 IR Inten    --     13.0691                 6.4609                 1.4489

                     64                     65                     66
                      A                      A                      A
 Frequencies --   1256.2758              1261.8927              1280.5452
 Red. masses --      1.6836                 2.2375                 2.0414
 Frc consts  --      1.5655                 2.0992                 1.9722
 IR Inten    --     25.0557                 3.2484                88.0397

                     67                     68                     69
                      A                      A                      A
 Frequencies --   1294.5007              1304.5727              1326.1463
 Red. masses --      1.6529                 1.6424                 1.7268
 Frc consts  --      1.6319                 1.6469                 1.7893
 IR Inten    --     14.8335                 6.6444                19.7874

                     70                     71                     72
                      A                      A                      A
 Frequencies --   1338.0589              1339.6669              1365.9856
 Red. masses --      6.5747                 1.3420                 1.5171
 Frc consts  --      6.9355                 1.4191                 1.6678
 IR Inten    --     77.8166                 2.8966                 7.6402

                     73                     74                     75
                      A                      A                      A
 Frequencies --   1378.7653              1406.1737              1413.8350
 Red. masses --      1.3807                 1.4491                 1.5311
 Frc consts  --      1.5464                 1.6882                 1.8032
 IR Inten    --     40.5732                 3.9071                 8.6791

                     76                     77                     78
                      A                      A                      A
 Frequencies --   1435.3806              1436.3858              1453.7847
 Red. masses --      1.8276                 2.5461                 1.2969
 Frc consts  --      2.2185                 3.0950                 1.6150
 IR Inten    --     49.0966                23.3938                 5.9216

                     79                     80                     81
                      A                      A                      A
 Frequencies --   1465.6037              1487.6714              1491.0459
 Red. masses --      1.3766                 1.6242                 1.0902
 Frc consts  --      1.7422                 2.1179                 1.4280
 IR Inten    --     12.2933                32.7340                 2.9405

                     82                     83                     84
                      A                      A                      A
 Frequencies --   1498.4006              1512.5682              1514.4352
 Red. masses --      1.6591                 1.0605                 1.1313
 Frc consts  --      2.1947                 1.4295                 1.5288
 IR Inten    --     70.3985                 1.1939                23.6338

                     85                     86                     87
                      A                      A                      A
 Frequencies --   1527.4737              1534.7755              1535.6583
 Red. masses --      1.1134                 1.1429                 1.2930
 Frc consts  --      1.5306                 1.5862                 1.7965
 IR Inten    --     26.6630                16.0155                18.9190

                     88                     89                     90
                      A                      A                      A
 Frequencies --   1539.2304              1539.7783              1549.9119
 Red. masses --      1.2092                 1.1538                 1.1761
 Frc consts  --      1.6880                 1.6118                 1.6647
 IR Inten    --      5.1064                 5.0336                10.5586

                     91                     92                     93
                      A                      A                      A
 Frequencies --   1560.5359              1604.2266              1788.1793
 Red. masses --      1.1039                 7.0053                 8.7073
 Frc consts  --      1.5838                10.6220                16.4043
 IR Inten    --      4.4403                 7.9116               389.7060

                     94                     95                     96
                      A                      A                      A
 Frequencies --   2953.9131              2961.9270              3010.6259
 Red. masses --      1.0731                 1.0727                 1.0753
 Frc consts  --      5.5170                 5.5445                 5.7426
 IR Inten    --     40.2965               104.5950                41.4671

                     97                     98                     99
                      A                      A                      A
 Frequencies --   3041.1252              3066.9985              3068.0147
 Red. masses --      1.0442                 1.0846                 1.0348
 Frc consts  --      5.6900                 6.0110                 5.7386
 IR Inten    --      7.6759                34.4674                29.5072

                    100                    101                    102
                      A                      A                      A
 Frequencies --   3076.6598              3091.3861              3094.1899
 Red. masses --      1.0896                 1.0783                 1.0754
 Frc consts  --      6.0770                 6.0716                 6.0663
 IR Inten    --     34.5061                27.7277                25.0408

                    103                    104                    105
                      A                      A                      A
 Frequencies --   3106.2353              3131.5710              3136.4624
 Red. masses --      1.0966                 1.1061                 1.1025
 Frc consts  --      6.2343                 6.3911                 6.3899
 IR Inten    --     10.7604                14.5096                27.0697

                    106                    107                    108
                      A                      A                      A
 Frequencies --   3143.4006              3151.6823              3153.2198
 Red. masses --      1.0868                 1.0518                 1.0977
 Frc consts  --      6.3270                 6.1555                 6.4303
 IR Inten    --     20.4470                17.5213                 6.5471

                    109                    110                    111
                      A                      A                      A
 Frequencies --   3156.6650              3170.4479              3185.9252
 Red. masses --      1.0602                 1.0874                 1.1017
 Frc consts  --      6.2242                 6.4397                 6.5888
 IR Inten    --     10.3811                11.3306                 1.3184

                    112                    113                    114
                      A                      A                      A
 Frequencies --   3225.9475              3239.3445              3557.0713
 Red. masses --      1.1189                 1.1154                 1.0747
 Frc consts  --      6.8607                 6.8959                 8.0119
 IR Inten    --      0.6829                23.5178                14.9419

 - Thermochemistry -
 -------------------
 Temperature   298.150 Kelvin.  Pressure   1.00000 Atm.
 Atom     1 has atomic number  6 and mass  12.00000

 Molecular mass:   263.17461 amu.
 Principal axes and moments of inertia in atomic units:
                           1         2         3
     Eigenvalues --  3192.051037542.912519660.68209
           X            0.99996  -0.00896  -0.00240
           Y            0.00899   0.99988   0.01227
           Z            0.00229  -0.01229   0.99992
 This molecule is an asymmetric top.
 Rotational symmetry number  1.
 Warning -- assumption of classical behavior for rotation
           may cause significant error
 Rotational temperatures (Kelvin)      0.02713     0.01148     0.00897
 Rotational constants (GHZ):           0.56539     0.23926     0.18681
 Zero-point vibrational energy     907244.5 (Joules/Mol)
                                  216.83663 (Kcal/Mol)
 Warning -- explicit consideration of  26 degrees of freedom as
           vibrations may cause significant error
 Vibrational temperatures:     44.81    61.72    72.88    99.99   118.82
          (Kelvin)            123.47   151.94   172.13   193.53   218.70
                              261.64   289.08   297.91   325.86   365.88
                              383.24   404.19   435.24   498.55   573.59
                              582.18   634.03   654.07   673.50   813.91
                              826.78   904.12   945.62   983.94  1001.09
                             1053.34  1071.28  1110.65  1131.39  1145.68
                             1172.86  1186.48  1207.15  1239.11  1309.00
                             1348.64  1386.88  1416.89  1435.79  1451.43
                             1456.99  1465.71  1507.74  1540.73  1562.88
                             1574.20  1587.72  1613.18  1638.34  1649.09
                             1656.75  1665.37  1668.32  1737.88  1754.70
                             1759.60  1763.03  1788.61  1807.50  1815.58
                             1842.42  1862.50  1876.99  1908.03  1925.17
                             1927.48  1965.35  1983.74  2023.17  2034.19
                             2065.19  2066.64  2091.67  2108.68  2140.43
                             2145.28  2155.86  2176.25  2178.93  2197.69
                             2208.20  2209.47  2214.61  2215.40  2229.98
                             2245.26  2308.12  2572.79  4250.02  4261.55
                             4331.62  4375.50  4412.73  4414.19  4426.63
                             4447.82  4451.85  4469.18  4505.63  4512.67
                             4522.65  4534.57  4536.78  4541.74  4561.57
                             4583.84  4641.42  4660.69  5117.83

 Zero-point correction=                           0.345551 (Hartree/Particle)
 Thermal correction to Energy=                    0.364234
 Thermal correction to Enthalpy=                  0.365178
 Thermal correction to Gibbs Free Energy=         0.297525
 Sum of electronic and zero-point Energies=           -856.669238
 Sum of electronic and thermal Energies=              -856.650556
 Sum of electronic and thermal Enthalpies=            -856.649612
 Sum of electronic and thermal Free Energies=         -856.717265

                     E (Thermal)             CV                S
                      KCal/Mol        Cal/Mol-Kelvin    Cal/Mol-Kelvin
 Total                  228.560             69.967            142.388
 Electronic               0.000              0.000              0.000
 Translational            0.889              2.981             42.602
 Rotational               0.889              2.981             33.808
 Vibrational            226.783             64.006             65.978
 Vibration     1          0.594              1.983              5.755
 Vibration     2          0.595              1.980              5.120
 Vibration     3          0.595              1.977              4.792
 Vibration     4          0.598              1.969              4.167
 Vibration     5          0.600              1.961              3.828
 Vibration     6          0.601              1.959              3.753
 Vibration     7          0.605              1.945              3.348
 Vibration     8          0.609              1.933              3.106
 Vibration     9          0.613              1.919              2.881
 Vibration    10          0.619              1.900              2.647
 Vibration    11          0.630              1.864              2.309
 Vibration    12          0.638              1.839              2.125
 Vibration    13          0.641              1.830              2.069
 Vibration    14          0.650              1.801              1.907
 Vibration    15          0.665              1.756              1.701
 Vibration    16          0.672              1.735              1.620
 Vibration    17          0.681              1.709              1.528
 Vibration    18          0.694              1.669              1.403
 Vibration    19          0.725              1.582              1.182
 Vibration    20          0.765              1.473              0.968
 Vibration    21          0.770              1.460              0.946
 Vibration    22          0.801              1.381              0.824
 Vibration    23          0.813              1.351              0.782
 Vibration    24          0.825              1.321              0.743
 Vibration    25          0.922              1.105              0.513
 Vibration    26          0.931              1.086              0.495

 Optimization completed.
    -- Stationary point found.
 Normal termination of Gaussian 16 at Sun Dec 13 13:08:34 2020.

 ----------------------------------------------------------------------
 # B3LYP/6-311++G(d,p) empiricaldispersion=gd3bj scf=xqc pop=npa geom=c
 heck
 ----------------------------------------------------------------------

 ---------------------------------------
 CID_127352742_JID_9117_Energie_neutraal
 ---------------------------------------
 Structure from the checkpoint file:  "JID_9117.chk"
 Charge =  0 Multiplicity = 1

 SCF Done:  E(RB3LYP) =  -857.248853744     A.U. after   16 cycles
 Normal termination of Gaussian 16 at Sun Dec 13 13:19:29 2020.

 ----------------------------------------------------------------------
 # B3LYP/6-311++G(d,p) empiricaldispersion=gd3bj scf=xqc pop=npa geom=c
 heck
 ----------------------------------------------------------------------

 -------------------------------------
 CID_127352742_JID_9117_Energie_kation
 -------------------------------------
 Structure from the checkpoint file:  "JID_9117.chk"
 Charge =  1 Multiplicity = 2

 SCF Done:  E(UB3LYP) =  -856.958525564     A.U. after   26 cycles
 Normal termination of Gaussian 16 at Sun Dec 13 13:44:43 2020.
 Gaussian 16:  ES64L-G16RevA.03 25-Dec-2016

 ----------------------------------------------------------------------
 # B3LYP/6-311++G(d,p) empiricaldispersion=gd3bj scf=xqc pop=npa geom=c
 heck
 ----------------------------------------------------------------------

 ------------------------------------
 CID_127352742_JID_9117_Energie_anion
 ------------------------------------
 Structure from the checkpoint file:  "JID_9117.chk"
 Charge = -1 Multiplicity = 2

                         Standard orientation:
 ---------------------------------------------------------------------
 Center     Atomic      Atomic             Coordinates (Angstroms)
 Number     Number       Type             X           Y           Z
 ---------------------------------------------------------------------
      1          6           0       -0.728799    1.013735    1.323463
      2          6           0       -1.915734    0.870160    0.431245
      3          6           0       -2.594246   -0.230325   -0.071942
      4          7           0       -3.640812    0.209250   -0.836467
      5          7           0       -3.642801    1.508154   -0.851496
      6          7           0       -2.602697    1.925856   -0.079647
      7          6           0       -2.372183    3.343276    0.114605
      8          6           0       -2.393619   -1.689626    0.170593
      9          8           0       -3.312033   -2.413040    0.527155
     10          7           0       -1.111141   -2.179665    0.014732
     11          6           0       -0.085778   -1.623148   -0.859554
     12          6           0        1.343212   -2.011649   -0.443537
     13          6           0        1.643182   -1.783027    1.062162
     14          6           0        2.530471   -0.518448    1.117920
     15          7           0        2.383908    0.073182   -0.213028
     16          6           0        2.337072   -1.065041   -1.133726
     17          6           0        3.299144    1.110775   -0.612893
     18          6           0        4.026856    1.972310    0.376972
     19          6           0        4.806913    0.999183   -0.483594
     20          1           0       -0.835202    1.872581    1.994512
     21          1           0        0.198655    1.134814    0.748105
     22          1           0       -0.618597    0.117154    1.936980
     23          1           0       -1.371776    3.622476   -0.229217
     24          1           0       -3.123493    3.870507   -0.473442
     25          1           0       -2.479983    3.612384    1.170027
     26          1           0       -1.096700   -3.187979    0.134108
     27          1           0       -0.247517   -1.939532   -1.901228
     28          1           0       -0.175279   -0.537997   -0.839734
     29          1           0        1.528465   -3.053842   -0.726624
     30          1           0        2.165879   -2.639894    1.496101
     31          1           0        0.712621   -1.659100    1.619859
     32          1           0        2.212294    0.189952    1.888460
     33          1           0        3.575390   -0.802822    1.337340
     34          1           0        3.327428   -1.542380   -1.247647
     35          1           0        2.008291   -0.738680   -2.127541
     36          1           0        2.947530    1.617922   -1.509897
     37          1           0        4.103123    3.035765    0.168938
     38          1           0        3.938754    1.736742    1.433003
     39          1           0        5.217875    0.123535    0.010706
     40          1           0        5.424352    1.386214   -1.288976
 ---------------------------------------------------------------------

 SCF Done:  E(UB3LYP) =  -857.244588033     A.U. after   33 cycles
 SCF Done:  E(UB3LYP) =  -857.244588033     a.u. after    1 cycles

 The electronic state is 2-A.
 Alpha  occ. eigenvalues --  -19.00746 -14.31771 -14.28235 -14.25481 -14.24897
 Alpha  occ. eigenvalues --  -14.22586 -10.19642 -10.14410 -10.13254 -10.12541
 Alpha  occ. eigenvalues --  -10.11874 -10.11566 -10.11212 -10.11024 -10.10082
 Alpha  occ. eigenvalues --  -10.09723 -10.08678 -10.08582 -10.08421  -1.01273
 Alpha  occ. eigenvalues --   -0.95774  -0.86272  -0.84190  -0.83658  -0.76660
 Alpha  occ. eigenvalues --   -0.74163  -0.70003  -0.65885  -0.65665  -0.63882
 Alpha  occ. eigenvalues --   -0.60375  -0.57582  -0.54678  -0.52000  -0.50251
 Alpha  occ. eigenvalues --   -0.49908  -0.49117  -0.47736  -0.44148  -0.43110
 Alpha  occ. eigenvalues --   -0.41834  -0.41405  -0.40516  -0.39952  -0.39519
 Alpha  occ. eigenvalues --   -0.36682  -0.35762  -0.34861  -0.34594  -0.33892
 Alpha  occ. eigenvalues --   -0.33593  -0.33106  -0.32645  -0.32010  -0.31670
 Alpha  occ. eigenvalues --   -0.30559  -0.29504  -0.28267  -0.27894  -0.26649
 Alpha  occ. eigenvalues --   -0.25928  -0.25178  -0.24839  -0.23119  -0.21318
 Alpha  occ. eigenvalues --   -0.20629  -0.18865  -0.18688  -0.17484  -0.16630
 Alpha  occ. eigenvalues --   -0.13115   0.03341
 Alpha virt. eigenvalues --    0.04953   0.06089   0.06372   0.06729   0.07363
 Alpha virt. eigenvalues --    0.07686   0.07869   0.08263   0.08536   0.09007
 Alpha virt. eigenvalues --    0.10177   0.10365   0.10895   0.11230   0.11533

  Beta  occ. eigenvalues --  -19.00745 -14.31769 -14.28232 -14.25476 -14.24896
  Beta  occ. eigenvalues --  -14.22583 -10.19642 -10.14408 -10.13202 -10.12534
  Beta  occ. eigenvalues --  -10.11863 -10.11565 -10.11200 -10.11003 -10.10072
  Beta  occ. eigenvalues --  -10.09692 -10.08658 -10.08568 -10.08406  -1.01267
  Beta  occ. eigenvalues --   -0.95771  -0.86256  -0.84182  -0.83647  -0.76640
  Beta  occ. eigenvalues --   -0.74152  -0.69982  -0.65838  -0.65637  -0.63834
  Beta  occ. eigenvalues --   -0.60355  -0.57571  -0.54641  -0.51943  -0.50212
  Beta  occ. eigenvalues --   -0.49891  -0.49086  -0.47691  -0.44122  -0.43080
  Beta  occ. eigenvalues --   -0.41806  -0.41376  -0.40472  -0.39928  -0.39490
  Beta  occ. eigenvalues --   -0.36656  -0.35733  -0.34840  -0.34569  -0.33860
  Beta  occ. eigenvalues --   -0.33560  -0.33080  -0.32608  -0.31985  -0.31652
  Beta  occ. eigenvalues --   -0.30545  -0.29479  -0.28242  -0.27863  -0.26623
  Beta  occ. eigenvalues --   -0.25902  -0.25166  -0.24815  -0.23091  -0.21294
  Beta  occ. eigenvalues --   -0.20613  -0.18857  -0.18680  -0.17474  -0.16625
  Beta  occ. eigenvalues --   -0.13087
  Beta virt. eigenvalues --    0.05410   0.06053   0.06638   0.06654   0.06959
  Beta virt. eigenvalues --    0.07530   0.07954   0.08277   0.08614   0.08910
  Beta virt. eigenvalues --    0.09301   0.10473   0.10728   0.11142   0.11578

 Mulliken charges and spin densities:
               1          2
     1  C   -1.003943   0.156983
     2  C   -0.251587   0.196320
     3  C    0.326260  -0.396172
     4  N   -0.112773  -0.006101
     5  N    0.017460   0.002565
     6  N    0.165459   0.148844
     7  C    1.029931  -1.313631
     8  C   -0.100771  -0.032955
     9  O   -0.297540   0.002814
    10  N   -0.194993   0.072312
    11  C    0.340288  -0.799676
    12  C   -0.347600   0.639814
    13  C    0.384187  -0.906585
    14  C    0.049434  -0.397788
    15  N    0.333572  -0.105449
    16  C   -0.163237  -0.500383
    17  C   -0.930587   0.931993
    18  C    0.472239  -0.795501
    19  C    0.450541  -0.923822
    20  H   -0.302722   0.468149
    21  H    0.710141  -0.449944
    22  H   -0.037649   0.250170
    23  H   -0.449339   0.643508
    24  H    0.009408   0.158141
    25  H   -0.322360   0.512580
    26  H    0.262419   0.035970
    27  H    0.175114   0.025527
    28  H    0.318746  -0.105735
    29  H   -0.226924   0.454621
    30  H   -0.206860   0.387808
    31  H    0.141684   0.004472
    32  H   -0.281735   0.405140
    33  H    0.027285   0.098722
    34  H   -0.138090   0.270942
    35  H   -0.017502   0.185203
    36  H   -0.373910   0.614035
    37  H   -0.413111   0.586391
    38  H   -0.009106   0.164552
    39  H   -0.102558   0.244763
    40  H    0.070730   0.071406
 Sum of Mulliken charges =  -1.00000   1.00000

 Dipole moment (field-independent basis, Debye):
    X=              1.7664    Y=             -3.3736    Z=             -0.7240  Tot=              3.8763
 Quadrupole moment (field-independent basis, Debye-Ang):
   XX=           -210.1390   YY=           -179.9786   ZZ=           -151.1300
   XY=             -9.4355   XZ=             -2.5562   YZ=              0.5906

 Summary of Natural Population Analysis:

                                       Natural Population
                Natural  -----------------------------------------------
    Atom  No    Charge         Core      Valence    Rydberg      Total
 -----------------------------------------------------------------------
      C    1   -0.31280      0.99963     2.30706    0.00610     3.31280
      C    2    0.08952      0.99949     1.89972    0.01127     2.91048
      C    3   -0.01136      0.99943     1.99679    0.01514     3.01136
      N    4   -0.12117      0.99973     2.60709    0.01435     3.62117
      N    5   -0.04446      0.99978     2.52961    0.01507     3.54446
      N    6   -0.10588      0.99962     2.59339    0.01288     3.60588
      C    7   -0.17878      0.99963     2.17118    0.00796     3.17878
      C    8    0.33395      0.99963     1.64446    0.02196     2.66605
      O    9   -0.30483      0.99988     3.29960    0.00536     4.30483
      N   10   -0.31755      0.99968     2.80963    0.00825     3.81755
      C   11   -0.08800      0.99958     2.07817    0.01025     3.08800
      C   12   -0.11719      0.99959     2.10625    0.01135     3.11719
      C   13   -0.19551      0.99962     2.18743    0.00847     3.19551
      C   14   -0.08719      0.99962     2.07639    0.01117     3.08719
      N   15   -0.28455      0.99970     2.77185    0.01300     3.78455
      C   16   -0.07873      0.99960     2.06888    0.01025     3.07873
      C   17   -0.00752      0.99957     1.99375    0.01420     3.00752
      C   18   -0.20132      0.99962     2.19244    0.00926     3.20132
      C   19   -0.21215      0.99962     2.20639    0.00614     3.21215
      H   20    0.11268      0.00000     0.38594    0.00138     0.38732
      H   21    0.12116      0.00000     0.37640    0.00244     0.37884
      H   22    0.11231      0.00000     0.38646    0.00123     0.38769
      H   23    0.10670      0.00000     0.39127    0.00203     0.39330
      H   24    0.11138      0.00000     0.38703    0.00158     0.38862
      H   25    0.10359      0.00000     0.39479    0.00162     0.39641
      H   26    0.19002      0.00000     0.30759    0.00239     0.30998
      H   27    0.09057      0.00000     0.40831    0.00112     0.40943
      H   28    0.10632      0.00000     0.39102    0.00267     0.39368
      H   29    0.09965      0.00000     0.39914    0.00121     0.40035
      H   30    0.10245      0.00000     0.39648    0.00107     0.39755
      H   31    0.10469      0.00000     0.39376    0.00155     0.39531
      H   32    0.09872      0.00000     0.39974    0.00154     0.40128
      H   33    0.08360      0.00000     0.41460    0.00180     0.41640
      H   34    0.08730      0.00000     0.41114    0.00156     0.41270
      H   35    0.09805      0.00000     0.40074    0.00121     0.40195
      H   36    0.10156      0.00000     0.39708    0.00136     0.39844
      H   37    0.10607      0.00000     0.39277    0.00116     0.39393
      H   38    0.10463      0.00000     0.39419    0.00118     0.39537
      H   39    0.10220      0.00000     0.39672    0.00108     0.39780
      H   40    0.10186      0.00000     0.39708    0.00106     0.39814
 =======================================================================
   * Total *    0.00000     18.99302    51.76232    0.24467    71.00000

 Normal termination of Gaussian 16 at Sun Dec 13 14:15:03 2020.
