 Gaussian 16, Revision A.03,

 -----------------------------------------------------------
 # opt freq B3LYP/6-31G(d) empiricaldispersion=gd3bj scf=xqc
 -----------------------------------------------------------

 -------------------------------
 CID_116504417_JID_5386_neutraal
 -------------------------------
 Symbolic Z-matrix:
 Charge =  0 Multiplicity = 1

 SCF Done:  E(RB3LYP) =  -1071.19010428     A.U. after   15 cycles
 SCF Done:  E(RB3LYP) =  -1071.19197116     A.U. after   13 cycles
 SCF Done:  E(RB3LYP) =  -1071.18814136     A.U. after   13 cycles
 SCF Done:  E(RB3LYP) =  -1071.19507735     A.U. after   12 cycles
 SCF Done:  E(RB3LYP) =  -1071.19324448     A.U. after   13 cycles
 SCF Done:  E(RB3LYP) =  -1071.19680981     A.U. after   12 cycles
 SCF Done:  E(RB3LYP) =  -1071.19688130     A.U. after   12 cycles
 SCF Done:  E(RB3LYP) =  -1071.19752776     A.U. after   13 cycles
 SCF Done:  E(RB3LYP) =  -1071.19793195     A.U. after   13 cycles
 SCF Done:  E(RB3LYP) =  -1071.19784831     A.U. after   12 cycles
 SCF Done:  E(RB3LYP) =  -1071.19850438     A.U. after   10 cycles
 SCF Done:  E(RB3LYP) =  -1071.19850352     A.U. after    8 cycles
 SCF Done:  E(RB3LYP) =  -1071.19850388     A.U. after    9 cycles
 SCF Done:  E(RB3LYP) =  -1071.19850493     A.U. after    8 cycles
 SCF Done:  E(RB3LYP) =  -1071.19850559     A.U. after    8 cycles
 Optimization completed.
    -- Stationary point found.
 Normal termination of Gaussian 16 at Thu Dec 10 16:00:30 2020.

 --------------------------------------------------------------------
 #N Geom=AllCheck Guess=TCheck SCRF=Check GenChk RB3LYP/6-31G(d) Freq
 --------------------------------------------------------------------

 Structure from the checkpoint file:  "JID_5386.chk"
 -------------------------------
 CID_116504417_JID_5386_neutraal
 -------------------------------
 Charge =  0 Multiplicity = 1

 SCF Done:  E(RB3LYP) =  -1071.19850559     A.U. after    1 cycles

  Exact polarizability: 148.277   1.440 136.572   5.115  -0.988 118.795
 Approx polarizability: 191.700  -0.313 207.677   4.028   1.455 182.638

                      1                      2                      3
                      A                      A                      A
 Frequencies --     43.6606                50.8111                62.2419
 Red. masses --      4.4005                 2.9313                 3.3783
 Frc consts  --      0.0049                 0.0045                 0.0077
 IR Inten    --      2.0390                 0.4665                 0.1465

                      4                      5                      6
                      A                      A                      A
 Frequencies --     67.3814                77.4570                93.7409
 Red. masses --      3.4648                 3.2198                 3.3858
 Frc consts  --      0.0093                 0.0114                 0.0175
 IR Inten    --      0.4011                 0.5384                 3.1257

                      7                      8                      9
                      A                      A                      A
 Frequencies --    105.8956               124.6865               143.1594
 Red. masses --      5.3961                 5.7450                 4.1334
 Frc consts  --      0.0357                 0.0526                 0.0499
 IR Inten    --      2.4044                 0.3467                 1.1617

                     10                     11                     12
                      A                      A                      A
 Frequencies --    166.3475               179.2303               196.1963
 Red. masses --      4.7559                 3.2202                 2.3330
 Frc consts  --      0.0775                 0.0609                 0.0529
 IR Inten    --      0.3685                 1.5556                 3.4183

                     13                     14                     15
                      A                      A                      A
 Frequencies --    221.8216               249.8818               268.5180
 Red. masses --      2.4540                 2.0497                 2.3654
 Frc consts  --      0.0711                 0.0754                 0.1005
 IR Inten    --      1.1702                 5.9860                 5.0752

                     16                     17                     18
                      A                      A                      A
 Frequencies --    273.7486               298.5719               336.8629
 Red. masses --      1.9385                 1.5379                 2.7342
 Frc consts  --      0.0856                 0.0808                 0.1828
 IR Inten    --      3.2668                 1.1299                 0.8772

                     19                     20                     21
                      A                      A                      A
 Frequencies --    342.3061               377.4032               401.6065
 Red. masses --      2.5081                 2.9290                 3.4780
 Frc consts  --      0.1732                 0.2458                 0.3305
 IR Inten    --      1.3342                 5.6874                13.7605

                     22                     23                     24
                      A                      A                      A
 Frequencies --    430.1643               451.0706               546.7938
 Red. masses --      2.8392                 2.5569                 2.3891
 Frc consts  --      0.3095                 0.3065                 0.4209
 IR Inten    --      6.2344                 0.5521                34.1077

                     25                     26                     27
                      A                      A                      A
 Frequencies --    594.1959               646.9472               656.0271
 Red. masses --      1.5611                 3.2746                 3.6941
 Frc consts  --      0.3247                 0.8075                 0.9367
 IR Inten    --     81.3937                10.7228                 4.3172

                     28                     29                     30
                      A                      A                      A
 Frequencies --    680.8749               693.5387               744.7602
 Red. masses --      3.7956                 4.3301                 3.5335
 Frc consts  --      1.0367                 1.2271                 1.1547
 IR Inten    --     18.5885                 4.9200                52.8785

                     31                     32                     33
                      A                      A                      A
 Frequencies --    775.4899               798.8507               833.1997
 Red. masses --      1.2572                 1.7803                 2.3734
 Frc consts  --      0.4454                 0.6694                 0.9708
 IR Inten    --      6.1820                 3.7840                 7.2986

                     34                     35                     36
                      A                      A                      A
 Frequencies --    861.3442               873.5769               904.2244
 Red. masses --      2.5796                 2.3082                 1.8449
 Frc consts  --      1.1276                 1.0378                 0.8887
 IR Inten    --      2.6467                 3.7399                 1.3156

                     37                     38                     39
                      A                      A                      A
 Frequencies --    925.4672               989.5173              1001.2694
 Red. masses --      1.5860                 1.9188                 2.2236
 Frc consts  --      0.8003                 1.1069                 1.3134
 IR Inten    --      5.6899                 5.6839                 1.9637

                     40                     41                     42
                      A                      A                      A
 Frequencies --   1013.3982              1024.7362              1062.7315
 Red. masses --      1.9841                 1.6368                 1.6854
 Frc consts  --      1.2005                 1.0127                 1.1215
 IR Inten    --      1.1582                 1.8013                 1.7290

                     43                     44                     45
                      A                      A                      A
 Frequencies --   1075.1584              1086.4356              1117.1137
 Red. masses --      1.6202                 1.8693                 2.3363
 Frc consts  --      1.1035                 1.3000                 1.7178
 IR Inten    --      1.7440                 1.3692                33.1942

                     46                     47                     48
                      A                      A                      A
 Frequencies --   1125.0787              1140.9772              1179.3489
 Red. masses --      2.0498                 1.7966                 1.9894
 Frc consts  --      1.5287                 1.3780                 1.6303
 IR Inten    --      3.0409                53.6332               170.9350

                     49                     50                     51
                      A                      A                      A
 Frequencies --   1198.9353              1230.0073              1267.1081
 Red. masses --      1.4199                 1.6398                 1.5598
 Frc consts  --      1.2025                 1.4617                 1.4755
 IR Inten    --     94.9207                 2.7084                42.4501

                     52                     53                     54
                      A                      A                      A
 Frequencies --   1276.4440              1292.9409              1316.9449
 Red. masses --      1.6811                 1.2120                 1.3106
 Frc consts  --      1.6138                 1.1937                 1.3393
 IR Inten    --     27.9464                 3.6583                28.0960

                     55                     56                     57
                      A                      A                      A
 Frequencies --   1323.3339              1329.8783              1339.7272
 Red. masses --      1.2981                 1.2811                 1.3156
 Frc consts  --      1.3393                 1.3349                 1.3913
 IR Inten    --     11.7765                 9.2943                 4.1588

                     58                     59                     60
                      A                      A                      A
 Frequencies --   1368.9279              1376.5952              1400.0936
 Red. masses --      1.4834                 1.6751                 1.3203
 Frc consts  --      1.6379                 1.8703                 1.5248
 IR Inten    --      7.6456                65.0276                 4.6449

                     61                     62                     63
                      A                      A                      A
 Frequencies --   1407.7218              1431.6555              1444.4225
 Red. masses --      1.3360                 1.5167                 1.6596
 Frc consts  --      1.5598                 1.8315                 2.0400
 IR Inten    --     26.9106                40.8631                21.1615

                     64                     65                     66
                      A                      A                      A
 Frequencies --   1446.3788              1451.8463              1461.4445
 Red. masses --      1.2239                 1.2947                 1.4494
 Frc consts  --      1.5085                 1.6079                 1.8239
 IR Inten    --      2.1548                11.2803                 5.2395

                     67                     68                     69
                      A                      A                      A
 Frequencies --   1497.5851              1515.7262              1518.5992
 Red. masses --      1.0819                 1.0783                 1.0661
 Frc consts  --      1.4296                 1.4596                 1.4485
 IR Inten    --      2.6480                 2.5885                 2.7742

                     70                     71                     72
                      A                      A                      A
 Frequencies --   1519.6140              1525.1341              1527.6294
 Red. masses --      1.0617                 1.0633                 1.0670
 Frc consts  --      1.4445                 1.4573                 1.4671
 IR Inten    --      5.9572                 9.8110                 7.3994

                     73                     74                     75
                      A                      A                      A
 Frequencies --   1530.4942              1539.0904              1553.9902
 Red. masses --      1.0787                 1.0661                 1.0547
 Frc consts  --      1.4887                 1.4880                 1.5007
 IR Inten    --      3.8328                 8.7030                21.8286

                     76                     77                     78
                      A                      A                      A
 Frequencies --   1787.4549              1845.4663              2994.5192
 Red. masses --      8.1650                 9.8008                 1.0856
 Frc consts  --     15.3702                19.6664                 5.7357
 IR Inten    --    328.2160               218.8099                71.7823

                     79                     80                     81
                      A                      A                      A
 Frequencies --   3032.9789              3045.8783              3048.6615
 Red. masses --      1.0710                 1.0427                 1.0651
 Frc consts  --      5.8047                 5.6997                 5.8323
 IR Inten    --     16.7841                39.6245                72.1199

                     82                     83                     84
                      A                      A                      A
 Frequencies --   3054.2943              3060.8708              3067.1078
 Red. masses --      1.0464                 1.0584                 1.0662
 Frc consts  --      5.7515                 5.8424                 5.9095
 IR Inten    --     25.3545                31.0876                 6.1254

                     85                     86                     87
                      A                      A                      A
 Frequencies --   3076.0378              3078.9536              3089.1366
 Red. masses --      1.0661                 1.0983                 1.0827
 Frc consts  --      5.9432                 6.1343                 6.0875
 IR Inten    --     23.4374                22.4635                12.4392

                     88                     89                     90
                      A                      A                      A
 Frequencies --   3107.1973              3107.9049              3110.6041
 Red. masses --      1.1033                 1.1022                 1.0992
 Frc consts  --      6.2759                 6.2725                 6.2664
 IR Inten    --     14.3045                 8.6289                53.4401

                     91                     92                     93
                      A                      A                      A
 Frequencies --   3128.9537              3146.4086              3153.6220
 Red. masses --      1.0943                 1.1018                 1.0972
 Frc consts  --      6.3125                 6.4267                 6.4294
 IR Inten    --     24.0281                 2.4384                14.5310

                     94                     95                     96
                      A                      A                      A
 Frequencies --   3157.3405              3162.2406              3696.1117
 Red. masses --      1.0975                 1.0927                 1.0640
 Frc consts  --      6.4458                 6.4378                 8.5642
 IR Inten    --     25.9601                 5.2085                54.9713

 - Thermochemistry -
 -------------------
 Temperature   298.150 Kelvin.  Pressure   1.00000 Atm.
 Atom     1 has atomic number  6 and mass  12.00000

 Molecular mass:   233.10857 amu.
 Principal axes and moments of inertia in atomic units:
                           1         2         3
     Eigenvalues --  2555.634394593.979875457.82847
           X            0.99974   0.00958   0.02092
           Y           -0.00890   0.99944  -0.03219
           Z           -0.02122   0.03199   0.99926
 This molecule is an asymmetric top.
 Rotational symmetry number  1.
 Warning -- assumption of classical behavior for rotation
           may cause significant error
 Rotational temperatures (Kelvin)      0.03389     0.01885     0.01587
 Rotational constants (GHZ):           0.70618     0.39285     0.33067
 Zero-point vibrational energy     767750.3 (Joules/Mol)
                                  183.49673 (Kcal/Mol)
 Warning -- explicit consideration of  25 degrees of freedom as
           vibrations may cause significant error
 Vibrational temperatures:     62.82    73.11    89.55    96.95   111.44
          (Kelvin)            134.87   152.36   179.40   205.97   239.34
                              257.87   282.28   319.15   359.52   386.34
                              393.86   429.58   484.67   492.50   543.00
                              577.82   618.91   648.99   786.71   854.92
                              930.81   943.88   979.63   997.85  1071.54
                             1115.76  1149.37  1198.79  1239.28  1256.88
                             1300.98  1331.54  1423.69  1440.60  1458.05
                             1474.37  1529.03  1546.91  1563.14  1607.28
                             1618.74  1641.61  1696.82  1725.00  1769.71
                             1823.09  1836.52  1860.25  1894.79  1903.98
                             1913.40  1927.57  1969.58  1980.61  2014.42
                             2025.40  2059.83  2078.20  2081.02  2088.88
                             2102.69  2154.69  2180.79  2184.93  2186.39
                             2194.33  2197.92  2202.04  2214.41  2235.85
                             2571.75  2655.21  4308.45  4363.78  4382.34
                             4386.34  4394.45  4403.91  4412.88  4425.73
                             4429.93  4444.58  4470.56  4471.58  4475.47
                             4501.87  4526.98  4537.36  4542.71  4549.76
                             5317.88

 Zero-point correction=                           0.292421 (Hartree/Particle)
 Thermal correction to Energy=                    0.310129
 Thermal correction to Enthalpy=                  0.311073
 Thermal correction to Gibbs Free Energy=         0.246260
 Sum of electronic and zero-point Energies=          -1070.906085
 Sum of electronic and thermal Energies=             -1070.888377
 Sum of electronic and thermal Enthalpies=           -1070.887432
 Sum of electronic and thermal Free Energies=        -1070.952246

                     E (Thermal)             CV                S
                      KCal/Mol        Cal/Mol-Kelvin    Cal/Mol-Kelvin
 Total                  194.609             63.633            136.411
 Electronic               0.000              0.000              0.000
 Translational            0.889              2.981             42.241
 Rotational               0.889              2.981             32.527
 Vibrational            192.831             57.671             61.644
 Vibration     1          0.595              1.980              5.086
 Vibration     2          0.595              1.977              4.786
 Vibration     3          0.597              1.972              4.385
 Vibration     4          0.598              1.970              4.228
 Vibration     5          0.599              1.964              3.954
 Vibration     6          0.603              1.954              3.580
 Vibration     7          0.605              1.945              3.343
 Vibration     8          0.610              1.928              3.026
 Vibration     9          0.616              1.910              2.761
 Vibration    10          0.624              1.884              2.476
 Vibration    11          0.629              1.868              2.336
 Vibration    12          0.636              1.845              2.168
 Vibration    13          0.648              1.808              1.944
 Vibration    14          0.663              1.763              1.731
 Vibration    15          0.673              1.731              1.606
 Vibration    16          0.676              1.722              1.572
 Vibration    17          0.692              1.676              1.425
 Vibration    18          0.718              1.602              1.227
 Vibration    19          0.721              1.591              1.201
 Vibration    20          0.748              1.518              1.050
 Vibration    21          0.767              1.467              0.957
 Vibration    22          0.791              1.405              0.858
 Vibration    23          0.810              1.359              0.793
 Vibration    24          0.902              1.147              0.551
 Vibration    25          0.952              1.044              0.460

 Optimization completed.
    -- Stationary point found.
 Normal termination of Gaussian 16 at Thu Dec 10 16:14:04 2020.

 ----------------------------------------------------------------------
 # B3LYP/6-311++G(d,p) empiricaldispersion=gd3bj scf=xqc pop=npa geom=c
 heck
 ----------------------------------------------------------------------

 ---------------------------------------
 CID_116504417_JID_5386_Energie_neutraal
 ---------------------------------------
 Structure from the checkpoint file:  "JID_5386.chk"
 Charge =  0 Multiplicity = 1

 SCF Done:  E(RB3LYP) =  -1071.43027547     A.U. after   15 cycles
 Normal termination of Gaussian 16 at Thu Dec 10 16:20:59 2020.

 ----------------------------------------------------------------------
 # B3LYP/6-311++G(d,p) empiricaldispersion=gd3bj scf=xqc pop=npa geom=c
 heck
 ----------------------------------------------------------------------

 -------------------------------------
 CID_116504417_JID_5386_Energie_kation
 -------------------------------------
 Structure from the checkpoint file:  "JID_5386.chk"
 Charge =  1 Multiplicity = 2

 SCF Done:  E(UB3LYP) =  -1071.12802177     A.U. after   26 cycles
 Normal termination of Gaussian 16 at Thu Dec 10 16:38:22 2020.
 Gaussian 16:  ES64L-G16RevA.03 25-Dec-2016

 ----------------------------------------------------------------------
 # B3LYP/6-311++G(d,p) empiricaldispersion=gd3bj scf=xqc pop=npa geom=c
 heck
 ----------------------------------------------------------------------

 ------------------------------------
 CID_116504417_JID_5386_Energie_anion
 ------------------------------------
 Structure from the checkpoint file:  "JID_5386.chk"
 Charge = -1 Multiplicity = 2

                         Standard orientation:
 ---------------------------------------------------------------------
 Center     Atomic      Atomic             Coordinates (Angstroms)
 Number     Number       Type             X           Y           Z
 ---------------------------------------------------------------------
      1          6           0        0.885199    2.622470   -0.802187
      2          6           0        2.117057    2.454402    0.087636
      3          6           0        2.025659    1.285370    1.080591
      4          7           0        1.970034   -0.040042    0.447421
      5          6           0        3.042728   -0.474943   -0.275053
      6          8           0        3.113700   -1.572913   -0.806793
      7          6           0        0.928743   -1.053755    0.645795
      8          6           0       -0.113886   -0.723667    1.729479
      9          6           0       -1.196700    0.295804    1.327948
     10         16           0       -2.697257   -0.570996    0.713401
     11          6           0       -3.529335    0.803914   -0.174774
     12          6           0       -2.893404    1.164245   -1.515551
     13          6           0        0.234244   -1.365185   -0.681792
     14          8           0        0.064724   -0.589592   -1.595358
     15          8           0       -0.228755   -2.629691   -0.681674
     16          1           0        0.662841    1.695528   -1.338313
     17          1           0        1.042529    3.419476   -1.536680
     18          1           0        0.005505    2.895894   -0.206204
     19          1           0        3.008158    2.325651   -0.538484
     20          1           0        2.289470    3.365879    0.675693
     21          1           0        2.885266    1.320512    1.763359
     22          1           0        1.137293    1.407382    1.699663
     23          1           0        3.863212    0.263380   -0.324593
     24          1           0        1.434927   -1.977476    0.941472
     25          1           0       -0.586609   -1.669679    2.012701
     26          1           0        0.417168   -0.380342    2.623492
     27          1           0       -1.474823    0.915799    2.186235
     28          1           0       -0.835605    0.952894    0.536137
     29          1           0       -4.558377    0.456953   -0.315119
     30          1           0       -3.575374    1.671090    0.494111
     31          1           0       -1.860571    1.502154   -1.400190
     32          1           0       -2.877317    0.299494   -2.184491
     33          1           0       -3.462465    1.969539   -1.996686
     34          1           0       -0.748547   -2.732263   -1.500417
 ---------------------------------------------------------------------

 SCF Done:  E(UB3LYP) =  -1071.42125478     A.U. after   33 cycles
 SCF Done:  E(UB3LYP) =  -1071.42125478     a.u. after    1 cycles

 The electronic state is 2-A.
 Alpha  occ. eigenvalues --  -88.74376 -19.08421 -19.02362 -19.00071 -14.25276
 Alpha  occ. eigenvalues --  -10.21428 -10.17121 -10.13686 -10.11098 -10.10993
 Alpha  occ. eigenvalues --  -10.10493 -10.09755 -10.07417 -10.07414 -10.05732
 Alpha  occ. eigenvalues --   -7.83011  -5.79406  -5.79049  -5.78366  -1.02406
 Alpha  occ. eigenvalues --   -0.94927  -0.93266  -0.84927  -0.73317  -0.70549
 Alpha  occ. eigenvalues --   -0.68422  -0.64650  -0.60365  -0.58598  -0.55174
 Alpha  occ. eigenvalues --   -0.53463  -0.50942  -0.48993  -0.45236  -0.42916
 Alpha  occ. eigenvalues --   -0.41207  -0.40612  -0.38736  -0.37980  -0.36912
 Alpha  occ. eigenvalues --   -0.36178  -0.35503  -0.34095  -0.33904  -0.32664
 Alpha  occ. eigenvalues --   -0.32324  -0.31298  -0.30641  -0.29941  -0.29258
 Alpha  occ. eigenvalues --   -0.28085  -0.27778  -0.26614  -0.25959  -0.25134
 Alpha  occ. eigenvalues --   -0.24546  -0.24428  -0.23655  -0.21563  -0.19362
 Alpha  occ. eigenvalues --   -0.17028  -0.15707  -0.13227   0.04181
 Alpha virt. eigenvalues --    0.06070   0.07028   0.07243   0.07942   0.08475
 Alpha virt. eigenvalues --    0.08713   0.09523   0.09599   0.10053   0.10446
 Alpha virt. eigenvalues --    0.10580   0.11659   0.11777   0.12118   0.12790

  Beta  occ. eigenvalues --  -88.74375 -19.08414 -19.02337 -19.00053 -14.25279
  Beta  occ. eigenvalues --  -10.21393 -10.17107 -10.13686 -10.11057 -10.10978
  Beta  occ. eigenvalues --  -10.10464 -10.09729 -10.07407 -10.07394 -10.05715
  Beta  occ. eigenvalues --   -7.83009  -5.79405  -5.79045  -5.78364  -1.02373
  Beta  occ. eigenvalues --   -0.94899  -0.93229  -0.84909  -0.73283  -0.70516
  Beta  occ. eigenvalues --   -0.68383  -0.64612  -0.60316  -0.58551  -0.55133
  Beta  occ. eigenvalues --   -0.53410  -0.50888  -0.48944  -0.45196  -0.42849
  Beta  occ. eigenvalues --   -0.41176  -0.40573  -0.38707  -0.37898  -0.36887
  Beta  occ. eigenvalues --   -0.36131  -0.35462  -0.34066  -0.33823  -0.32634
  Beta  occ. eigenvalues --   -0.32295  -0.31264  -0.30605  -0.29896  -0.29228
  Beta  occ. eigenvalues --   -0.28056  -0.27746  -0.26572  -0.25907  -0.25094
  Beta  occ. eigenvalues --   -0.24507  -0.24393  -0.23559  -0.21530  -0.19335
  Beta  occ. eigenvalues --   -0.17010  -0.15663  -0.13210
  Beta virt. eigenvalues --    0.06216   0.07043   0.07247   0.07851   0.08390
  Beta virt. eigenvalues --    0.08849   0.09059   0.09774   0.10059   0.10335
  Beta virt. eigenvalues --    0.10857   0.10964   0.11836   0.12110   0.12389

 Mulliken charges and spin densities:
               1          2
     1  C   -0.259672  -0.225023
     2  C    1.421720  -1.830085
     3  C   -0.531602   0.365367
     4  N    0.150220   0.055022
     5  C    0.337625  -0.233231
     6  O   -0.326319   0.011279
     7  C    0.172642   0.103676
     8  C    0.127674  -1.125293
     9  C   -0.311577   0.290571
    10  S    0.358437  -0.311368
    11  C   -0.070986  -0.341990
    12  C   -0.467478  -0.005067
    13  C   -0.437303   0.047039
    14  O   -0.188982   0.012347
    15  O   -0.085445   0.012738
    16  H    0.122980   0.083306
    17  H   -0.119532   0.272782
    18  H   -0.279117   0.441297
    19  H    0.223028  -0.095163
    20  H   -0.502258   0.667910
    21  H   -0.884209   1.127107
    22  H   -0.250488   0.413923
    23  H   -0.120654   0.205113
    24  H    0.229769   0.082275
    25  H    0.099355   0.072552
    26  H   -0.339183   0.557856
    27  H   -0.728375   1.055795
    28  H    1.275922  -1.353901
    29  H    0.042763   0.153661
    30  H   -0.095630   0.272847
    31  H    0.163347  -0.038108
    32  H    0.155821  -0.023541
    33  H   -0.125599   0.253639
    34  H    0.243106   0.024669
 Sum of Mulliken charges =  -1.00000   1.00000

 Dipole moment (field-independent basis, Debye):
    X=             -3.7387    Y=             -4.7080    Z=             -5.5125  Tot=              8.1566
 Quadrupole moment (field-independent basis, Debye-Ang):
   XX=           -157.3812   YY=           -150.4344   ZZ=           -149.4701
   XY=              3.4142   XZ=             -0.2777   YZ=            -10.3502

 Summary of Natural Population Analysis:

                                       Natural Population
                Natural  -----------------------------------------------
    Atom  No    Charge         Core      Valence    Rydberg      Total
 -----------------------------------------------------------------------
      C    1   -0.29620      0.99965     2.29073    0.00581     3.29620
      C    2   -0.19128      0.99963     2.18345    0.00820     3.19128
      C    3   -0.08696      0.99958     2.07369    0.01369     3.08696
      N    4   -0.25785      0.99966     2.74428    0.01391     3.75785
      C    5    0.27911      0.99968     1.69999    0.02122     2.72089
      O    6   -0.31643      0.99989     3.31089    0.00565     4.31643
      C    7   -0.04942      0.99951     2.03423    0.01568     3.04942
      C    8   -0.20005      0.99960     2.18950    0.01095     3.20005
      C    9   -0.26175      0.99958     2.25042    0.01175     3.26175
      S   10    0.08366      4.99962     2.89940    0.01732     7.91634
      C   11   -0.25099      0.99961     2.24145    0.00993     3.25099
      C   12   -0.29200      0.99965     2.28572    0.00663     3.29200
      C   13    0.41926      0.99969     1.55358    0.02747     2.58074
      O   14   -0.30633      0.99986     3.29993    0.00653     4.30633
      O   15   -0.34105      0.99987     3.33508    0.00611     4.34105
      H   16    0.11164      0.00000     0.38656    0.00180     0.38836
      H   17    0.09822      0.00000     0.40098    0.00079     0.40178
      H   18    0.09529      0.00000     0.40328    0.00142     0.40471
      H   19    0.09188      0.00000     0.40683    0.00129     0.40812
      H   20    0.10211      0.00000     0.39605    0.00185     0.39789
      H   21    0.10172      0.00000     0.39456    0.00373     0.39828
      H   22    0.10523      0.00000     0.39130    0.00347     0.39477
      H   23    0.05777      0.00000     0.44061    0.00162     0.44223
      H   24    0.11796      0.00000     0.38032    0.00172     0.38204
      H   25    0.11064      0.00000     0.38819    0.00118     0.38936
      H   26    0.11607      0.00000     0.38180    0.00213     0.38393
      H   27    0.10784      0.00000     0.38932    0.00284     0.39216
      H   28    0.10730      0.00000     0.38829    0.00441     0.39270
      H   29    0.10093      0.00000     0.39815    0.00091     0.39907
      H   30    0.10215      0.00000     0.39653    0.00132     0.39785
      H   31    0.10596      0.00000     0.39270    0.00134     0.39404
      H   32    0.09980      0.00000     0.39914    0.00106     0.40020
      H   33    0.09655      0.00000     0.40244    0.00101     0.40345
      H   34    0.23921      0.00000     0.25764    0.00315     0.26079
 =======================================================================
   * Total *    0.00000     18.99506    43.78703    0.21791    63.00000

 Normal termination of Gaussian 16 at Thu Dec 10 17:00:05 2020.
