 Gaussian 16, Revision A.03,

 -----------------------------------------------------------
 # opt freq B3LYP/6-31G(d) empiricaldispersion=gd3bj scf=xqc
 -----------------------------------------------------------

 ------------------------------
 CID_19888134_JID_2992_neutraal
 ------------------------------
 Symbolic Z-matrix:
 Charge =  0 Multiplicity = 1

 SCF Done:  E(RB3LYP) =  -480.544745173     A.U. after   15 cycles
 SCF Done:  E(RB3LYP) =  -480.549428582     A.U. after   12 cycles
 SCF Done:  E(RB3LYP) =  -480.550410891     A.U. after   12 cycles
 SCF Done:  E(RB3LYP) =  -480.551334467     A.U. after   12 cycles
 SCF Done:  E(RB3LYP) =  -480.551848280     A.U. after   12 cycles
 SCF Done:  E(RB3LYP) =  -480.552081175     A.U. after   12 cycles
 SCF Done:  E(RB3LYP) =  -480.552131715     A.U. after   12 cycles
 SCF Done:  E(RB3LYP) =  -480.552139924     A.U. after   10 cycles
 SCF Done:  E(RB3LYP) =  -480.552143641     A.U. after   10 cycles
 SCF Done:  E(RB3LYP) =  -480.552143866     A.U. after    7 cycles
 Optimization completed.
    -- Stationary point found.
 Normal termination of Gaussian 16 at Wed Dec  9 18:21:20 2020.

 --------------------------------------------------------------------
 #N Geom=AllCheck Guess=TCheck SCRF=Check GenChk RB3LYP/6-31G(d) Freq
 --------------------------------------------------------------------

 Structure from the checkpoint file:  "JID_2992.chk"
 ------------------------------
 CID_19888134_JID_2992_neutraal
 ------------------------------
 Charge =  0 Multiplicity = 1

 SCF Done:  E(RB3LYP) =  -480.552143866     A.U. after    1 cycles

  Exact polarizability: 162.413   3.756 135.656   4.352  -9.689  57.787
 Approx polarizability: 261.409   6.178 228.446   6.893 -20.491  90.692

                      1                      2                      3
                      A                      A                      A
 Frequencies --     98.8955               119.6834               160.2318
 Red. masses --      3.6939                 3.2514                 3.5297
 Frc consts  --      0.0213                 0.0274                 0.0534
 IR Inten    --      0.6601                 0.9411                 3.1756

                      4                      5                      6
                      A                      A                      A
 Frequencies --    258.0283               262.4158               305.5564
 Red. masses --      1.5762                 1.7610                 2.8255
 Frc consts  --      0.0618                 0.0714                 0.1554
 IR Inten    --      0.9820                 4.0898                 6.0300

                      7                      8                      9
                      A                      A                      A
 Frequencies --    344.9876               367.4861               406.0009
 Red. masses --      3.6655                 3.8647                 4.4241
 Frc consts  --      0.2570                 0.3075                 0.4297
 IR Inten    --      0.2467                 0.8555                 2.2847

                     10                     11                     12
                      A                      A                      A
 Frequencies --    442.3660               474.6131               528.7836
 Red. masses --      3.5566                 3.5255                 3.8352
 Frc consts  --      0.4101                 0.4679                 0.6318
 IR Inten    --      1.1403                16.0630                 0.7760

                     13                     14                     15
                      A                      A                      A
 Frequencies --    570.0930               609.3607               646.1475
 Red. masses --      4.2250                 3.6637                 4.3539
 Frc consts  --      0.8090                 0.8015                 1.0710
 IR Inten    --      1.7955                 1.7771                 5.2094

                     16                     17                     18
                      A                      A                      A
 Frequencies --    715.5155               739.8527               765.0728
 Red. masses --      2.7823                 2.5651                 1.3027
 Frc consts  --      0.8393                 0.8273                 0.4493
 IR Inten    --     21.6788                 9.8149                38.9450

                     19                     20                     21
                      A                      A                      A
 Frequencies --    781.1322               804.4617               812.8222
 Red. masses --      2.6858                 3.3737                 1.6665
 Frc consts  --      0.9656                 1.2864                 0.6487
 IR Inten    --     14.1323                11.5673                10.9434

                     22                     23                     24
                      A                      A                      A
 Frequencies --    876.0030               906.8221               933.3885
 Red. masses --      1.5411                 3.6654                 1.3011
 Frc consts  --      0.6968                 1.7759                 0.6678
 IR Inten    --      2.5167                 8.3234                 9.6458

                     25                     26                     27
                      A                      A                      A
 Frequencies --    937.8652               968.2169               970.6051
 Red. masses --      1.4595                 2.8263                 1.2882
 Frc consts  --      0.7564                 1.5611                 0.7150
 IR Inten    --      5.4640                 1.7578                 0.1761

                     28                     29                     30
                      A                      A                      A
 Frequencies --    990.4166              1041.5233              1083.8628
 Red. masses --      1.2695                 2.3211                 2.3880
 Frc consts  --      0.7337                 1.4835                 1.6528
 IR Inten    --      0.1970                 8.5071                 7.9318

                     31                     32                     33
                      A                      A                      A
 Frequencies --   1121.2174              1158.2516              1166.0800
 Red. masses --      2.5204                 1.3843                 1.5732
 Frc consts  --      1.8668                 1.0942                 1.2604
 IR Inten    --     23.3003                11.7857                 5.8254

                     34                     35                     36
                      A                      A                      A
 Frequencies --   1197.6893              1203.6176              1229.6723
 Red. masses --      1.1312                 2.1540                 1.4795
 Frc consts  --      0.9561                 1.8385                 1.3181
 IR Inten    --      0.1699                10.3872                16.9979

                     37                     38                     39
                      A                      A                      A
 Frequencies --   1258.6880              1267.8459              1314.1005
 Red. masses --      1.8407                 1.4080                 1.6908
 Frc consts  --      1.7181                 1.3335                 1.7202
 IR Inten    --     35.1432                 4.3374                 4.0648

                     40                     41                     42
                      A                      A                      A
 Frequencies --   1350.6993              1365.6885              1425.4422
 Red. masses --      2.8238                 3.5711                 1.3917
 Frc consts  --      3.0353                 3.9243                 1.6660
 IR Inten    --     30.9863                24.1585                 5.5478

                     43                     44                     45
                      A                      A                      A
 Frequencies --   1470.0895              1490.6822              1501.1397
 Red. masses --      1.4408                 1.3932                 1.9970
 Frc consts  --      1.8346                 1.8241                 2.6514
 IR Inten    --      4.9064                 1.7906                19.4588

                     46                     47                     48
                      A                      A                      A
 Frequencies --   1520.3572              1538.1092              1547.2088
 Red. masses --      1.0680                 1.4888                 1.5460
 Frc consts  --      1.4545                 2.0751                 2.1805
 IR Inten    --     25.3859                39.7437                10.7952

                     49                     50                     51
                      A                      A                      A
 Frequencies --   1630.7565              1648.4303              1677.0818
 Red. masses --      5.6747                 5.8798                 7.7621
 Frc consts  --      8.8914                 9.4136                12.8628
 IR Inten    --      2.1945                11.6625                10.0041

                     52                     53                     54
                      A                      A                      A
 Frequencies --   1723.1136              2972.4047              3096.1558
 Red. masses --      5.4331                 1.0592                 1.0749
 Frc consts  --      9.5045                 5.5139                 6.0712
 IR Inten    --     25.4816                95.4292                33.4235

                     55                     56                     57
                      A                      A                      A
 Frequencies --   3124.9520              3146.2835              3151.9259
 Red. masses --      1.0881                 1.1038                 1.0837
 Frc consts  --      6.2603                 6.4376                 6.3432
 IR Inten    --     26.3571                18.0800                 1.6809

                     58                     59                     60
                      A                      A                      A
 Frequencies --   3171.2765              3180.4047              3190.2786
 Red. masses --      1.0927                 1.0866                 1.0901
 Frc consts  --      6.4745                 6.4755                 6.5369
 IR Inten    --     32.9824                12.1123                12.9918

                     61                     62                     63
                      A                      A                      A
 Frequencies --   3190.7775              3208.2705              3220.5336
 Red. masses --      1.0914                 1.0943                 1.0934
 Frc consts  --      6.5470                 6.6365                 6.6818
 IR Inten    --     36.1708                32.5392                14.1388

 - Thermochemistry -
 -------------------
 Temperature   298.150 Kelvin.  Pressure   1.00000 Atm.
 Atom     1 has atomic number  6 and mass  12.00000

 Molecular mass:   157.08915 amu.
 Principal axes and moments of inertia in atomic units:
                           1         2         3
     Eigenvalues --  1180.677671928.983312902.32098
           X            0.99989  -0.01502   0.00196
           Y            0.01502   0.99989  -0.00095
           Z           -0.00195   0.00098   1.00000
 This molecule is an asymmetric top.
 Rotational symmetry number  1.
 Warning -- assumption of classical behavior for rotation
           may cause significant error
 Rotational temperatures (Kelvin)      0.07336     0.04490     0.02984
 Rotational constants (GHZ):           1.52856     0.93559     0.62183
 Zero-point vibrational energy     504713.1 (Joules/Mol)
                                  120.62932 (Kcal/Mol)
 Warning -- explicit consideration of  14 degrees of freedom as
           vibrations may cause significant error
 Vibrational temperatures:    142.29   172.20   230.54   371.25   377.56
          (Kelvin)            439.63   496.36   528.73   584.14   636.47
                              682.86   760.80   820.24   876.73   929.66
                             1029.47  1064.48  1100.77  1123.88  1157.44
                             1169.47  1260.37  1304.71  1342.94  1349.38
                             1393.05  1396.48  1424.99  1498.52  1559.44
                             1613.18  1666.47  1677.73  1723.21  1731.74
                             1769.22  1810.97  1824.15  1890.70  1943.36
                             1964.92  2050.89  2115.13  2144.76  2159.81
                             2187.45  2213.00  2226.09  2346.29  2371.72
                             2412.95  2479.18  4276.63  4454.68  4496.11
                             4526.80  4534.92  4562.76  4575.89  4590.10
                             4590.82  4615.99  4633.63

 Zero-point correction=                           0.192235 (Hartree/Particle)
 Thermal correction to Energy=                    0.201808
 Thermal correction to Enthalpy=                  0.202752
 Thermal correction to Gibbs Free Energy=         0.157734
 Sum of electronic and zero-point Energies=           -480.359909
 Sum of electronic and thermal Energies=              -480.350336
 Sum of electronic and thermal Enthalpies=            -480.349392
 Sum of electronic and thermal Free Energies=         -480.394410

                     E (Thermal)             CV                S
                      KCal/Mol        Cal/Mol-Kelvin    Cal/Mol-Kelvin
 Total                  126.636             39.112             94.749
 Electronic               0.000              0.000              0.000
 Translational            0.889              2.981             41.064
 Rotational               0.889              2.981             30.270
 Vibrational            124.859             33.150             23.415
 Vibration     1          0.604              1.950              3.476
 Vibration     2          0.609              1.933              3.105
 Vibration     3          0.622              1.891              2.547
 Vibration     4          0.667              1.749              1.675
 Vibration     5          0.670              1.742              1.646
 Vibration     6          0.696              1.663              1.386
 Vibration     7          0.723              1.585              1.189
 Vibration     8          0.740              1.539              1.090
 Vibration     9          0.771              1.457              0.941
 Vibration    10          0.802              1.378              0.819
 Vibration    11          0.831              1.306              0.725
 Vibration    12          0.884              1.186              0.590
 Vibration    13          0.926              1.096              0.504
 Vibration    14          0.968              1.012              0.434

 Optimization completed.
    -- Stationary point found.
 Normal termination of Gaussian 16 at Wed Dec  9 18:26:37 2020.

 ----------------------------------------------------------------------
 # B3LYP/6-311++G(d,p) empiricaldispersion=gd3bj scf=xqc pop=npa geom=c
 heck
 ----------------------------------------------------------------------

 --------------------------------------
 CID_19888134_JID_2992_Energie_neutraal
 --------------------------------------
 Structure from the checkpoint file:  "JID_2992.chk"
 Charge =  0 Multiplicity = 1

 SCF Done:  E(RB3LYP) =  -480.676773544     A.U. after   16 cycles
 Normal termination of Gaussian 16 at Wed Dec  9 18:29:18 2020.

 ----------------------------------------------------------------------
 # B3LYP/6-311++G(d,p) empiricaldispersion=gd3bj scf=xqc pop=npa geom=c
 heck
 ----------------------------------------------------------------------

 ------------------------------------
 CID_19888134_JID_2992_Energie_kation
 ------------------------------------
 Structure from the checkpoint file:  "JID_2992.chk"
 Charge =  1 Multiplicity = 2

 SCF Done:  E(UB3LYP) =  -480.420651528     A.U. after   21 cycles
 Normal termination of Gaussian 16 at Wed Dec  9 18:34:11 2020.
 Gaussian 16:  ES64L-G16RevA.03 25-Dec-2016

 ----------------------------------------------------------------------
 # B3LYP/6-311++G(d,p) empiricaldispersion=gd3bj scf=xqc pop=npa geom=c
 heck
 ----------------------------------------------------------------------

 -----------------------------------
 CID_19888134_JID_2992_Energie_anion
 -----------------------------------
 Structure from the checkpoint file:  "JID_2992.chk"
 Charge = -1 Multiplicity = 2

                         Standard orientation:
 ---------------------------------------------------------------------
 Center     Atomic      Atomic             Coordinates (Angstroms)
 Number     Number       Type             X           Y           Z
 ---------------------------------------------------------------------
      1          6           0       -1.107601    2.421425    0.635886
      2          7           0       -1.018158    1.015564    0.277432
      3          6           0       -2.062947    0.561163   -0.553779
      4          6           0       -2.461666   -0.719265   -0.644852
      5          6           0       -1.856306   -1.821175    0.082087
      6          6           0       -0.575259   -1.884470    0.501568
      7          6           0        0.496983   -0.921299    0.227938
      8          6           0        1.808954   -1.407239    0.124865
      9          6           0        2.887354   -0.572541   -0.161295
     10          6           0        2.659461    0.786234   -0.357098
     11          6           0        1.363333    1.296877   -0.259007
     12          6           0        0.282381    0.467393    0.055431
     13          1           0       -0.956045    3.107936   -0.215520
     14          1           0       -0.362007    2.649291    1.401619
     15          1           0       -2.099992    2.613775    1.053687
     16          1           0       -2.572864    1.336396   -1.128827
     17          1           0       -3.299744   -0.941627   -1.300276
     18          1           0       -2.491588   -2.686194    0.265846
     19          1           0       -0.251053   -2.797160    0.998607
     20          1           0        1.976289   -2.470563    0.277501
     21          1           0        3.891849   -0.980259   -0.223763
     22          1           0        3.484534    1.458197   -0.576010
     23          1           0        1.199604    2.358643   -0.405365
 ---------------------------------------------------------------------

 SCF Done:  E(UB3LYP) =  -480.669636420     A.U. after   33 cycles
 SCF Done:  E(UB3LYP) =  -480.669636420     a.u. after    1 cycles

 The electronic state is 2-A.
 Alpha  occ. eigenvalues --  -14.18716 -10.07088 -10.06057 -10.03967 -10.02915
 Alpha  occ. eigenvalues --  -10.02791 -10.02712 -10.02585 -10.02465 -10.01179
 Alpha  occ. eigenvalues --  -10.00752 -10.00579  -0.80833  -0.70739  -0.65669
 Alpha  occ. eigenvalues --   -0.61615  -0.60270  -0.57925  -0.52793  -0.49667
 Alpha  occ. eigenvalues --   -0.45964  -0.41591  -0.41175  -0.36625  -0.34195
 Alpha  occ. eigenvalues --   -0.33619  -0.31857  -0.30527  -0.30105  -0.29205
 Alpha  occ. eigenvalues --   -0.26701  -0.26231  -0.24635  -0.23192  -0.21927
 Alpha  occ. eigenvalues --   -0.21437  -0.18945  -0.17741  -0.14720  -0.11861
 Alpha  occ. eigenvalues --   -0.09834  -0.04300   0.05801
 Alpha virt. eigenvalues --    0.08144   0.09017   0.09499   0.10423   0.10812
 Alpha virt. eigenvalues --    0.11263   0.12417   0.12619   0.12946   0.13790
 Alpha virt. eigenvalues --    0.14319   0.14739   0.15495   0.16812   0.16972

  Beta  occ. eigenvalues --  -14.18739 -10.07071 -10.05881 -10.03632 -10.02943
  Beta  occ. eigenvalues --  -10.02831 -10.02647 -10.02497 -10.02264 -10.01206
  Beta  occ. eigenvalues --  -10.00530 -10.00383  -0.80657  -0.70514  -0.65251
  Beta  occ. eigenvalues --   -0.61227  -0.60078  -0.57624  -0.52658  -0.49130
  Beta  occ. eigenvalues --   -0.45822  -0.41244  -0.40948  -0.36496  -0.34017
  Beta  occ. eigenvalues --   -0.33428  -0.31683  -0.30390  -0.29964  -0.29083
  Beta  occ. eigenvalues --   -0.26528  -0.26113  -0.24292  -0.22877  -0.21758
  Beta  occ. eigenvalues --   -0.21211  -0.18728  -0.17011  -0.13737  -0.10807
  Beta  occ. eigenvalues --   -0.09120  -0.03665
  Beta virt. eigenvalues --    0.08265   0.09054   0.09477   0.10375   0.10833
  Beta virt. eigenvalues --    0.10878   0.11557   0.12518   0.12609   0.13104
  Beta virt. eigenvalues --    0.13872   0.14720   0.15132   0.15709   0.16787

 Mulliken charges and spin densities:
               1          2
     1  C    0.152971  -0.522191
     2  N    0.298660   0.045541
     3  C   -0.140669   0.039682
     4  C   -0.064597   0.084440
     5  C   -0.568104   0.161156
     6  C   -0.314254   0.060809
     7  C    1.000216   0.135009
     8  C   -0.049292   0.185806
     9  C   -0.309388  -0.085643
    10  C    0.246207  -0.165198
    11  C    0.211151  -0.152025
    12  C   -1.601539   0.163839
    13  H   -0.243256   0.362220
    14  H    0.113063   0.024089
    15  H    0.088785   0.050901
    16  H   -0.073674   0.131564
    17  H    0.066545   0.061679
    18  H    0.063812   0.004695
    19  H    0.113867  -0.005065
    20  H    0.059526   0.030668
    21  H    0.076804   0.027541
    22  H   -0.054615   0.160919
    23  H   -0.072220   0.199564
 Sum of Mulliken charges =  -1.00000   1.00000

 Dipole moment (field-independent basis, Debye):
    X=              0.8491    Y=             -0.2104    Z=              1.2468  Tot=              1.5231
 Quadrupole moment (field-independent basis, Debye-Ang):
   XX=           -101.6301   YY=            -94.7344   ZZ=            -88.4074
   XY=             -2.7269   XZ=              0.8096   YZ=              3.6524

 Summary of Natural Population Analysis:

                                       Natural Population
                Natural  -----------------------------------------------
    Atom  No    Charge         Core      Valence    Rydberg      Total
 -----------------------------------------------------------------------
      C    1   -0.17448      0.99965     2.16565    0.00918     3.17448
      N    2   -0.26852      0.99965     2.75707    0.01180     3.76852
      C    3    0.07446      0.99950     1.91302    0.01302     2.92554
      C    4   -0.14984      0.99955     2.13989    0.01041     3.14984
      C    5   -0.06709      0.99954     2.05541    0.01214     3.06709
      C    6   -0.07356      0.99953     2.06389    0.01014     3.07356
      C    7   -0.03032      0.99946     2.02195    0.00891     3.03032
      C    8   -0.07741      0.99954     2.06962    0.00825     3.07741
      C    9   -0.13055      0.99956     2.12088    0.01010     3.13055
      C   10   -0.07338      0.99957     2.06272    0.01109     3.07338
      C   11   -0.14059      0.99953     2.13097    0.01008     3.14059
      C   12    0.13158      0.99943     1.85732    0.01168     2.86842
      H   13    0.08106      0.00000     0.41667    0.00227     0.41894
      H   14    0.09712      0.00000     0.40200    0.00088     0.40288
      H   15    0.09353      0.00000     0.40557    0.00091     0.40647
      H   16    0.07619      0.00000     0.42174    0.00207     0.42381
      H   17    0.09352      0.00000     0.40541    0.00107     0.40648
      H   18    0.08487      0.00000     0.41390    0.00124     0.41513
      H   19    0.08452      0.00000     0.41380    0.00168     0.41548
      H   20    0.08954      0.00000     0.40870    0.00177     0.41046
      H   21    0.09151      0.00000     0.40767    0.00082     0.40849
      H   22    0.08995      0.00000     0.40921    0.00084     0.41005
      H   23    0.09790      0.00000     0.40075    0.00134     0.40210
 =======================================================================
   * Total *    0.00000     11.99452    29.86381    0.14167    42.00000

 Normal termination of Gaussian 16 at Wed Dec  9 18:40:32 2020.
