 Gaussian 16, Revision A.03,

 -----------------------------------------------------------
 # opt freq B3LYP/6-31G(d) empiricaldispersion=gd3bj scf=xqc
 -----------------------------------------------------------

 -------------------------------
 CID_62738115_JID_10419_neutraal
 -------------------------------
 Symbolic Z-matrix:
 Charge =  0 Multiplicity = 1

 SCF Done:  E(RB3LYP) =  -895.116846539     A.U. after   15 cycles
 SCF Done:  E(RB3LYP) =  -895.122076414     A.U. after   13 cycles
 SCF Done:  E(RB3LYP) =  -895.123150478     A.U. after   12 cycles
 SCF Done:  E(RB3LYP) =  -895.124124007     A.U. after   12 cycles
 SCF Done:  E(RB3LYP) =  -895.124604856     A.U. after   12 cycles
 SCF Done:  E(RB3LYP) =  -895.124885254     A.U. after   12 cycles
 SCF Done:  E(RB3LYP) =  -895.125075709     A.U. after   10 cycles
 SCF Done:  E(RB3LYP) =  -895.125140791     A.U. after   12 cycles
 SCF Done:  E(RB3LYP) =  -895.125150092     A.U. after    9 cycles
 SCF Done:  E(RB3LYP) =  -895.125155388     A.U. after   10 cycles
 SCF Done:  E(RB3LYP) =  -895.134342065     A.U. after    7 cycles
 SCF Done:  E(RB3LYP) =  -895.134342149     A.U. after    8 cycles
 SCF Done:  E(RB3LYP) =  -895.134342202     A.U. after    8 cycles
 SCF Done:  E(RB3LYP) =  -895.134342236     A.U. after    8 cycles
 SCF Done:  E(RB3LYP) =  -895.134342248     A.U. after    7 cycles
 Optimization completed.
    -- Stationary point found.
 Normal termination of Gaussian 16 at Sun Dec 13 21:36:54 2020.

 --------------------------------------------------------------------
 #N Geom=AllCheck Guess=TCheck SCRF=Check GenChk RB3LYP/6-31G(d) Freq
 --------------------------------------------------------------------

 Structure from the checkpoint file:  "JID_10419.chk"
 -------------------------------
 CID_62738115_JID_10419_neutraal
 -------------------------------
 Charge =  0 Multiplicity = 1

 SCF Done:  E(RB3LYP) =  -895.134342248     A.U. after    1 cycles

  Exact polarizability: 219.383  -7.849 207.795   9.396  -1.155 115.948
 Approx polarizability: 312.230 -16.141 312.826  18.239  -4.794 181.856

                      1                      2                      3
                      A                      A                      A
 Frequencies --     12.1891                21.2832                29.7868
 Red. masses --      3.0127                 3.8951                 4.2600
 Frc consts  --      0.0003                 0.0010                 0.0022
 IR Inten    --      0.4580                 0.5274                 0.5049

                      4                      5                      6
                      A                      A                      A
 Frequencies --     47.3002                66.9796                89.4405
 Red. masses --      3.4763                 4.2045                 2.5418
 Frc consts  --      0.0046                 0.0111                 0.0120
 IR Inten    --      1.2532                 0.3337                 4.7733

                      7                      8                      9
                      A                      A                      A
 Frequencies --     94.5848                96.0302               113.0697
 Red. masses --      4.4244                 4.3590                 4.6137
 Frc consts  --      0.0233                 0.0237                 0.0348
 IR Inten    --      1.1791                 1.3487                 5.2962

                     10                     11                     12
                      A                      A                      A
 Frequencies --    137.2239               180.3282               195.6785
 Red. masses --      3.5478                 2.3317                 2.7326
 Frc consts  --      0.0394                 0.0447                 0.0616
 IR Inten    --      1.2157                 0.1299                 2.6671

                     13                     14                     15
                      A                      A                      A
 Frequencies --    235.6659               239.8229               247.0051
 Red. masses --      2.8804                 1.0892                 1.5651
 Frc consts  --      0.0943                 0.0369                 0.0563
 IR Inten    --      0.2778                 0.0589                 3.2873

                     16                     17                     18
                      A                      A                      A
 Frequencies --    263.0731               274.7582               302.6766
 Red. masses --      1.1329                 2.8462                 3.4635
 Frc consts  --      0.0462                 0.1266                 0.1869
 IR Inten    --      0.3616                 0.6813                 0.3088

                     19                     20                     21
                      A                      A                      A
 Frequencies --    315.9887               321.4711               338.7151
 Red. masses --      3.0148                 2.6684                 3.7015
 Frc consts  --      0.1774                 0.1625                 0.2502
 IR Inten    --      0.1999                 3.6156                 0.1847

                     22                     23                     24
                      A                      A                      A
 Frequencies --    355.5438               395.5063               422.7650
 Red. masses --      4.4534                 3.2259                 3.7483
 Frc consts  --      0.3317                 0.2973                 0.3947
 IR Inten    --      4.3081                 0.0871                 2.0189

                     25                     26                     27
                      A                      A                      A
 Frequencies --    466.0863               482.5057               501.7309
 Red. masses --      3.2987                 3.6222                 4.0753
 Frc consts  --      0.4222                 0.4969                 0.6044
 IR Inten    --      1.9917                 2.7801                 1.6703

                     28                     29                     30
                      A                      A                      A
 Frequencies --    562.1377               577.6013               634.4160
 Red. masses --      2.5105                 3.1295                 5.0190
 Frc consts  --      0.4674                 0.6152                 1.1902
 IR Inten    --      3.2335                 0.1491                 0.6521

                     31                     32                     33
                      A                      A                      A
 Frequencies --    686.2314               712.6179               722.9156
 Red. masses --      6.0408                 5.2806                 2.6543
 Frc consts  --      1.6760                 1.5800                 0.8173
 IR Inten    --      4.7019                 1.5027                17.1831

                     34                     35                     36
                      A                      A                      A
 Frequencies --    729.2665               795.9399               808.2814
 Red. masses --      7.9700                 2.9341                 1.7721
 Frc consts  --      2.4974                 1.0952                 0.6821
 IR Inten    --      0.2569                23.0792                71.5049

                     37                     38                     39
                      A                      A                      A
 Frequencies --    814.5363               835.0222               865.3045
 Red. masses --      1.5963                 3.7528                 2.1267
 Frc consts  --      0.6240                 1.5417                 0.9382
 IR Inten    --     12.3088                 5.0153                36.7417

                     40                     41                     42
                      A                      A                      A
 Frequencies --    916.6915               921.3923               922.8959
 Red. masses --      2.6368                 1.3769                 2.0844
 Frc consts  --      1.3055                 0.6887                 1.0460
 IR Inten    --      2.3353                 0.0995                 1.0027

                     43                     44                     45
                      A                      A                      A
 Frequencies --    946.3313               974.3399               980.7136
 Red. masses --      1.1719                 1.5424                 1.2780
 Frc consts  --      0.6184                 0.8627                 0.7242
 IR Inten    --      1.4156                 0.8951                 2.9013

                     46                     47                     48
                      A                      A                      A
 Frequencies --    989.0217               996.8347              1018.2489
 Red. masses --      1.5700                 1.5591                 3.5435
 Frc consts  --      0.9048                 0.9128                 2.1647
 IR Inten    --      6.3619                37.3561                10.4962

                     49                     50                     51
                      A                      A                      A
 Frequencies --   1023.5463              1024.4972              1075.5554
 Red. masses --      5.2919                 8.1430                 2.4076
 Frc consts  --      3.2665                 5.0356                 1.6410
 IR Inten    --      6.1192                 1.0354                88.2020

                     52                     53                     54
                      A                      A                      A
 Frequencies --   1081.1618              1104.0074              1119.8647
 Red. masses --      2.3858                 3.0991                 3.8867
 Frc consts  --      1.6431                 2.2255                 2.8718
 IR Inten    --     10.5995                18.9498                 3.9218

                     55                     56                     57
                      A                      A                      A
 Frequencies --   1125.3760              1135.1005              1136.4200
 Red. masses --      1.6629                 2.3451                 3.1412
 Frc consts  --      1.2408                 1.7802                 2.3902
 IR Inten    --     12.6320                 0.8781                 8.2373

                     58                     59                     60
                      A                      A                      A
 Frequencies --   1145.0878              1158.8692              1176.6800
 Red. masses --      2.4823                 2.5092                 4.7527
 Frc consts  --      1.9177                 1.9855                 3.8771
 IR Inten    --     15.9973                24.8798               126.3946

                     61                     62                     63
                      A                      A                      A
 Frequencies --   1188.6250              1196.4360              1207.0515
 Red. masses --      1.8048                 1.3520                 1.1581
 Frc consts  --      1.5024                 1.1403                 0.9941
 IR Inten    --      0.0117                 1.2143                 1.0079

                     64                     65                     66
                      A                      A                      A
 Frequencies --   1218.3572              1243.5429              1258.5372
 Red. masses --      1.3950                 1.9359                 1.5220
 Frc consts  --      1.2201                 1.7638                 1.4204
 IR Inten    --     19.7653                 8.6697                13.9352

                     67                     68                     69
                      A                      A                      A
 Frequencies --   1271.7404              1316.9456              1328.4940
 Red. masses --      1.2104                 2.6561                 1.7705
 Frc consts  --      1.1534                 2.7141                 1.8410
 IR Inten    --     10.1323                 8.7305                 2.5894

                     70                     71                     72
                      A                      A                      A
 Frequencies --   1338.2871              1349.2145              1361.2896
 Red. masses --      3.4865                 2.1370                 1.3312
 Frc consts  --      3.6790                 2.2921                 1.4534
 IR Inten    --     16.1407                 4.5446                 1.7769

                     73                     74                     75
                      A                      A                      A
 Frequencies --   1377.3700              1398.4246              1400.5464
 Red. masses --      1.9570                 1.6172                 1.4556
 Frc consts  --      2.1875                 1.8634                 1.6822
 IR Inten    --      1.2336                 4.2399                31.1901

                     76                     77                     78
                      A                      A                      A
 Frequencies --   1413.9787              1426.5512              1432.7756
 Red. masses --      1.4039                 1.2266                 1.3404
 Frc consts  --      1.6538                 1.4707                 1.6212
 IR Inten    --      2.1256                 2.5422                19.3200

                     79                     80                     81
                      A                      A                      A
 Frequencies --   1447.9946              1476.0155              1499.3322
 Red. masses --      1.2244                 3.9929                 1.1452
 Frc consts  --      1.5125                 5.1253                 1.5168
 IR Inten    --      1.8424                32.0120                24.6863

                     82                     83                     84
                      A                      A                      A
 Frequencies --   1499.7048              1503.6403              1515.6456
 Red. masses --      2.6607                 1.1655                 1.0495
 Frc consts  --      3.5258                 1.5526                 1.4204
 IR Inten    --     22.8902                 3.1454                 3.8838

                     85                     86                     87
                      A                      A                      A
 Frequencies --   1517.6409              1522.1284              1524.1480
 Red. masses --      1.0436                 1.0518                 1.2038
 Frc consts  --      1.4162                 1.4357                 1.6476
 IR Inten    --      0.4723                 4.1668                27.4255

                     88                     89                     90
                      A                      A                      A
 Frequencies --   1526.5302              1531.6565              1533.8647
 Red. masses --      1.1266                 1.0664                 1.0593
 Frc consts  --      1.5467                 1.4739                 1.4684
 IR Inten    --      5.3312                12.5413                 2.9286

                     91                     92                     93
                      A                      A                      A
 Frequencies --   1538.0102              1546.3341              1557.4939
 Red. masses --      1.1941                 2.2813                 1.1009
 Frc consts  --      1.6642                 3.2139                 1.5735
 IR Inten    --      6.0416                48.6495                 8.4602

                     94                     95                     96
                      A                      A                      A
 Frequencies --   1571.2484              1651.5053              1669.6260
 Red. masses --      5.1058                 5.8617                 5.5558
 Frc consts  --      7.4268                 9.4197                 9.1251
 IR Inten    --      7.3203                17.2519                25.6780

                     97                     98                     99
                      A                      A                      A
 Frequencies --   2978.8709              2998.9192              3005.9832
 Red. masses --      1.0527                 1.0388                 1.1040
 Frc consts  --      5.5035                 5.5043                 5.8773
 IR Inten    --     29.7308                75.5428                60.2309

                    100                    101                    102
                      A                      A                      A
 Frequencies --   3027.5683              3038.3583              3043.7198
 Red. masses --      1.0641                 1.0844                 1.1054
 Frc consts  --      5.7468                 5.8983                 6.0339
 IR Inten    --     44.3282                18.7256                58.3969

                    103                    104                    105
                      A                      A                      A
 Frequencies --   3046.8525              3050.7833              3058.6786
 Red. masses --      1.0345                 1.0352                 1.0607
 Frc consts  --      5.6583                 5.6769                 5.8466
 IR Inten    --     23.5589                21.1826                40.0052

                    106                    107                    108
                      A                      A                      A
 Frequencies --   3078.7202              3103.4333              3113.2801
 Red. masses --      1.0992                 1.1057                 1.1027
 Frc consts  --      6.1386                 6.2743                 6.2972
 IR Inten    --     17.3260                30.8153                 2.1066

                    109                    110                    111
                      A                      A                      A
 Frequencies --   3119.1788              3122.5794              3125.5159
 Red. masses --      1.1022                 1.1026                 1.1025
 Frc consts  --      6.3182                 6.3343                 6.3457
 IR Inten    --     75.0568                29.1435                31.5426

                    112                    113                    114
                      A                      A                      A
 Frequencies --   3144.7142              3179.6250              3185.1898
 Red. masses --      1.0972                 1.0934                 1.0879
 Frc consts  --      6.3930                 6.5129                 6.5029
 IR Inten    --     26.8154                45.6156                 7.8453

                    115                    116                    117
                      A                      A                      A
 Frequencies --   3206.1130              3238.7803              3493.3555
 Red. masses --      1.0928                 1.0938                 1.0737
 Frc consts  --      6.6182                 6.7598                 7.7197
 IR Inten    --     23.0348                 0.9872                 7.8388

 - Thermochemistry -
 -------------------
 Temperature   298.150 Kelvin.  Pressure   1.00000 Atm.
 Atom     1 has atomic number  6 and mass  12.00000

 Molecular mass:   275.17461 amu.
 Principal axes and moments of inertia in atomic units:
                           1         2         3
     Eigenvalues --  4370.514767888.08623**********
           X            0.99997  -0.00545  -0.00549
           Y            0.00549   0.99996   0.00749
           Z            0.00545  -0.00752   0.99996
 This molecule is an asymmetric top.
 Rotational symmetry number  1.
 Warning -- assumption of classical behavior for rotation
           may cause significant error
 Rotational temperatures (Kelvin)      0.01982     0.01098     0.00754
 Rotational constants (GHZ):           0.41294     0.22879     0.15719
 Zero-point vibrational energy     919240.6 (Joules/Mol)
                                  219.70377 (Kcal/Mol)
 Warning -- explicit consideration of  29 degrees of freedom as
           vibrations may cause significant error
 Vibrational temperatures:     17.54    30.62    42.86    68.05    96.37
          (Kelvin)            128.68   136.09   138.17   162.68   197.43
                              259.45   281.54   339.07   345.05   355.39
                              378.50   395.32   435.48   454.64   462.53
                              487.34   511.55   569.05   608.26   670.59
                              694.22   721.88   808.79   831.04   912.78
                              987.33  1025.30  1040.11  1049.25  1145.18
                             1162.94  1171.94  1201.41  1244.98  1318.91
                             1325.68  1327.84  1361.56  1401.86  1411.03
                             1422.98  1434.22  1465.03  1472.65  1474.02
                             1547.48  1555.55  1588.42  1611.24  1619.17
                             1633.16  1635.05  1647.53  1667.35  1692.98
                             1710.17  1721.40  1736.68  1752.94  1789.18
                             1810.75  1829.75  1894.79  1911.41  1925.50
                             1941.22  1958.59  1981.73  2012.02  2015.07
                             2034.40  2052.49  2061.44  2083.34  2123.66
                             2157.20  2157.74  2163.40  2180.68  2183.55
                             2190.00  2192.91  2196.34  2203.71  2206.89
                             2212.85  2224.83  2240.89  2260.68  2376.15
                             2402.22  4285.93  4314.78  4324.94  4356.00
                             4371.52  4379.23  4383.74  4389.40  4400.76
                             4429.59  4465.15  4479.32  4487.80  4492.70
                             4496.92  4524.54  4574.77  4582.78  4612.88
                             4659.88  5026.16

 Zero-point correction=                           0.350120 (Hartree/Particle)
 Thermal correction to Energy=                    0.369978
 Thermal correction to Enthalpy=                  0.370922
 Thermal correction to Gibbs Free Energy=         0.298508
 Sum of electronic and zero-point Energies=           -894.784222
 Sum of electronic and thermal Energies=              -894.764364
 Sum of electronic and thermal Enthalpies=            -894.763420
 Sum of electronic and thermal Free Energies=         -894.835834

                     E (Thermal)             CV                S
                      KCal/Mol        Cal/Mol-Kelvin    Cal/Mol-Kelvin
 Total                  232.165             73.291            152.407
 Electronic               0.000              0.000              0.000
 Translational            0.889              2.981             42.735
 Rotational               0.889              2.981             34.336
 Vibrational            230.387             67.330             75.336
 Vibration     1          0.593              1.987              7.618
 Vibration     2          0.593              1.985              6.511
 Vibration     3          0.594              1.984              5.844
 Vibration     4          0.595              1.979              4.927
 Vibration     5          0.598              1.970              4.240
 Vibration     6          0.602              1.957              3.672
 Vibration     7          0.603              1.953              3.563
 Vibration     8          0.603              1.952              3.533
 Vibration     9          0.607              1.939              3.216
 Vibration    10          0.614              1.916              2.842
 Vibration    11          0.629              1.866              2.325
 Vibration    12          0.636              1.846              2.173
 Vibration    13          0.655              1.786              1.835
 Vibration    14          0.657              1.780              1.804
 Vibration    15          0.661              1.768              1.752
 Vibration    16          0.670              1.741              1.641
 Vibration    17          0.677              1.720              1.566
 Vibration    18          0.694              1.669              1.402
 Vibration    19          0.703              1.643              1.331
 Vibration    20          0.707              1.632              1.303
 Vibration    21          0.719              1.598              1.218
 Vibration    22          0.731              1.564              1.142
 Vibration    23          0.762              1.480              0.979
 Vibration    24          0.785              1.421              0.883
 Vibration    25          0.823              1.325              0.749
 Vibration    26          0.839              1.289              0.703
 Vibration    27          0.857              1.246              0.654
 Vibration    28          0.918              1.113              0.520
 Vibration    29          0.934              1.080              0.490

 Optimization completed.
    -- Stationary point found.
 Normal termination of Gaussian 16 at Sun Dec 13 21:56:49 2020.

 ----------------------------------------------------------------------
 # B3LYP/6-311++G(d,p) empiricaldispersion=gd3bj scf=xqc pop=npa geom=c
 heck
 ----------------------------------------------------------------------

 ---------------------------------------
 CID_62738115_JID_10419_Energie_neutraal
 ---------------------------------------
 Structure from the checkpoint file:  "JID_10419.chk"
 Charge =  0 Multiplicity = 1

 SCF Done:  E(RB3LYP) =  -895.375622627     A.U. after   15 cycles
 Normal termination of Gaussian 16 at Sun Dec 13 22:04:51 2020.

 ----------------------------------------------------------------------
 # B3LYP/6-311++G(d,p) empiricaldispersion=gd3bj scf=xqc pop=npa geom=c
 heck
 ----------------------------------------------------------------------

 -------------------------------------
 CID_62738115_JID_10419_Energie_kation
 -------------------------------------
 Structure from the checkpoint file:  "JID_10419.chk"
 Charge =  1 Multiplicity = 2

 SCF Done:  E(UB3LYP) =  -895.064093230     A.U. after   31 cycles
 Normal termination of Gaussian 16 at Sun Dec 13 22:27:27 2020.
 Gaussian 16:  ES64L-G16RevA.03 25-Dec-2016

 ----------------------------------------------------------------------
 # B3LYP/6-311++G(d,p) empiricaldispersion=gd3bj scf=xqc pop=npa geom=c
 heck
 ----------------------------------------------------------------------

 ------------------------------------
 CID_62738115_JID_10419_Energie_anion
 ------------------------------------
 Structure from the checkpoint file:  "JID_10419.chk"
 Charge = -1 Multiplicity = 2

                         Standard orientation:
 ---------------------------------------------------------------------
 Center     Atomic      Atomic             Coordinates (Angstroms)
 Number     Number       Type             X           Y           Z
 ---------------------------------------------------------------------
      1          6           0        1.601662   -3.182557    0.765025
      2          6           0        2.592014   -2.542965   -0.222965
      3          6           0        2.191530   -2.849118   -1.675805
      4          6           0        2.719334   -1.048840    0.017912
      5          6           0        1.612798   -0.210462   -0.165729
      6          6           0        1.732189    1.157206    0.070270
      7          6           0        2.943909    1.728861    0.466905
      8          6           0        4.045421    0.895512    0.631731
      9          6           0        3.932491   -0.480305    0.416595
     10          7           0        0.597129    2.000829   -0.102500
     11          6           0       -0.716629    1.802208    0.183240
     12          7           0       -1.375605    2.903754   -0.130638
     13          7           0       -0.452327    3.780974   -0.606797
     14          7           0        0.731200    3.263038   -0.595198
     15          6           0       -1.342631    0.575054    0.761168
     16          7           0       -1.596775   -0.423967   -0.282797
     17          6           0       -2.255894   -1.634686    0.209798
     18          6           0       -3.698242   -1.432882    0.671680
     19          8           0       -4.403825   -0.871647   -0.417314
     20          6           0       -5.733843   -0.521571   -0.096142
     21          1           0        0.591867   -2.784724    0.612681
     22          1           0        1.891119   -2.982441    1.802216
     23          1           0        1.558917   -4.268374    0.622403
     24          1           0        3.579590   -2.988164   -0.044336
     25          1           0        1.198837   -2.444032   -1.903246
     26          1           0        2.903109   -2.410256   -2.382818
     27          1           0        2.159056   -3.931299   -1.846251
     28          1           0        0.657814   -0.604204   -0.503238
     29          1           0        3.006789    2.797827    0.632221
     30          1           0        4.997232    1.319979    0.936930
     31          1           0        4.800089   -1.120065    0.556351
     32          1           0       -0.665813    0.127403    1.499035
     33          1           0       -2.245541    0.910028    1.291086
     34          1           0       -2.202050   -0.005223   -0.988645
     35          1           0       -2.250831   -2.366866   -0.605355
     36          1           0       -1.660882   -2.052444    1.031249
     37          1           0       -4.139320   -2.397484    0.975190
     38          1           0       -3.748371   -0.762477    1.546035
     39          1           0       -6.322786   -1.402175    0.204760
     40          1           0       -5.770484    0.217624    0.719311
     41          1           0       -6.177770   -0.084582   -0.993653
 ---------------------------------------------------------------------

 SCF Done:  E(UB3LYP) =  -895.374342212     A.U. after   33 cycles
 SCF Done:  E(UB3LYP) =  -895.374342212     a.u. after    1 cycles

 The electronic state is 2-A.
 Alpha  occ. eigenvalues --  -19.04279 -14.28851 -14.24548 -14.23918 -14.21272
 Alpha  occ. eigenvalues --  -14.20897 -10.12721 -10.12705 -10.12326 -10.11261
 Alpha  occ. eigenvalues --  -10.10665 -10.10327 -10.08977 -10.07501 -10.07300
 Alpha  occ. eigenvalues --  -10.07257 -10.07157 -10.06637 -10.05978 -10.05907
 Alpha  occ. eigenvalues --   -1.00894  -0.95627  -0.83441  -0.82172  -0.76660
 Alpha  occ. eigenvalues --   -0.75355  -0.70853  -0.66939  -0.64815  -0.63463
 Alpha  occ. eigenvalues --   -0.61196  -0.59820  -0.57721  -0.54798  -0.53997
 Alpha  occ. eigenvalues --   -0.51634  -0.51068  -0.48221  -0.46757  -0.43287
 Alpha  occ. eigenvalues --   -0.41400  -0.40519  -0.39820  -0.38595  -0.38162
 Alpha  occ. eigenvalues --   -0.37159  -0.36885  -0.35485  -0.34983  -0.33671
 Alpha  occ. eigenvalues --   -0.33015  -0.32699  -0.32484  -0.31832  -0.30199
 Alpha  occ. eigenvalues --   -0.29349  -0.28801  -0.28446  -0.27753  -0.27214
 Alpha  occ. eigenvalues --   -0.26309  -0.25566  -0.24927  -0.24335  -0.23953
 Alpha  occ. eigenvalues --   -0.23123  -0.21086  -0.18126  -0.17874  -0.17632
 Alpha  occ. eigenvalues --   -0.16820  -0.14897  -0.14375  -0.13815   0.03979
 Alpha virt. eigenvalues --    0.05352   0.06161   0.07319   0.07614   0.08367
 Alpha virt. eigenvalues --    0.08524   0.08811   0.09097   0.09722   0.10129
 Alpha virt. eigenvalues --    0.10757   0.10883   0.11107   0.11506   0.12113

  Beta  occ. eigenvalues --  -19.04272 -14.28807 -14.24278 -14.23838 -14.21309
  Beta  occ. eigenvalues --  -14.20874 -10.12696 -10.12677 -10.12144 -10.11270
  Beta  occ. eigenvalues --  -10.10651 -10.10150 -10.08976 -10.07508 -10.07297
  Beta  occ. eigenvalues --  -10.07251 -10.07171 -10.06581 -10.05828 -10.05787
  Beta  occ. eigenvalues --   -1.00658  -0.95615  -0.83214  -0.82097  -0.76402
  Beta  occ. eigenvalues --   -0.75184  -0.70783  -0.66876  -0.64517  -0.63304
  Beta  occ. eigenvalues --   -0.61111  -0.59807  -0.57639  -0.54535  -0.53838
  Beta  occ. eigenvalues --   -0.51521  -0.50970  -0.48048  -0.46666  -0.43201
  Beta  occ. eigenvalues --   -0.41328  -0.40441  -0.39751  -0.38439  -0.37843
  Beta  occ. eigenvalues --   -0.37065  -0.36778  -0.35346  -0.34910  -0.33602
  Beta  occ. eigenvalues --   -0.32866  -0.32633  -0.32415  -0.31738  -0.30166
  Beta  occ. eigenvalues --   -0.29298  -0.28730  -0.28389  -0.27690  -0.26813
  Beta  occ. eigenvalues --   -0.26223  -0.25354  -0.24801  -0.24280  -0.23871
  Beta  occ. eigenvalues --   -0.23059  -0.20554  -0.18050  -0.17454  -0.16943
  Beta  occ. eigenvalues --   -0.16681  -0.14387  -0.14315  -0.12962
  Beta virt. eigenvalues --    0.05952   0.06379   0.07462   0.07653   0.07936
  Beta virt. eigenvalues --    0.08440   0.08645   0.09013   0.09217   0.09691
  Beta virt. eigenvalues --    0.10218   0.10830   0.11050   0.11350   0.11956

 Mulliken charges and spin densities:
               1          2
     1  C   -0.504820  -0.201818
     2  C   -0.140678   0.450599
     3  C   -0.554350  -0.113387
     4  C    0.783809  -0.072572
     5  C   -0.395689   0.003173
     6  C   -0.231241  -0.035514
     7  C    0.071408   0.082096
     8  C   -0.333776  -0.034873
     9  C   -0.596707   0.137914
    10  N    0.172499   0.011675
    11  C    0.040362   0.053005
    12  N   -0.092253  -0.020455
    13  N    0.033330   0.032929
    14  N   -0.058790   0.122372
    15  C   -0.751219  -0.246297
    16  N   -0.051422   0.054623
    17  C   -0.096176   0.083246
    18  C    0.056515  -0.580568
    19  O   -0.165591   0.038961
    20  C    0.388311  -0.631081
    21  H    0.223864  -0.114831
    22  H    0.030568   0.112603
    23  H    0.039133   0.082894
    24  H    0.154261   0.010603
    25  H    0.112368   0.038764
    26  H    0.119809   0.009948
    27  H    0.063406   0.062231
    28  H    0.324873  -0.005033
    29  H    0.180186  -0.003611
    30  H    0.141928   0.001206
    31  H    0.100553  -0.005099
    32  H    0.138565   0.036583
    33  H    0.221605  -0.032892
    34  H    0.282773  -0.013587
    35  H    0.103219   0.089855
    36  H    0.007139   0.085894
    37  H   -0.474582   0.635652
    38  H   -0.083627   0.218706
    39  H   -0.276775   0.408900
    40  H    0.007931   0.122406
    41  H    0.009280   0.124778
 Sum of Mulliken charges =  -1.00000   1.00000

 Dipole moment (field-independent basis, Debye):
    X=              4.6032    Y=             -4.0946    Z=              0.7599  Tot=              6.2075
 Quadrupole moment (field-independent basis, Debye-Ang):
   XX=           -191.1411   YY=           -183.2913   ZZ=           -140.9777
   XY=            -10.9681   XZ=              5.0342   YZ=              9.7693

 Summary of Natural Population Analysis:

                                       Natural Population
                Natural  -----------------------------------------------
    Atom  No    Charge         Core      Valence    Rydberg      Total
 -----------------------------------------------------------------------
      C    1   -0.28026      0.99965     2.27584    0.00478     3.28026
      C    2   -0.11677      0.99958     2.10719    0.01000     3.11677
      C    3   -0.28085      0.99965     2.27636    0.00484     3.28085
      C    4   -0.01240      0.99950     2.00264    0.01026     3.01240
      C    5   -0.10305      0.99947     2.09638    0.00720     3.10305
      C    6    0.09965      0.99947     1.89060    0.01029     2.90035
      C    7   -0.09442      0.99953     2.08698    0.00790     3.09442
      C    8   -0.10374      0.99958     2.09538    0.00878     3.10374
      C    9   -0.07388      0.99952     2.06629    0.00807     3.07388
      N   10   -0.11188      0.99957     2.59606    0.01625     3.61188
      C   11    0.20803      0.99961     1.77505    0.01730     2.79197
      N   12   -0.18007      0.99969     2.66796    0.01242     3.68007
      N   13   -0.04526      0.99981     2.52595    0.01950     3.54526
      N   14   -0.00987      0.99978     2.49555    0.01454     3.50987
      C   15   -0.11773      0.99959     2.10548    0.01266     3.11773
      N   16   -0.33773      0.99975     2.82730    0.01068     3.83773
      C   17   -0.09659      0.99962     2.08395    0.01302     3.09659
      C   18   -0.01830      0.99959     2.00643    0.01228     3.01830
      O   19   -0.30299      0.99988     3.29274    0.01037     4.30299
      C   20   -0.09573      0.99962     2.08717    0.00893     3.09573
      H   21    0.09937      0.00000     0.39956    0.00107     0.40063
      H   22    0.10021      0.00000     0.39886    0.00093     0.39979
      H   23    0.09382      0.00000     0.40532    0.00085     0.40618
      H   24    0.09130      0.00000     0.40664    0.00206     0.40870
      H   25    0.10116      0.00000     0.39776    0.00108     0.39884
      H   26    0.09997      0.00000     0.39925    0.00079     0.40003
      H   27    0.09364      0.00000     0.40546    0.00090     0.40636
      H   28    0.11772      0.00000     0.37985    0.00243     0.38228
      H   29    0.10823      0.00000     0.39080    0.00097     0.39177
      H   30    0.09463      0.00000     0.40440    0.00097     0.40537
      H   31    0.09194      0.00000     0.40691    0.00115     0.40806
      H   32    0.10268      0.00000     0.39616    0.00116     0.39732
      H   33    0.09740      0.00000     0.40056    0.00204     0.40260
      H   34    0.18196      0.00000     0.31523    0.00281     0.31804
      H   35    0.09606      0.00000     0.40267    0.00127     0.40394
      H   36    0.09385      0.00000     0.40497    0.00117     0.40615
      H   37    0.08335      0.00000     0.41433    0.00232     0.41665
      H   38    0.07812      0.00000     0.42032    0.00156     0.42188
      H   39    0.07978      0.00000     0.41835    0.00187     0.42022
      H   40    0.07922      0.00000     0.41958    0.00120     0.42078
      H   41    0.08944      0.00000     0.40964    0.00092     0.41056
 =======================================================================
   * Total *   -0.00000     19.99248    53.75793    0.24959    74.00000

 Normal termination of Gaussian 16 at Sun Dec 13 22:52:32 2020.
