 Gaussian 16, Revision A.03,

 -----------------------------------------------------------
 # opt freq B3LYP/6-31G(d) empiricaldispersion=gd3bj scf=xqc
 -----------------------------------------------------------

 -------------------------------
 CID_116570436_JID_7693_neutraal
 -------------------------------
 Symbolic Z-matrix:
 Charge =  0 Multiplicity = 1

 SCF Done:  E(RB3LYP) =  -750.162502387     A.U. after   15 cycles
 SCF Done:  E(RB3LYP) =  -750.167616509     A.U. after   13 cycles
 SCF Done:  E(RB3LYP) =  -750.167479720     A.U. after   13 cycles
 SCF Done:  E(RB3LYP) =  -750.167238081     A.U. after   12 cycles
 SCF Done:  E(RB3LYP) =  -750.166518291     A.U. after   12 cycles
 SCF Done:  E(RB3LYP) =  -750.167723920     A.U. after    9 cycles
 SCF Done:  E(RB3LYP) =  -750.168339743     A.U. after   12 cycles
 SCF Done:  E(RB3LYP) =  -750.168308638     A.U. after   12 cycles
 SCF Done:  E(RB3LYP) =  -750.168528714     A.U. after   12 cycles
 SCF Done:  E(RB3LYP) =  -750.168653963     A.U. after   11 cycles
 SCF Done:  E(RB3LYP) =  -750.173869435     A.U. after   10 cycles
 SCF Done:  E(RB3LYP) =  -750.173873616     A.U. after    9 cycles
 SCF Done:  E(RB3LYP) =  -750.173874055     A.U. after    8 cycles
 SCF Done:  E(RB3LYP) =  -750.173874316     A.U. after    8 cycles
 Optimization completed.
    -- Stationary point found.
 Normal termination of Gaussian 16 at Fri Dec 11 13:32:09 2020.

 --------------------------------------------------------------------
 #N Geom=AllCheck Guess=TCheck SCRF=Check GenChk RB3LYP/6-31G(d) Freq
 --------------------------------------------------------------------

 Structure from the checkpoint file:  "JID_7693.chk"
 -------------------------------
 CID_116570436_JID_7693_neutraal
 -------------------------------
 Charge =  0 Multiplicity = 1

 SCF Done:  E(RB3LYP) =  -750.173874315     A.U. after    1 cycles

  Exact polarizability: 183.798  -8.797 162.098 -15.946  -7.375 112.165
 Approx polarizability: 256.682  -7.774 260.768 -34.303 -23.536 174.553

                      1                      2                      3
                      A                      A                      A
 Frequencies --     29.0723                48.9515                59.3745
 Red. masses --      5.0322                 3.1495                 3.0716
 Frc consts  --      0.0025                 0.0044                 0.0064
 IR Inten    --      1.2518                 1.0045                 0.2995

                      4                      5                      6
                      A                      A                      A
 Frequencies --     77.6519               102.7332               128.1807
 Red. masses --      3.1414                 3.4445                 3.2517
 Frc consts  --      0.0112                 0.0214                 0.0315
 IR Inten    --      2.6336                 1.5138                 0.8673

                      7                      8                      9
                      A                      A                      A
 Frequencies --    154.3551               178.8076               192.2645
 Red. masses --      2.8852                 2.4684                 3.4432
 Frc consts  --      0.0405                 0.0465                 0.0750
 IR Inten    --      0.3835                 1.8156                 1.6680

                     10                     11                     12
                      A                      A                      A
 Frequencies --    222.8224               247.8141               267.1094
 Red. masses --      1.8920                 1.6450                 2.1195
 Frc consts  --      0.0553                 0.0595                 0.0891
 IR Inten    --      3.2397                 0.6924                 0.7635

                     13                     14                     15
                      A                      A                      A
 Frequencies --    285.7885               302.3070               326.5750
 Red. masses --      2.6857                 2.5996                 2.2448
 Frc consts  --      0.1292                 0.1400                 0.1411
 IR Inten    --      3.0612                 0.2604                 1.3116

                     16                     17                     18
                      A                      A                      A
 Frequencies --    348.4602               359.5237               395.1952
 Red. masses --      2.1181                 2.5715                 5.2506
 Frc consts  --      0.1515                 0.1958                 0.4831
 IR Inten    --      4.9646                 1.7096                 4.3140

                     19                     20                     21
                      A                      A                      A
 Frequencies --    444.0646               462.2999               518.3908
 Red. masses --      3.7575                 4.4463                 2.8257
 Frc consts  --      0.4366                 0.5599                 0.4474
 IR Inten    --      2.1066                 2.1743                 0.6329

                     22                     23                     24
                      A                      A                      A
 Frequencies --    530.0736               567.4790               608.6821
 Red. masses --      3.8666                 4.9269                 5.1556
 Frc consts  --      0.6401                 0.9348                 1.1254
 IR Inten    --      0.7889                 7.6256                 1.5182

                     25                     26                     27
                      A                      A                      A
 Frequencies --    624.5575               659.6600               706.3334
 Red. masses --      2.5826                 3.8462                 4.0823
 Frc consts  --      0.5935                 0.9861                 1.2000
 IR Inten    --      0.9035                21.6595                 1.6528

                     28                     29                     30
                      A                      A                      A
 Frequencies --    725.9961               766.1815               781.2272
 Red. masses --      3.3333                 1.8670                 2.3187
 Frc consts  --      1.0351                 0.6457                 0.8338
 IR Inten    --      2.9024                43.1111                11.4384

                     31                     32                     33
                      A                      A                      A
 Frequencies --    794.5593               810.1883               834.4999
 Red. masses --      1.2500                 3.2945                 3.8516
 Frc consts  --      0.4649                 1.2741                 1.5803
 IR Inten    --      3.1098                 5.5033                 1.3696

                     34                     35                     36
                      A                      A                      A
 Frequencies --    863.8425               867.5510               879.2844
 Red. masses --      1.5165                 1.9222                 1.6589
 Frc consts  --      0.6668                 0.8524                 0.7556
 IR Inten    --      1.1200               105.6613                69.0950

                     37                     38                     39
                      A                      A                      A
 Frequencies --    934.0137               953.5024               963.7759
 Red. masses --      2.5596                 1.3763                 2.3539
 Frc consts  --      1.3156                 0.7373                 1.2882
 IR Inten    --      6.6320                 1.7143                18.2275

                     40                     41                     42
                      A                      A                      A
 Frequencies --    964.3687               980.9358               993.0721
 Red. masses --      2.3158                 1.2897                 2.0135
 Frc consts  --      1.2689                 0.7312                 1.1700
 IR Inten    --     10.0970                 0.3712                42.7576

                     43                     44                     45
                      A                      A                      A
 Frequencies --   1019.0701              1054.9720              1069.5292
 Red. masses --      2.0430                 2.5704                 5.7184
 Frc consts  --      1.2500                 1.6855                 3.8540
 IR Inten    --     35.3328                10.9174                36.7110

                     46                     47                     48
                      A                      A                      A
 Frequencies --   1076.4390              1092.8408              1110.7772
 Red. masses --      1.7459                 2.1089                 1.6305
 Frc consts  --      1.1919                 1.4840                 1.1853
 IR Inten    --      1.6039                10.9975                 1.1755

                     49                     50                     51
                      A                      A                      A
 Frequencies --   1122.2690              1145.9107              1162.8763
 Red. masses --      4.2926                 2.0760                 2.0254
 Frc consts  --      3.1854                 1.6061                 1.6138
 IR Inten    --     16.5547                29.9332                11.3065

                     52                     53                     54
                      A                      A                      A
 Frequencies --   1184.8956              1191.0938              1200.4466
 Red. masses --      1.2699                 2.5400                 1.0986
 Frc consts  --      1.0504                 2.1231                 0.9328
 IR Inten    --      0.8532                 1.3191                 6.3855

                     55                     56                     57
                      A                      A                      A
 Frequencies --   1217.7830              1219.9923              1251.3901
 Red. masses --      1.7875                 1.4558                 1.4205
 Frc consts  --      1.5618                 1.2767                 1.3106
 IR Inten    --     50.2691                19.8379                 5.6181

                     58                     59                     60
                      A                      A                      A
 Frequencies --   1267.6252              1296.2490              1319.1146
 Red. masses --      2.2633                 2.8577                 1.3766
 Frc consts  --      2.1428                 2.8291                 1.4113
 IR Inten    --     42.8850               115.5627                11.6196

                     61                     62                     63
                      A                      A                      A
 Frequencies --   1327.3697              1338.1062              1345.5715
 Red. masses --      1.8350                 1.2270                 1.3009
 Frc consts  --      1.9049                 1.2945                 1.3877
 IR Inten    --    123.2280                 0.8761                 1.6685

                     64                     65                     66
                      A                      A                      A
 Frequencies --   1359.7027              1360.4035              1390.4576
 Red. masses --      1.9272                 2.4485                 1.2965
 Frc consts  --      2.0992                 2.6698                 1.4769
 IR Inten    --      8.9156                 8.2035                 4.0042

                     67                     68                     69
                      A                      A                      A
 Frequencies --   1400.1815              1440.9738              1484.3777
 Red. masses --      1.3872                 1.2399                 1.1480
 Frc consts  --      1.6023                 1.5169                 1.4903
 IR Inten    --      2.6634                 5.2662                 5.8566

                     70                     71                     72
                      A                      A                      A
 Frequencies --   1486.1497              1506.4751              1515.7472
 Red. masses --      1.6268                 1.5894                 1.0824
 Frc consts  --      2.1170                 2.1252                 1.4651
 IR Inten    --     50.7788                 5.4211                 6.5089

                     73                     74                     75
                      A                      A                      A
 Frequencies --   1521.2058              1523.5408              1525.9551
 Red. masses --      1.0486                 1.0721                 1.0918
 Frc consts  --      1.4297                 1.4662                 1.4979
 IR Inten    --      5.1198                 1.6814                 2.6471

                     76                     77                     78
                      A                      A                      A
 Frequencies --   1530.1223              1536.7236              1541.6939
 Red. masses --      1.2931                 1.0697                 1.0837
 Frc consts  --      1.7837                 1.4883                 1.5177
 IR Inten    --     75.3552                 7.2973                 1.8820

                     79                     80                     81
                      A                      A                      A
 Frequencies --   1544.0763              1546.1738              1638.2339
 Red. masses --      1.5312                 1.0975                 6.2637
 Frc consts  --      2.1509                 1.5458                 9.9045
 IR Inten    --     20.1118                 8.9816                12.8931

                     82                     83                     84
                      A                      A                      A
 Frequencies --   1655.5616              1746.6774              3034.5815
 Red. masses --      5.6904                12.0929                 1.0339
 Frc consts  --      9.1893                21.7373                 5.6093
 IR Inten    --     78.5099               136.2986                50.0705

                     85                     86                     87
                      A                      A                      A
 Frequencies --   3046.0355              3052.4011              3055.4927
 Red. masses --      1.0659                 1.0398                 1.0651
 Frc consts  --      5.8271                 5.7078                 5.8588
 IR Inten    --     35.5187                21.1003                21.4371

                     88                     89                     90
                      A                      A                      A
 Frequencies --   3067.7026              3073.3375              3097.7020
 Red. masses --      1.0700                 1.0687                 1.1071
 Frc consts  --      5.9326                 5.9473                 6.2594
 IR Inten    --     59.4906                16.6759                31.6718

                     91                     92                     93
                      A                      A                      A
 Frequencies --   3106.9945              3108.8494              3114.3064
 Red. masses --      1.0961                 1.0980                 1.1016
 Frc consts  --      6.2341                 6.2527                 6.2952
 IR Inten    --      1.5539                44.3476                41.4761

                     94                     95                     96
                      A                      A                      A
 Frequencies --   3128.9328              3140.1124              3160.6899
 Red. masses --      1.1003                 1.0971                 1.0952
 Frc consts  --      6.3470                 6.3738                 6.4462
 IR Inten    --     38.4634                30.6215                 4.3502

                     97                     98                     99
                      A                      A                      A
 Frequencies --   3163.5910              3192.4164              3209.6966
 Red. masses --      1.1008                 1.0868                 1.0914
 Frc consts  --      6.4908                 6.5257                 6.6248
 IR Inten    --     17.1549                 4.8915                16.7367

                    100                    101                    102
                      A                      A                      A
 Frequencies --   3225.5244              3233.6760              3457.1596
 Red. masses --      1.0933                 1.0920                 1.0741
 Frc consts  --      6.7017                 6.7279                 7.5637
 IR Inten    --     10.3314                 9.8224                 3.0234

 - Thermochemistry -
 -------------------
 Temperature   298.150 Kelvin.  Pressure   1.00000 Atm.
 Atom     1 has atomic number  6 and mass  12.00000

 Molecular mass:   233.14158 amu.
 Principal axes and moments of inertia in atomic units:
                           1         2         3
     Eigenvalues --  2510.638574897.453795869.08157
           X            0.99992  -0.01031  -0.00713
           Y            0.01040   0.99986   0.01317
           Z            0.00699  -0.01324   0.99989
 This molecule is an asymmetric top.
 Rotational symmetry number  1.
 Warning -- assumption of classical behavior for rotation
           may cause significant error
 Rotational temperatures (Kelvin)      0.03450     0.01769     0.01476
 Rotational constants (GHZ):           0.71884     0.36851     0.30750
 Zero-point vibrational energy     818840.8 (Joules/Mol)
                                  195.70764 (Kcal/Mol)
 Warning -- explicit consideration of  24 degrees of freedom as
           vibrations may cause significant error
 Vibrational temperatures:     41.83    70.43    85.43   111.72   147.81
          (Kelvin)            184.42   222.08   257.26   276.63   320.59
                              356.55   384.31   411.19   434.95   469.87
                              501.36   517.27   568.60   638.91   665.15
                              745.85   762.66   816.48   875.76   898.60
                              949.10  1016.26  1044.55  1102.36  1124.01
                             1143.19  1165.68  1200.66  1242.88  1248.21
                             1265.09  1343.84  1371.88  1386.66  1387.51
                             1411.35  1428.81  1466.21  1517.87  1538.81
                             1548.76  1572.35  1598.16  1614.69  1648.71
                             1673.12  1704.80  1713.72  1727.17  1752.12
                             1755.30  1800.47  1823.83  1865.01  1897.91
                             1909.79  1925.24  1935.98  1956.31  1957.32
                             2000.56  2014.55  2073.24  2135.69  2138.24
                             2167.48  2180.82  2188.68  2192.04  2195.51
                             2201.50  2211.00  2218.15  2221.58  2224.60
                             2357.05  2381.98  2513.08  4366.09  4382.57
                             4391.72  4396.17  4413.74  4421.85  4456.90
                             4470.27  4472.94  4480.79  4501.84  4517.92
                             4547.53  4551.70  4593.18  4618.04  4640.81
                             4652.54  4974.08

 Zero-point correction=                           0.311880 (Hartree/Particle)
 Thermal correction to Energy=                    0.328071
 Thermal correction to Enthalpy=                  0.329016
 Thermal correction to Gibbs Free Energy=         0.267816
 Sum of electronic and zero-point Energies=           -749.861994
 Sum of electronic and thermal Energies=              -749.845803
 Sum of electronic and thermal Enthalpies=            -749.844859
 Sum of electronic and thermal Free Energies=         -749.906058

                     E (Thermal)             CV                S
                      KCal/Mol        Cal/Mol-Kelvin    Cal/Mol-Kelvin
 Total                  205.868             62.495            128.805
 Electronic               0.000              0.000              0.000
 Translational            0.889              2.981             42.241
 Rotational               0.889              2.981             32.645
 Vibrational            204.090             56.533             53.918
 Vibration     1          0.593              1.984              5.892
 Vibration     2          0.595              1.978              4.859
 Vibration     3          0.597              1.974              4.478
 Vibration     4          0.599              1.964              3.949
 Vibration     5          0.605              1.947              3.402
 Vibration     6          0.611              1.925              2.973
 Vibration     7          0.620              1.898              2.618
 Vibration     8          0.629              1.868              2.341
 Vibration     9          0.634              1.851              2.206
 Vibration    10          0.649              1.806              1.936
 Vibration    11          0.661              1.766              1.746
 Vibration    12          0.672              1.733              1.615
 Vibration    13          0.684              1.700              1.499
 Vibration    14          0.694              1.669              1.404
 Vibration    15          0.710              1.622              1.277
 Vibration    16          0.726              1.578              1.173
 Vibration    17          0.734              1.556              1.124
 Vibration    18          0.762              1.480              0.980
 Vibration    19          0.804              1.374              0.814
 Vibration    20          0.820              1.334              0.759
 Vibration    21          0.873              1.209              0.614
 Vibration    22          0.885              1.183              0.587
 Vibration    23          0.923              1.102              0.509
 Vibration    24          0.968              1.013              0.435

                           ! Non-Optimized Parameters !
 Normal termination of Gaussian 16 at Fri Dec 11 13:46:39 2020.

 ----------------------------------------------------------------------
 # B3LYP/6-311++G(d,p) empiricaldispersion=gd3bj scf=xqc pop=npa geom=c
 heck
 ----------------------------------------------------------------------

 ---------------------------------------
 CID_116570436_JID_7693_Energie_neutraal
 ---------------------------------------
 Structure from the checkpoint file:  "JID_7693.chk"
 Charge =  0 Multiplicity = 1

 SCF Done:  E(RB3LYP) =  -750.380799142     A.U. after   15 cycles
 Normal termination of Gaussian 16 at Fri Dec 11 13:53:41 2020.

 ----------------------------------------------------------------------
 # B3LYP/6-311++G(d,p) empiricaldispersion=gd3bj scf=xqc pop=npa geom=c
 heck
 ----------------------------------------------------------------------

 -------------------------------------
 CID_116570436_JID_7693_Energie_kation
 -------------------------------------
 Structure from the checkpoint file:  "JID_7693.chk"
 Charge =  1 Multiplicity = 2

 SCF Done:  E(UB3LYP) =  -750.085389781     A.U. after   33 cycles
 SCF Done:  E(UB3LYP) =  -750.085389781     a.u. after    1 cycles
 Normal termination of Gaussian 16 at Fri Dec 11 14:15:10 2020.
 Gaussian 16:  ES64L-G16RevA.03 25-Dec-2016

 ----------------------------------------------------------------------
 # B3LYP/6-311++G(d,p) empiricaldispersion=gd3bj scf=xqc pop=npa geom=c
 heck
 ----------------------------------------------------------------------

 ------------------------------------
 CID_116570436_JID_7693_Energie_anion
 ------------------------------------
 Structure from the checkpoint file:  "JID_7693.chk"
 Charge = -1 Multiplicity = 2

                         Standard orientation:
 ---------------------------------------------------------------------
 Center     Atomic      Atomic             Coordinates (Angstroms)
 Number     Number       Type             X           Y           Z
 ---------------------------------------------------------------------
      1          6           0       -2.927950    1.848519    0.867313
      2          6           0       -1.819908    0.889484    1.310191
      3          6           0       -1.434410   -0.203500    0.272178
      4          6           0       -1.251214    0.296024   -1.191674
      5          6           0       -2.434203   -0.326826   -1.962992
      6          7           0       -2.755435   -1.587737   -1.282219
      7          6           0       -2.594981   -1.256951    0.136016
      8          6           0       -0.194114   -0.914625    0.850758
      9          8           0       -0.343166   -1.785460    1.696957
     10          6           0        1.210052   -0.634191    0.377231
     11          6           0        2.061427   -1.745803    0.315464
     12          6           0        3.375445   -1.641565   -0.130600
     13          6           0        3.867520   -0.392410   -0.502780
     14          6           0        3.058305    0.740398   -0.419312
     15          6           0        1.735601    0.627456    0.023669
     16          8           0        0.910830    1.701258    0.171929
     17          6           0        1.363864    2.979041   -0.245581
     18          1           0       -2.622180    2.451167    0.005200
     19          1           0       -3.172126    2.540649    1.680952
     20          1           0       -3.849166    1.323172    0.594631
     21          1           0       -0.932736    1.473399    1.570233
     22          1           0       -2.129137    0.365168    2.223130
     23          1           0       -0.310220   -0.082425   -1.604375
     24          1           0       -1.217062    1.383836   -1.270149
     25          1           0       -3.314646    0.326101   -1.903526
     26          1           0       -2.221136   -0.498124   -3.022859
     27          1           0       -2.043444   -2.274430   -1.533648
     28          1           0       -2.403685   -2.144283    0.739547
     29          1           0       -3.530323   -0.810105    0.491352
     30          1           0        1.655438   -2.703130    0.624031
     31          1           0        4.006640   -2.522878   -0.184850
     32          1           0        4.890522   -0.287337   -0.853038
     33          1           0        3.465702    1.706888   -0.689444
     34          1           0        2.226771    3.311055    0.344778
     35          1           0        1.628181    2.980875   -1.310331
     36          1           0        0.526728    3.657870   -0.076478
 ---------------------------------------------------------------------

 SCF Done:  E(UB3LYP) =  -750.383725525     A.U. after   33 cycles
 SCF Done:  E(UB3LYP) =  -750.383725525     a.u. after    1 cycles

 The electronic state is 2-A.
 Alpha  occ. eigenvalues --  -19.03531 -18.93909 -14.18594 -10.11652 -10.10417
 Alpha  occ. eigenvalues --  -10.08467 -10.08051 -10.06413 -10.05539 -10.05113
 Alpha  occ. eigenvalues --  -10.04516 -10.04320 -10.04286 -10.03832 -10.03765
 Alpha  occ. eigenvalues --  -10.03423 -10.03350  -0.95377  -0.88123  -0.80613
 Alpha  occ. eigenvalues --   -0.72235  -0.67983  -0.63967  -0.62217  -0.61659
 Alpha  occ. eigenvalues --   -0.59934  -0.57997  -0.52088  -0.50236  -0.48373
 Alpha  occ. eigenvalues --   -0.46987  -0.45147  -0.41934  -0.39960  -0.38523
 Alpha  occ. eigenvalues --   -0.36835  -0.36224  -0.35147  -0.34604  -0.33308
 Alpha  occ. eigenvalues --   -0.31808  -0.31549  -0.31155  -0.29169  -0.29084
 Alpha  occ. eigenvalues --   -0.27848  -0.27460  -0.26352  -0.25489  -0.25260
 Alpha  occ. eigenvalues --   -0.24598  -0.23465  -0.23045  -0.22223  -0.22022
 Alpha  occ. eigenvalues --   -0.20644  -0.20272  -0.19713  -0.19497  -0.12995
 Alpha  occ. eigenvalues --   -0.12031  -0.10472  -0.09541   0.04502
 Alpha virt. eigenvalues --    0.06529   0.07752   0.08456   0.08947   0.09872
 Alpha virt. eigenvalues --    0.09907   0.10762   0.10899   0.11562   0.11790
 Alpha virt. eigenvalues --    0.12405   0.12495   0.13042   0.13791   0.14264

  Beta  occ. eigenvalues --  -19.03513 -18.93487 -14.18593 -10.11624 -10.10321
  Beta  occ. eigenvalues --  -10.08155 -10.08050 -10.06403 -10.05564 -10.05091
  Beta  occ. eigenvalues --  -10.04479 -10.04304 -10.04303 -10.03879 -10.03509
  Beta  occ. eigenvalues --  -10.03338 -10.03198  -0.95313  -0.87346  -0.80597
  Beta  occ. eigenvalues --   -0.71976  -0.67875  -0.63752  -0.62069  -0.61453
  Beta  occ. eigenvalues --   -0.59865  -0.57860  -0.51878  -0.49926  -0.48142
  Beta  occ. eigenvalues --   -0.46892  -0.44891  -0.41824  -0.39888  -0.38287
  Beta  occ. eigenvalues --   -0.36729  -0.36113  -0.35081  -0.34511  -0.33202
  Beta  occ. eigenvalues --   -0.31658  -0.31401  -0.31108  -0.28994  -0.28748
  Beta  occ. eigenvalues --   -0.27652  -0.27100  -0.26266  -0.25242  -0.25101
  Beta  occ. eigenvalues --   -0.24490  -0.23363  -0.22962  -0.21879  -0.21432
  Beta  occ. eigenvalues --   -0.20336  -0.19896  -0.19630  -0.18563  -0.12437
  Beta  occ. eigenvalues --   -0.11601  -0.09973  -0.08957
  Beta virt. eigenvalues --    0.06836   0.07916   0.08467   0.08892   0.09774
  Beta virt. eigenvalues --    0.10030   0.10163   0.10744   0.10972   0.11583
  Beta virt. eigenvalues --    0.11842   0.12494   0.12707   0.12986   0.13705

 Mulliken charges and spin densities:
               1          2
     1  C   -0.083140  -0.492085
     2  C   -0.861223   0.407119
     3  C    1.961070  -0.056810
     4  C   -0.465608  -0.080627
     5  C   -0.719104  -0.044950
     6  N   -0.040283   0.004453
     7  C   -0.591251  -0.021913
     8  C   -1.802822   0.130493
     9  O   -0.268824   0.143494
    10  C    1.326790  -0.014756
    11  C   -0.214478   0.119200
    12  C   -0.590478  -0.020126
    13  C   -0.099845  -0.145408
    14  C   -0.197682  -0.109139
    15  C   -0.142280   0.427605
    16  O   -0.118411   0.043243
    17  C    0.230459  -0.513944
    18  H    0.039058   0.097135
    19  H   -0.030028   0.167107
    20  H    0.104078   0.008706
    21  H    0.219697  -0.008445
    22  H    0.150858   0.022351
    23  H    0.191911  -0.021250
    24  H    0.117515  -0.009724
    25  H    0.128877   0.027744
    26  H    0.149726   0.010932
    27  H    0.221137   0.000717
    28  H    0.230337  -0.009158
    29  H    0.113696   0.016839
    30  H    0.178369  -0.005966
    31  H    0.118572   0.002166
    32  H    0.077639   0.024145
    33  H   -0.011441   0.142451
    34  H   -0.121269   0.267003
    35  H    0.039266   0.101227
    36  H   -0.240887   0.390168
 Sum of Mulliken charges =  -1.00000   1.00000

 Dipole moment (field-independent basis, Debye):
    X=             -0.9551    Y=              0.7655    Z=             -2.5819  Tot=              2.8574
 Quadrupole moment (field-independent basis, Debye-Ang):
   XX=           -148.4387   YY=           -137.1604   ZZ=           -124.5386
   XY=             -3.5040   XZ=             -1.6649   YZ=              3.8999

 Summary of Natural Population Analysis:

                                       Natural Population
                Natural  -----------------------------------------------
    Atom  No    Charge         Core      Valence    Rydberg      Total
 -----------------------------------------------------------------------
      C    1   -0.28883      0.99967     2.28354    0.00562     3.28883
      C    2   -0.18314      0.99959     2.17302    0.01053     3.18314
      C    3   -0.08034      0.99954     2.06702    0.01378     3.08034
      C    4   -0.20473      0.99961     2.19382    0.01129     3.20473
      C    5   -0.09029      0.99965     2.08025    0.01040     3.09029
      N    6   -0.33685      0.99977     2.82678    0.01030     3.83685
      C    7   -0.08531      0.99960     2.07456    0.01115     3.08531
      C    8    0.32795      0.99957     1.64966    0.02282     2.67205
      O    9   -0.26720      0.99988     3.26151    0.00581     4.26720
      C   10   -0.07441      0.99943     2.06144    0.01354     3.07441
      C   11   -0.04631      0.99954     2.03862    0.00815     3.04631
      C   12   -0.13883      0.99956     2.13042    0.00885     3.13883
      C   13   -0.04678      0.99958     2.03775    0.00945     3.04678
      C   14   -0.16199      0.99953     2.15270    0.00976     3.16199
      C   15    0.18493      0.99935     1.80293    0.01279     2.81507
      O   16   -0.27795      0.99985     3.26722    0.01088     4.27795
      C   17   -0.10012      0.99960     2.09125    0.00928     3.10012
      H   18    0.09467      0.00000     0.40431    0.00102     0.40533
      H   19    0.09643      0.00000     0.40279    0.00078     0.40357
      H   20    0.09261      0.00000     0.40640    0.00098     0.40739
      H   21    0.10773      0.00000     0.39081    0.00145     0.39227
      H   22    0.09688      0.00000     0.40209    0.00103     0.40312
      H   23    0.10458      0.00000     0.39437    0.00105     0.39542
      H   24    0.10207      0.00000     0.39659    0.00133     0.39793
      H   25    0.08370      0.00000     0.41431    0.00198     0.41630
      H   26    0.08906      0.00000     0.40982    0.00112     0.41094
      H   27    0.16824      0.00000     0.33018    0.00158     0.33176
      H   28    0.11072      0.00000     0.38813    0.00115     0.38928
      H   29    0.08182      0.00000     0.41607    0.00212     0.41818
      H   30    0.10272      0.00000     0.39596    0.00132     0.39728
      H   31    0.09247      0.00000     0.40659    0.00094     0.40753
      H   32    0.08881      0.00000     0.41032    0.00087     0.41119
      H   33    0.09873      0.00000     0.40009    0.00117     0.40127
      H   34    0.08506      0.00000     0.41345    0.00149     0.41494
      H   35    0.08227      0.00000     0.41656    0.00117     0.41773
      H   36    0.09163      0.00000     0.40751    0.00086     0.40837
 =======================================================================
   * Total *    0.00000     16.99331    45.79885    0.20784    63.00000

 Normal termination of Gaussian 16 at Fri Dec 11 14:36:57 2020.
