 Gaussian 16, Revision A.03,

 -----------------------------------------------------------
 # opt freq B3LYP/6-31G(d) empiricaldispersion=gd3bj scf=xqc
 -----------------------------------------------------------

 -------------------------------
 CID_121205451_JID_3679_neutraal
 -------------------------------
 Symbolic Z-matrix:
 Charge =  0 Multiplicity = 1

 SCF Done:  E(RB3LYP) =  -555.608439223     A.U. after   13 cycles
 SCF Done:  E(RB3LYP) =  -555.611550624     A.U. after   12 cycles
 SCF Done:  E(RB3LYP) =  -555.612028710     A.U. after   11 cycles
 SCF Done:  E(RB3LYP) =  -555.612180165     A.U. after   12 cycles
 SCF Done:  E(RB3LYP) =  -555.612313956     A.U. after   11 cycles
 SCF Done:  E(RB3LYP) =  -555.612412070     A.U. after   10 cycles
 SCF Done:  E(RB3LYP) =  -555.612435520     A.U. after   10 cycles
 SCF Done:  E(RB3LYP) =  -555.612442843     A.U. after    9 cycles
 SCF Done:  E(RB3LYP) =  -555.612452715     A.U. after   10 cycles
 SCF Done:  E(RB3LYP) =  -555.612459256     A.U. after   10 cycles
 SCF Done:  E(RB3LYP) =  -555.612766087     A.U. after    9 cycles
 SCF Done:  E(RB3LYP) =  -555.612769482     A.U. after   10 cycles
 SCF Done:  E(RB3LYP) =  -555.612770131     A.U. after    9 cycles
 SCF Done:  E(RB3LYP) =  -555.612770280     A.U. after    8 cycles
 SCF Done:  E(RB3LYP) =  -555.612770282     A.U. after    6 cycles
 Optimization completed.
    -- Stationary point found.
 Normal termination of Gaussian 16 at Sun Dec 13 16:16:54 2020.

 --------------------------------------------------------------------
 #N Geom=AllCheck Guess=TCheck SCRF=Check GenChk RB3LYP/6-31G(d) Freq
 --------------------------------------------------------------------

 Structure from the checkpoint file:  "JID_3679.chk"
 -------------------------------
 CID_121205451_JID_3679_neutraal
 -------------------------------
 Charge =  0 Multiplicity = 1

 SCF Done:  E(RB3LYP) =  -555.612770282     A.U. after    1 cycles

  Exact polarizability: 153.529   4.502 125.120  -3.355   8.984  87.183
 Approx polarizability: 207.946   7.678 190.001  -6.789  22.319 133.827

                      1                      2                      3
                      A                      A                      A
 Frequencies --     20.7153                36.8608                55.7890
 Red. masses --      3.7417                 2.9296                 1.0398
 Frc consts  --      0.0009                 0.0023                 0.0019
 IR Inten    --      0.3064                 0.2225                 0.3217

                      4                      5                      6
                      A                      A                      A
 Frequencies --     84.8446               119.6145               141.9240
 Red. masses --      3.3925                 2.6786                 3.1733
 Frc consts  --      0.0144                 0.0226                 0.0377
 IR Inten    --      1.4920                 1.4776                 1.9371

                      7                      8                      9
                      A                      A                      A
 Frequencies --    167.4178               199.8046               238.9077
 Red. masses --      2.4687                 3.5323                 1.7744
 Frc consts  --      0.0408                 0.0831                 0.0597
 IR Inten    --      0.3066                 0.4293                 2.1960

                     10                     11                     12
                      A                      A                      A
 Frequencies --    250.5320               288.1402               314.9579
 Red. masses --      2.0818                 2.1772                 2.5774
 Frc consts  --      0.0770                 0.1065                 0.1506
 IR Inten    --      2.2581                 0.1951                 0.9678

                     13                     14                     15
                      A                      A                      A
 Frequencies --    344.5791               351.7928               404.2595
 Red. masses --      1.6796                 1.6150                 3.1288
 Frc consts  --      0.1175                 0.1178                 0.3013
 IR Inten    --     31.7852                32.7494                 3.6786

                     16                     17                     18
                      A                      A                      A
 Frequencies --    432.2389               464.5457               515.4005
 Red. masses --      2.6369                 2.5827                 3.1455
 Frc consts  --      0.2903                 0.3284                 0.4923
 IR Inten    --      1.7406                 9.9947                 3.1889

                     19                     20                     21
                      A                      A                      A
 Frequencies --    557.3773               598.4703               654.2786
 Red. masses --      5.4841                 3.9414                 3.2220
 Frc consts  --      1.0038                 0.8317                 0.8127
 IR Inten    --      6.3002                 3.4178                 3.2119

                     22                     23                     24
                      A                      A                      A
 Frequencies --    757.4250               798.7559               815.6859
 Red. masses --      1.5727                 3.8089                 2.5978
 Frc consts  --      0.5316                 1.4318                 1.0184
 IR Inten    --     11.6560                 5.6027                 0.8020

                     25                     26                     27
                      A                      A                      A
 Frequencies --    856.8068               885.1598               892.9618
 Red. masses --      1.6774                 1.6152                 1.9152
 Frc consts  --      0.7255                 0.7456                 0.8998
 IR Inten    --      0.1020                18.5007                 2.3994

                     28                     29                     30
                      A                      A                      A
 Frequencies --    912.8647               928.2452               986.3685
 Red. masses --      1.5830                 1.7821                 1.7923
 Frc consts  --      0.7772                 0.9047                 1.0274
 IR Inten    --    116.2355                35.6501                 2.7888

                     31                     32                     33
                      A                      A                      A
 Frequencies --    987.9278              1005.8861              1016.0140
 Red. masses --      1.4697                 1.9501                 3.0926
 Frc consts  --      0.8451                 1.1625                 1.8810
 IR Inten    --      1.0590                 3.1463                13.7100

                     34                     35                     36
                      A                      A                      A
 Frequencies --   1035.0242              1048.8181              1075.6135
 Red. masses --      1.7698                 2.3989                 1.6267
 Frc consts  --      1.1170                 1.5547                 1.1088
 IR Inten    --      3.2992                 2.0559                 6.7264

                     37                     38                     39
                      A                      A                      A
 Frequencies --   1088.4805              1122.2836              1133.0099
 Red. masses --      2.6498                 1.8349                 1.9702
 Frc consts  --      1.8497                 1.3616                 1.4902
 IR Inten    --      1.3816                 4.1051                 5.1737

                     40                     41                     42
                      A                      A                      A
 Frequencies --   1159.8116              1189.4743              1226.1126
 Red. masses --      1.9099                 1.5731                 1.4015
 Frc consts  --      1.5137                 1.3113                 1.2414
 IR Inten    --      3.0887                 0.9881                 6.1367

                     43                     44                     45
                      A                      A                      A
 Frequencies --   1251.2943              1255.9272              1282.1276
 Red. masses --      1.5843                 2.0777                 3.5851
 Frc consts  --      1.4615                 1.9309                 3.4723
 IR Inten    --      1.0042                 5.1763                 4.7428

                     46                     47                     48
                      A                      A                      A
 Frequencies --   1306.0059              1323.2514              1354.6917
 Red. masses --      1.3458                 1.6677                 1.2758
 Frc consts  --      1.3524                 1.7205                 1.3795
 IR Inten    --      0.7200                 2.0611                11.4500

                     49                     50                     51
                      A                      A                      A
 Frequencies --   1357.7061              1368.5232              1391.1958
 Red. masses --      1.3209                 1.3306                 3.5167
 Frc consts  --      1.4346                 1.4683                 4.0102
 IR Inten    --      1.0177                 6.9503                22.0119

                     52                     53                     54
                      A                      A                      A
 Frequencies --   1402.8995              1424.5702              1438.1364
 Red. masses --      1.4756                 1.5083                 1.3316
 Frc consts  --      1.7110                 1.8034                 1.6226
 IR Inten    --      5.0275                 1.6069                 1.6440

                     55                     56                     57
                      A                      A                      A
 Frequencies --   1445.2107              1450.0599              1504.1518
 Red. masses --      1.2989                 1.3545                 1.0456
 Frc consts  --      1.5984                 1.6781                 1.3938
 IR Inten    --      6.0320                34.1700                 5.5581

                     58                     59                     60
                      A                      A                      A
 Frequencies --   1510.6979              1518.3032              1521.9546
 Red. masses --      1.2320                 1.1219                 1.6773
 Frc consts  --      1.6566                 1.5237                 2.2891
 IR Inten    --     24.8338                 8.9333                15.3223

                     61                     62                     63
                      A                      A                      A
 Frequencies --   1524.4958              1534.7106              1543.4968
 Red. masses --      1.0934                 1.0727                 1.0616
 Frc consts  --      1.4972                 1.4886                 1.4901
 IR Inten    --      1.1244                 6.4518                 6.0661

                     64                     65                     66
                      A                      A                      A
 Frequencies --   1550.2800              1593.2030              1643.3311
 Red. masses --      1.0889                 6.6944                 5.7824
 Frc consts  --      1.5419                10.0115                 9.2005
 IR Inten    --      2.3636                75.6139               271.5399

                     67                     68                     69
                      A                      A                      A
 Frequencies --   1696.5036              2936.0960              3021.8793
 Red. masses --      1.0882                 1.0748                 1.0603
 Frc consts  --      1.8454                 5.4589                 5.7045
 IR Inten    --     33.1718                75.8568                27.8760

                     70                     71                     72
                      A                      A                      A
 Frequencies --   3043.3507              3045.7563              3055.9400
 Red. masses --      1.0649                 1.0387                 1.0945
 Frc consts  --      5.8111                 5.6769                 6.0223
 IR Inten    --     17.7456                20.9932                14.1698

                     73                     74                     75
                      A                      A                      A
 Frequencies --   3060.0913              3067.6228              3075.8908
 Red. masses --      1.0359                 1.0900                 1.0923
 Frc consts  --      5.7155                 6.0432                 6.0886
 IR Inten    --     10.9383                22.9857                48.0184

                     76                     77                     78
                      A                      A                      A
 Frequencies --   3083.6784              3111.2696              3121.2547
 Red. masses --      1.0899                 1.1008                 1.1005
 Frc consts  --      6.1060                 6.2780                 6.3167
 IR Inten    --     45.3536                50.9946                 8.7551

                     79                     80                     81
                      A                      A                      A
 Frequencies --   3123.5490              3144.3361              3181.4305
 Red. masses --      1.1022                 1.1036                 1.0907
 Frc consts  --      6.3357                 6.4287                 6.5042
 IR Inten    --     40.3433                15.4794                35.9109

                     82                     83                     84
                      A                      A                      A
 Frequencies --   3232.5336              3456.4409              3547.5002
 Red. masses --      1.0909                 1.0498                 1.0927
 Frc consts  --      6.7160                 7.3896                 8.1023
 IR Inten    --      5.5563                29.5381                 9.8011

 - Thermochemistry -
 -------------------
 Temperature   298.150 Kelvin.  Pressure   1.00000 Atm.
 Atom     1 has atomic number  6 and mass  12.00000

 Molecular mass:   179.14225 amu.
 Principal axes and moments of inertia in atomic units:
                           1         2         3
     Eigenvalues --  1411.236813901.318044796.95515
           X            0.99996   0.00486   0.00813
           Y           -0.00482   0.99998  -0.00497
           Z           -0.00815   0.00493   0.99995
 This molecule is an asymmetric top.
 Rotational symmetry number  1.
 Warning -- assumption of classical behavior for rotation
           may cause significant error
 Rotational temperatures (Kelvin)      0.06137     0.02220     0.01806
 Rotational constants (GHZ):           1.27884     0.46260     0.37623
 Zero-point vibrational energy     697820.8 (Joules/Mol)
                                  166.78318 (Kcal/Mol)
 Warning -- explicit consideration of  20 degrees of freedom as
           vibrations may cause significant error
 Vibrational temperatures:     29.80    53.03    80.27   122.07   172.10
          (Kelvin)            204.20   240.88   287.47   343.73   360.46
                              414.57   453.15   495.77   506.15   581.64
                              621.90   668.38   741.55   801.94   861.07
                              941.36  1089.77  1149.23  1173.59  1232.75
                             1273.55  1284.77  1313.41  1335.54  1419.16
                             1421.41  1447.25  1461.82  1489.17  1509.02
                             1547.57  1566.08  1614.72  1630.15  1668.71
                             1711.39  1764.10  1800.33  1807.00  1844.70
                             1879.05  1903.86  1949.10  1953.44  1969.00
                             2001.62  2018.46  2049.64  2069.16  2079.34
                             2086.31  2164.14  2173.56  2184.50  2189.75
                             2193.41  2208.11  2220.75  2230.51  2292.26
                             2364.39  2440.89  4224.39  4347.81  4378.70
                             4382.16  4396.82  4402.79  4413.63  4425.52
                             4436.73  4476.42  4490.79  4494.09  4524.00
                             4577.37  4650.89  4973.05  5104.06

 Zero-point correction=                           0.265786 (Hartree/Particle)
 Thermal correction to Energy=                    0.279627
 Thermal correction to Enthalpy=                  0.280571
 Thermal correction to Gibbs Free Energy=         0.223622
 Sum of electronic and zero-point Energies=           -555.346984
 Sum of electronic and thermal Energies=              -555.333144
 Sum of electronic and thermal Enthalpies=            -555.332200
 Sum of electronic and thermal Free Energies=         -555.389148

                     E (Thermal)             CV                S
                      KCal/Mol        Cal/Mol-Kelvin    Cal/Mol-Kelvin
 Total                  175.468             50.831            119.858
 Electronic               0.000              0.000              0.000
 Translational            0.889              2.981             41.456
 Rotational               0.889              2.981             31.646
 Vibrational            173.691             44.870             46.756
 Vibration     1          0.593              1.986              6.564
 Vibration     2          0.594              1.982              5.421
 Vibration     3          0.596              1.975              4.601
 Vibration     4          0.601              1.960              3.776
 Vibration     5          0.609              1.933              3.107
 Vibration     6          0.615              1.911              2.778
 Vibration     7          0.624              1.883              2.464
 Vibration     8          0.638              1.840              2.135
 Vibration     9          0.657              1.781              1.811
 Vibration    10          0.663              1.762              1.727
 Vibration    11          0.685              1.696              1.485
 Vibration    12          0.702              1.645              1.336
 Vibration    13          0.723              1.586              1.191
 Vibration    14          0.728              1.572              1.158
 Vibration    15          0.769              1.461              0.947
 Vibration    16          0.793              1.400              0.851
 Vibration    17          0.822              1.329              0.753
 Vibration    18          0.870              1.216              0.621
 Vibration    19          0.913              1.124              0.529
 Vibration    20          0.956              1.035              0.452

 Optimization completed.
    -- Stationary point found.
 Normal termination of Gaussian 16 at Sun Dec 13 16:24:33 2020.

 ----------------------------------------------------------------------
 # B3LYP/6-311++G(d,p) empiricaldispersion=gd3bj scf=xqc pop=npa geom=c
 heck
 ----------------------------------------------------------------------

 ---------------------------------------
 CID_121205451_JID_3679_Energie_neutraal
 ---------------------------------------
 Structure from the checkpoint file:  "JID_3679.chk"
 Charge =  0 Multiplicity = 1

 SCF Done:  E(RB3LYP) =  -555.769699274     A.U. after   14 cycles
 Normal termination of Gaussian 16 at Sun Dec 13 16:28:02 2020.

 ----------------------------------------------------------------------
 # B3LYP/6-311++G(d,p) empiricaldispersion=gd3bj scf=xqc pop=npa geom=c
 heck
 ----------------------------------------------------------------------

 -------------------------------------
 CID_121205451_JID_3679_Energie_kation
 -------------------------------------
 Structure from the checkpoint file:  "JID_3679.chk"
 Charge =  1 Multiplicity = 2

 SCF Done:  E(UB3LYP) =  -555.456682542     A.U. after   21 cycles
 Normal termination of Gaussian 16 at Sun Dec 13 16:35:31 2020.
 Gaussian 16:  ES64L-G16RevA.03 25-Dec-2016

 ----------------------------------------------------------------------
 # B3LYP/6-311++G(d,p) empiricaldispersion=gd3bj scf=xqc pop=npa geom=c
 heck
 ----------------------------------------------------------------------

 ------------------------------------
 CID_121205451_JID_3679_Energie_anion
 ------------------------------------
 Structure from the checkpoint file:  "JID_3679.chk"
 Charge = -1 Multiplicity = 2

                         Standard orientation:
 ---------------------------------------------------------------------
 Center     Atomic      Atomic             Coordinates (Angstroms)
 Number     Number       Type             X           Y           Z
 ---------------------------------------------------------------------
      1          6           0        3.750622   -0.961166    1.123575
      2          6           0        3.146124   -1.399966   -0.213422
      3          6           0        1.616845   -1.261684   -0.289550
      4          6           0        1.074041    0.146913    0.001249
      5          6           0        1.523764    1.189327   -1.051259
      6          7           0        1.564071    2.526210   -0.458466
      7          6           0       -0.435956    0.192240    0.142386
      8          7           0       -0.951863    1.341162    0.625019
      9          6           0       -2.280299    1.408810    0.730916
     10          7           0       -3.169222    0.464705    0.420394
     11          6           0       -2.662507   -0.682007   -0.065850
     12          6           0       -1.285523   -0.855020   -0.223636
     13          6           0       -3.649507   -1.758152   -0.424872
     14          1           0        3.645549    0.117496    1.280156
     15          1           0        4.819508   -1.197493    1.164405
     16          1           0        3.263344   -1.470916    1.964247
     17          1           0        3.618554   -0.836401   -1.027355
     18          1           0        3.394878   -2.453177   -0.397144
     19          1           0        1.282401   -1.588659   -1.284252
     20          1           0        1.172828   -1.961597    0.431377
     21          1           0        1.479102    0.495422    0.958671
     22          1           0        2.534923    0.939510   -1.390620
     23          1           0        0.863816    1.093906   -1.934615
     24          1           0        1.707076    3.222933   -1.187615
     25          1           0        0.658012    2.714917   -0.029647
     26          1           0       -2.683712    2.342347    1.119510
     27          1           0       -0.896273   -1.784804   -0.619880
     28          1           0       -4.367140   -1.379732   -1.160739
     29          1           0       -3.154750   -2.643726   -0.833060
     30          1           0       -4.224646   -2.050333    0.460701
 ---------------------------------------------------------------------

 SCF Done:  E(UB3LYP) =  -555.761975862     A.U. after   33 cycles
 SCF Done:  E(UB3LYP) =  -555.761975862     a.u. after    1 cycles

 The electronic state is 2-A.
 Alpha  occ. eigenvalues --  -14.17294 -14.16869 -14.16753 -10.10393 -10.07850
 Alpha  occ. eigenvalues --  -10.07547 -10.07538 -10.05607 -10.05580 -10.05440
 Alpha  occ. eigenvalues --  -10.05405 -10.05017 -10.04758  -0.84671  -0.77183
 Alpha  occ. eigenvalues --   -0.75067  -0.69565  -0.66594  -0.62774  -0.59309
 Alpha  occ. eigenvalues --   -0.56049  -0.52370  -0.50923  -0.47510  -0.44172
 Alpha  occ. eigenvalues --   -0.38938  -0.38242  -0.36248  -0.35745  -0.33899
 Alpha  occ. eigenvalues --   -0.33280  -0.32333  -0.31799  -0.30009  -0.28819
 Alpha  occ. eigenvalues --   -0.27984  -0.27787  -0.26962  -0.25876  -0.24616
 Alpha  occ. eigenvalues --   -0.24411  -0.21816  -0.21289  -0.21008  -0.17021
 Alpha  occ. eigenvalues --   -0.16473  -0.14855  -0.12954  -0.11856   0.04931
 Alpha virt. eigenvalues --    0.06943   0.07707   0.08283   0.08755   0.09557
 Alpha virt. eigenvalues --    0.09831   0.10220   0.10901   0.11159   0.11629
 Alpha virt. eigenvalues --    0.12255   0.12872   0.13339   0.13779   0.14498

  Beta  occ. eigenvalues --  -14.17286 -14.16667 -14.16549 -10.10434 -10.07537
  Beta  occ. eigenvalues --  -10.07499 -10.07222 -10.05603 -10.05584 -10.05431
  Beta  occ. eigenvalues --  -10.05425 -10.04993 -10.04856  -0.84296  -0.77053
  Beta  occ. eigenvalues --   -0.74652  -0.69453  -0.66341  -0.62612  -0.59212
  Beta  occ. eigenvalues --   -0.55977  -0.52244  -0.50797  -0.47210  -0.44029
  Beta  occ. eigenvalues --   -0.38748  -0.38135  -0.36132  -0.35673  -0.33812
  Beta  occ. eigenvalues --   -0.33205  -0.32237  -0.31260  -0.29962  -0.28717
  Beta  occ. eigenvalues --   -0.27904  -0.27425  -0.26658  -0.25720  -0.24495
  Beta  occ. eigenvalues --   -0.24320  -0.21682  -0.21182  -0.20936  -0.16276
  Beta  occ. eigenvalues --   -0.15473  -0.14209  -0.12853  -0.11643
  Beta virt. eigenvalues --    0.07333   0.07987   0.08380   0.09029   0.09706
  Beta virt. eigenvalues --    0.09970   0.10194   0.10359   0.11173   0.11368
  Beta virt. eigenvalues --    0.11766   0.12527   0.12988   0.13324   0.13829

 Mulliken charges and spin densities:
               1          2
     1  C    0.195401  -0.815248
     2  C   -0.347143   0.030042
     3  C   -0.144399  -0.243998
     4  C    0.324376   0.190144
     5  C    0.180913  -1.045049
     6  N   -0.383886   0.089593
     7  C   -0.193193   0.230976
     8  N   -0.077167   0.077724
     9  C    0.060387   0.053047
    10  N   -0.121460   0.124327
    11  C   -0.970521   0.092817
    12  C    0.514912   0.171728
    13  C   -0.162199  -0.564842
    14  H    0.024393   0.142101
    15  H   -0.387902   0.529431
    16  H    0.079363   0.047713
    17  H   -0.036841   0.144725
    18  H   -0.561217   0.720585
    19  H   -0.017837   0.155507
    20  H    0.098960   0.025806
    21  H    0.206912   0.055630
    22  H    0.033459   0.125114
    23  H    0.024901   0.101412
    24  H    0.185323   0.012720
    25  H    0.241647   0.004587
    26  H    0.145566   0.019851
    27  H   -0.030090   0.229207
    28  H   -0.020629   0.177238
    29  H   -0.012859   0.120817
    30  H    0.150831  -0.003705
 Sum of Mulliken charges =  -1.00000   1.00000

 Dipole moment (field-independent basis, Debye):
    X=             -2.3636    Y=              1.6121    Z=             -0.4764  Tot=              2.9005
 Quadrupole moment (field-independent basis, Debye-Ang):
   XX=           -156.1851   YY=           -109.9767   ZZ=            -99.3721
   XY=              9.9591   XZ=             -1.7238   YZ=             -4.6262

 Summary of Natural Population Analysis:

                                       Natural Population
                Natural  -----------------------------------------------
    Atom  No    Charge         Core      Valence    Rydberg      Total
 -----------------------------------------------------------------------
      C    1   -0.28915      0.99967     2.28357    0.00591     3.28915
      C    2   -0.18898      0.99964     2.18061    0.00873     3.18898
      C    3   -0.18741      0.99962     2.17764    0.01015     3.18741
      C    4   -0.13871      0.99955     2.12675    0.01241     3.13871
      C    5   -0.07969      0.99961     2.06799    0.01209     3.07969
      N    6   -0.42840      0.99977     2.91957    0.00906     3.92840
      C    7    0.18416      0.99953     1.80149    0.01482     2.81584
      N    8   -0.25365      0.99967     2.74435    0.00963     3.75365
      C    9    0.13674      0.99967     1.84551    0.01808     2.86326
      N   10   -0.24428      0.99968     2.73280    0.01180     3.74428
      C   11    0.16905      0.99956     1.81719    0.01420     2.83095
      C   12   -0.17073      0.99945     2.16384    0.00743     3.17073
      C   13   -0.30003      0.99964     2.29514    0.00526     3.30003
      H   14    0.09992      0.00000     0.39908    0.00099     0.40008
      H   15    0.09842      0.00000     0.40052    0.00106     0.40158
      H   16    0.09390      0.00000     0.40525    0.00084     0.40610
      H   17    0.09301      0.00000     0.40541    0.00158     0.40699
      H   18    0.09565      0.00000     0.40264    0.00171     0.40435
      H   19    0.09720      0.00000     0.40158    0.00122     0.40280
      H   20    0.09751      0.00000     0.40136    0.00113     0.40249
      H   21    0.10983      0.00000     0.38778    0.00239     0.39017
      H   22    0.08825      0.00000     0.41013    0.00162     0.41175
      H   23    0.07707      0.00000     0.42146    0.00147     0.42293
      H   24    0.16577      0.00000     0.33267    0.00156     0.33423
      H   25    0.19036      0.00000     0.30746    0.00218     0.30964
      H   26    0.07367      0.00000     0.42513    0.00120     0.42633
      H   27    0.10258      0.00000     0.39620    0.00122     0.39742
      H   28    0.10688      0.00000     0.39131    0.00181     0.39312
      H   29    0.09617      0.00000     0.40305    0.00078     0.40383
      H   30    0.10488      0.00000     0.39402    0.00110     0.39512
 =======================================================================
   * Total *   -0.00000     12.99506    35.84150    0.16344    49.00000

 Normal termination of Gaussian 16 at Sun Dec 13 16:46:31 2020.
