 Gaussian 16, Revision A.03,

 -----------------------------------------------------------
 # opt freq B3LYP/6-31G(d) empiricaldispersion=gd3bj scf=xqc
 -----------------------------------------------------------

 -------------------------------
 CID_107133970_JID_7196_neutraal
 -------------------------------
 Symbolic Z-matrix:
 Charge =  0 Multiplicity = 1

 SCF Done:  E(RB3LYP) =  -1091.83496170     A.U. after   15 cycles
 SCF Done:  E(RB3LYP) =  -1091.83937410     A.U. after   13 cycles
 SCF Done:  E(RB3LYP) =  -1091.83956757     A.U. after   13 cycles
 SCF Done:  E(RB3LYP) =  -1091.84122235     A.U. after   13 cycles
 SCF Done:  E(RB3LYP) =  -1091.84176105     A.U. after   13 cycles
 SCF Done:  E(RB3LYP) =  -1091.84182858     A.U. after   12 cycles
 SCF Done:  E(RB3LYP) =  -1091.84194102     A.U. after   12 cycles
 SCF Done:  E(RB3LYP) =  -1091.84196840     A.U. after   12 cycles
 SCF Done:  E(RB3LYP) =  -1091.84197191     A.U. after   11 cycles
 SCF Done:  E(RB3LYP) =  -1091.84199160     A.U. after   11 cycles
 SCF Done:  E(RB3LYP) =  -1091.84203392     A.U. after   10 cycles
 SCF Done:  E(RB3LYP) =  -1091.84204026     A.U. after   10 cycles
 SCF Done:  E(RB3LYP) =  -1091.84205228     A.U. after   10 cycles
 SCF Done:  E(RB3LYP) =  -1091.84205858     A.U. after   10 cycles
 SCF Done:  E(RB3LYP) =  -1091.84205897     A.U. after    8 cycles
 SCF Done:  E(RB3LYP) =  -1091.84205916     A.U. after    7 cycles
 Optimization completed.
    -- Stationary point found.
 Normal termination of Gaussian 16 at Fri Dec 11 12:03:15 2020.

 --------------------------------------------------------------------
 #N Geom=AllCheck Guess=TCheck SCRF=Check GenChk RB3LYP/6-31G(d) Freq
 --------------------------------------------------------------------

 Structure from the checkpoint file:  "JID_7196.chk"
 -------------------------------
 CID_107133970_JID_7196_neutraal
 -------------------------------
 Charge =  0 Multiplicity = 1

 SCF Done:  E(RB3LYP) =  -1091.84205916     A.U. after    1 cycles

  Exact polarizability: 199.505  -7.028 154.404 -24.149 -11.337 124.529
 Approx polarizability: 275.117  -8.082 278.568 -49.314 -36.043 200.888

                      1                      2                      3
                      A                      A                      A
 Frequencies --     35.3961                45.9784                51.2624
 Red. masses --      5.2288                 1.2335                 2.5936
 Frc consts  --      0.0039                 0.0015                 0.0040
 IR Inten    --      0.2564                 1.5021                 3.4790

                      4                      5                      6
                      A                      A                      A
 Frequencies --     79.6277                96.4997               132.3586
 Red. masses --      4.8240                 8.6653                 5.0607
 Frc consts  --      0.0180                 0.0475                 0.0522
 IR Inten    --      5.5105                 0.5065                 3.2789

                      7                      8                      9
                      A                      A                      A
 Frequencies --    173.2676               209.4239               235.6909
 Red. masses --      4.4874                 3.2589                 3.2387
 Frc consts  --      0.0794                 0.0842                 0.1060
 IR Inten    --      0.1411                 2.3628                 1.4022

                     10                     11                     12
                      A                      A                      A
 Frequencies --    261.9193               300.2193               317.7807
 Red. masses --      3.0344                 2.6256                 3.4689
 Frc consts  --      0.1226                 0.1394                 0.2064
 IR Inten    --      4.5983                 0.2349                 0.9439

                     13                     14                     15
                      A                      A                      A
 Frequencies --    355.3793               364.8768               422.2424
 Red. masses --      4.4774                 3.8063                 2.7354
 Frc consts  --      0.3332                 0.2986                 0.2873
 IR Inten    --      5.9446                 0.8227                 1.7477

                     16                     17                     18
                      A                      A                      A
 Frequencies --    423.7267               463.0347               489.0601
 Red. masses --      3.3151                 4.7954                 6.0453
 Frc consts  --      0.3507                 0.6058                 0.8519
 IR Inten    --      2.7468                 2.6303                 2.2838

                     19                     20                     21
                      A                      A                      A
 Frequencies --    500.8198               531.9900               547.6099
 Red. masses --      6.3657                 3.9056                 4.7938
 Frc consts  --      0.9407                 0.6512                 0.8470
 IR Inten    --      3.1464                 1.0773                 8.5707

                     22                     23                     24
                      A                      A                      A
 Frequencies --    557.9222               622.8493               653.3490
 Red. masses --      3.4848                 3.0587                 5.9951
 Frc consts  --      0.6391                 0.6991                 1.5078
 IR Inten    --      7.9529                 6.4985                 2.0882

                     25                     26                     27
                      A                      A                      A
 Frequencies --    698.7423               714.0195               718.1138
 Red. masses --      3.8531                 3.5063                 5.5210
 Frc consts  --      1.1084                 1.0532                 1.6775
 IR Inten    --      3.4037                 1.2983                 1.3774

                     28                     29                     30
                      A                      A                      A
 Frequencies --    739.7784               752.2701               797.6308
 Red. masses --      4.7840                 3.6661                 3.3183
 Frc consts  --      1.5426                 1.2224                 1.2439
 IR Inten    --      1.6033                 0.9598                 2.0268

                     31                     32                     33
                      A                      A                      A
 Frequencies --    836.5125               843.8116               861.5399
 Red. masses --      1.7098                 1.9633                 2.6034
 Frc consts  --      0.7049                 0.8236                 1.1385
 IR Inten    --     13.2169                21.8565                 5.8018

                     34                     35                     36
                      A                      A                      A
 Frequencies --    900.5257               914.2991               927.3518
 Red. masses --      2.3249                 3.1256                 1.6405
 Frc consts  --      1.1108                 1.5394                 0.8312
 IR Inten    --      3.3684                 4.0482                14.9754

                     37                     38                     39
                      A                      A                      A
 Frequencies --    927.9615               942.4512               969.5427
 Red. masses --      1.9582                 1.7830                 1.3215
 Frc consts  --      0.9935                 0.9331                 0.7319
 IR Inten    --      7.8172                 3.6376                 1.4137

                     40                     41                     42
                      A                      A                      A
 Frequencies --    989.2970              1015.0464              1030.0407
 Red. masses --      2.2472                 1.8686                 1.4680
 Frc consts  --      1.2958                 1.1343                 0.9177
 IR Inten    --      1.8252                 6.7318                 5.2433

                     43                     44                     45
                      A                      A                      A
 Frequencies --   1052.9739              1071.0807              1079.5707
 Red. masses --      2.1637                 2.9170                 1.4949
 Frc consts  --      1.4135                 1.9716                 1.0265
 IR Inten    --     32.4437                24.4958                 3.4677

                     46                     47                     48
                      A                      A                      A
 Frequencies --   1088.9875              1112.2814              1145.9428
 Red. masses --      2.3902                 1.4442                 1.0966
 Frc consts  --      1.6700                 1.0527                 0.8484
 IR Inten    --      0.6285                 5.0177                 0.7478

                     49                     50                     51
                      A                      A                      A
 Frequencies --   1167.4760              1181.9345              1210.6347
 Red. masses --      1.3309                 1.5643                 2.0773
 Frc consts  --      1.0688                 1.2875                 1.7938
 IR Inten    --     27.3570                 3.1331                29.1981

                     52                     53                     54
                      A                      A                      A
 Frequencies --   1236.4965              1253.5421              1261.6288
 Red. masses --      1.2506                 1.7091                 1.9965
 Frc consts  --      1.1265                 1.5823                 1.8723
 IR Inten    --      7.5340                55.2245                40.9203

                     55                     56                     57
                      A                      A                      A
 Frequencies --   1273.0319              1276.7087              1299.2386
 Red. masses --      1.5421                 1.7900                 1.3309
 Frc consts  --      1.4725                 1.7191                 1.3237
 IR Inten    --     19.8561                 1.3183                11.0569

                     58                     59                     60
                      A                      A                      A
 Frequencies --   1326.0851              1334.0074              1336.7325
 Red. masses --      1.8415                 1.9323                 1.4085
 Frc consts  --      1.9080                 2.0260                 1.4828
 IR Inten    --    143.5927                 7.1135                12.6111

                     61                     62                     63
                      A                      A                      A
 Frequencies --   1363.3189              1372.0448              1405.1180
 Red. masses --      1.6790                 2.8266                 1.4033
 Frc consts  --      1.8387                 3.1351                 1.6324
 IR Inten    --      4.9239                 3.5323                 1.2976

                     64                     65                     66
                      A                      A                      A
 Frequencies --   1408.7683              1431.0651              1444.9277
 Red. masses --      1.5006                 1.3797                 1.2483
 Frc consts  --      1.7547                 1.6648                 1.5356
 IR Inten    --      2.1498                 3.6633                 1.9070

                     67                     68                     69
                      A                      A                      A
 Frequencies --   1471.6697              1487.3170              1514.1960
 Red. masses --      3.2081                 1.0977                 1.0821
 Frc consts  --      4.0938                 1.4306                 1.4618
 IR Inten    --     72.8978                17.0174                 3.5880

                     70                     71                     72
                      A                      A                      A
 Frequencies --   1515.9943              1528.7638              1529.5910
 Red. masses --      1.0442                 1.1528                 1.1054
 Frc consts  --      1.4139                 1.5873                 1.5238
 IR Inten    --      5.5251                 7.5168                 9.2774

                     73                     74                     75
                      A                      A                      A
 Frequencies --   1539.1039              1550.1444              1628.3407
 Red. masses --      2.9370                 1.0909                 6.5170
 Frc consts  --      4.0991                 1.5445                10.1810
 IR Inten    --    167.8554                 5.8604                16.4981

                     76                     77                     78
                      A                      A                      A
 Frequencies --   1678.8013              1786.8537              3037.7380
 Red. masses --      6.3098                12.0487                 1.0728
 Frc consts  --     10.4776                22.6656                 5.8329
 IR Inten    --     78.6962               185.8224                10.2792

                     79                     80                     81
                      A                      A                      A
 Frequencies --   3043.2996              3045.7407              3059.5442
 Red. masses --      1.0380                 1.0808                 1.0641
 Frc consts  --      5.6644                 5.9071                 5.8690
 IR Inten    --     40.8091                 6.5829                18.4786

                     82                     83                     84
                      A                      A                      A
 Frequencies --   3077.3040              3083.2388              3093.6562
 Red. masses --      1.0783                 1.0791                 1.0999
 Frc consts  --      6.0163                 6.0441                 6.2023
 IR Inten    --     30.1880                61.1544                23.7190

                     85                     86                     87
                      A                      A                      A
 Frequencies --   3093.8072              3098.6375              3131.2265
 Red. masses --      1.0651                 1.0979                 1.1002
 Frc consts  --      6.0066                 6.2111                 6.3555
 IR Inten    --     20.4409                24.9883                13.4959

                     88                     89                     90
                      A                      A                      A
 Frequencies --   3139.5194              3152.2234              3162.7070
 Red. masses --      1.1085                 1.0901                 1.0959
 Frc consts  --      6.4376                 6.3821                 6.4588
 IR Inten    --     23.1301                 9.7705                 3.7575

                     91                     92                     93
                      A                      A                      A
 Frequencies --   3180.8514              3209.3732              3216.9256
 Red. masses --      1.0889                 1.0902                 1.0931
 Frc consts  --      6.4913                 6.6159                 6.6650
 IR Inten    --     16.1802                 3.8065                 7.6743

 - Thermochemistry -
 -------------------
 Temperature   298.150 Kelvin.  Pressure   1.00000 Atm.
 Atom     1 has atomic number  6 and mass  12.00000

 Molecular mass:   248.08710 amu.
 Principal axes and moments of inertia in atomic units:
                           1         2         3
     Eigenvalues --  2386.432765486.682315861.79493
           X            0.99970  -0.02078  -0.01292
           Y            0.02047   0.99951  -0.02371
           Z            0.01341   0.02344   0.99964
 This molecule is an asymmetric top.
 Rotational symmetry number  1.
 Warning -- assumption of classical behavior for rotation
           may cause significant error
 Rotational temperatures (Kelvin)      0.03629     0.01579     0.01478
 Rotational constants (GHZ):           0.75625     0.32893     0.30788
 Zero-point vibrational energy     721595.7 (Joules/Mol)
                                  172.46552 (Kcal/Mol)
 Warning -- explicit consideration of  22 degrees of freedom as
           vibrations may cause significant error
 Vibrational temperatures:     50.93    66.15    73.76   114.57   138.84
          (Kelvin)            190.43   249.29   301.31   339.11   376.84
                              431.95   457.22   511.31   524.98   607.51
                              609.65   666.20   703.65   720.57   765.42
                              787.89   802.73   896.14   940.02  1005.33
                             1027.31  1033.21  1064.38  1082.35  1147.61
                             1203.55  1214.06  1239.56  1295.66  1315.47
                             1334.25  1335.13  1355.98  1394.96  1423.38
                             1460.43  1482.00  1514.99  1541.05  1553.26
                             1566.81  1600.32  1648.76  1679.74  1700.54
                             1741.83  1779.04  1803.57  1815.20  1831.61
                             1836.90  1869.31  1907.94  1919.34  1923.26
                             1961.51  1974.07  2021.65  2026.90  2058.98
                             2078.93  2117.40  2139.92  2178.59  2181.18
                             2199.55  2200.74  2214.43  2230.31  2342.82
                             2415.42  2570.88  4370.63  4378.63  4382.14
                             4402.00  4427.55  4436.09  4451.08  4451.30
                             4458.25  4505.14  4517.07  4535.35  4550.43
                             4576.54  4617.57  4628.44

 Zero-point correction=                           0.274841 (Hartree/Particle)
 Thermal correction to Energy=                    0.289785
 Thermal correction to Enthalpy=                  0.290729
 Thermal correction to Gibbs Free Energy=         0.231783
 Sum of electronic and zero-point Energies=          -1091.567218
 Sum of electronic and thermal Energies=             -1091.552274
 Sum of electronic and thermal Enthalpies=           -1091.551330
 Sum of electronic and thermal Free Energies=        -1091.610276

                     E (Thermal)             CV                S
                      KCal/Mol        Cal/Mol-Kelvin    Cal/Mol-Kelvin
 Total                  181.843             58.666            124.062
 Electronic               0.000              0.000              0.000
 Translational            0.889              2.981             42.426
 Rotational               0.889              2.981             32.706
 Vibrational            180.065             52.704             48.929
 Vibration     1          0.594              1.982              5.501
 Vibration     2          0.595              1.979              4.983
 Vibration     3          0.596              1.977              4.768
 Vibration     4          0.600              1.963              3.900
 Vibration     5          0.603              1.952              3.524
 Vibration     6          0.612              1.921              2.911
 Vibration     7          0.627              1.875              2.400
 Vibration     8          0.642              1.826              2.049
 Vibration     9          0.655              1.786              1.835
 Vibration    10          0.669              1.743              1.649
 Vibration    11          0.693              1.673              1.416
 Vibration    12          0.704              1.640              1.321
 Vibration    13          0.731              1.564              1.142
 Vibration    14          0.738              1.545              1.101
 Vibration    15          0.785              1.422              0.884
 Vibration    16          0.786              1.419              0.879
 Vibration    17          0.821              1.332              0.757
 Vibration    18          0.845              1.274              0.686
 Vibration    19          0.856              1.248              0.656
 Vibration    20          0.887              1.179              0.583
 Vibration    21          0.903              1.145              0.549
 Vibration    22          0.913              1.122              0.528

 Optimization completed.
    -- Stationary point found.
 Normal termination of Gaussian 16 at Fri Dec 11 12:17:39 2020.

 ----------------------------------------------------------------------
 # B3LYP/6-311++G(d,p) empiricaldispersion=gd3bj scf=xqc pop=npa geom=c
 heck
 ----------------------------------------------------------------------

 ---------------------------------------
 CID_107133970_JID_7196_Energie_neutraal
 ---------------------------------------
 Structure from the checkpoint file:  "JID_7196.chk"
 Charge =  0 Multiplicity = 1

 SCF Done:  E(RB3LYP) =  -1092.05237240     A.U. after   16 cycles
 Normal termination of Gaussian 16 at Fri Dec 11 12:24:44 2020.

 ----------------------------------------------------------------------
 # B3LYP/6-311++G(d,p) empiricaldispersion=gd3bj scf=xqc pop=npa geom=c
 heck
 ----------------------------------------------------------------------

 -------------------------------------
 CID_107133970_JID_7196_Energie_kation
 -------------------------------------
 Structure from the checkpoint file:  "JID_7196.chk"
 Charge =  1 Multiplicity = 2

 SCF Done:  E(UB3LYP) =  -1091.76725241     A.U. after   24 cycles
 Normal termination of Gaussian 16 at Fri Dec 11 12:41:38 2020.
 Gaussian 16:  ES64L-G16RevA.03 25-Dec-2016

 ----------------------------------------------------------------------
 # B3LYP/6-311++G(d,p) empiricaldispersion=gd3bj scf=xqc pop=npa geom=c
 heck
 ----------------------------------------------------------------------

 ------------------------------------
 CID_107133970_JID_7196_Energie_anion
 ------------------------------------
 Structure from the checkpoint file:  "JID_7196.chk"
 Charge = -1 Multiplicity = 2

                         Standard orientation:
 ---------------------------------------------------------------------
 Center     Atomic      Atomic             Coordinates (Angstroms)
 Number     Number       Type             X           Y           Z
 ---------------------------------------------------------------------
      1          6           0        4.489015   -1.252772   -0.526315
      2          6           0        3.275497   -0.395058   -0.263550
      3          6           0        2.181846   -0.874870    0.445428
      4          6           0        1.050209   -0.080986    0.687478
      5          6           0        1.009265    1.232495    0.186627
      6          6           0        2.108619    1.737662   -0.518325
      7          6           0        3.218032    0.931706   -0.733111
      8          8           0       -0.055784    2.072401    0.344258
      9          6           0       -1.321222    1.488377    0.719595
     10          6           0       -1.119834    0.448635    1.823364
     11          6           0       -0.064840   -0.595612    1.504849
     12          8           0       -0.105219   -1.720888    1.977062
     13          6           0       -2.126350    1.105503   -0.550233
     14          6           0       -3.410297    0.310831   -0.235367
     15          6           0       -3.081943   -1.193258   -0.164211
     16         16           0       -1.639114   -1.485636   -1.279777
     17          6           0       -1.405510    0.301060   -1.644196
     18          1           0        4.370834   -2.247810   -0.087630
     19          1           0        5.396650   -0.805250   -0.102793
     20          1           0        4.664046   -1.380501   -1.601764
     21          1           0        2.169774   -1.885560    0.842371
     22          1           0        2.063592    2.753483   -0.897026
     23          1           0        4.062057    1.335399   -1.287837
     24          1           0       -1.866161    2.327143    1.163304
     25          1           0       -0.760150    0.982932    2.714582
     26          1           0       -2.055336   -0.035618    2.106311
     27          1           0       -2.401868    2.068734   -0.996914
     28          1           0       -4.123799    0.479112   -1.048918
     29          1           0       -3.892321    0.653069    0.688615
     30          1           0       -2.803613   -1.520795    0.840107
     31          1           0       -3.929310   -1.798629   -0.494537
     32          1           0       -1.856591    0.535179   -2.613315
     33          1           0       -0.338883    0.514907   -1.710873
 ---------------------------------------------------------------------

 SCF Done:  E(UB3LYP) =  -1092.06077970     A.U. after   30 cycles

 The electronic state is 2-A.
 Alpha  occ. eigenvalues --  -88.71680 -19.02137 -18.92662 -10.11525 -10.08981
 Alpha  occ. eigenvalues --  -10.08850 -10.08231 -10.07968 -10.07904 -10.07258
 Alpha  occ. eigenvalues --  -10.05147 -10.04158 -10.03909 -10.02853 -10.02548
 Alpha  occ. eigenvalues --  -10.02008 -10.01854  -7.80301  -5.76711  -5.76349
 Alpha  occ. eigenvalues --   -5.75633  -0.93904  -0.86602  -0.74085  -0.71603
 Alpha  occ. eigenvalues --   -0.66400  -0.64048  -0.62384  -0.61788  -0.60122
 Alpha  occ. eigenvalues --   -0.56784  -0.51639  -0.49288  -0.47224  -0.46106
 Alpha  occ. eigenvalues --   -0.44420  -0.39778  -0.38691  -0.37999  -0.36967
 Alpha  occ. eigenvalues --   -0.35475  -0.33856  -0.31729  -0.30705  -0.30470
 Alpha  occ. eigenvalues --   -0.30202  -0.29014  -0.28647  -0.27975  -0.27178
 Alpha  occ. eigenvalues --   -0.26240  -0.26071  -0.25312  -0.24750  -0.24169
 Alpha  occ. eigenvalues --   -0.23967  -0.22342  -0.21869  -0.20001  -0.19521
 Alpha  occ. eigenvalues --   -0.18563  -0.17922  -0.11815  -0.10190  -0.08859
 Alpha  occ. eigenvalues --   -0.08739   0.04360
 Alpha virt. eigenvalues --    0.06639   0.08397   0.08454   0.08959   0.10052
 Alpha virt. eigenvalues --    0.10584   0.10887   0.11212   0.11804   0.12233
 Alpha virt. eigenvalues --    0.12412   0.12954   0.13389   0.13929   0.14346

  Beta  occ. eigenvalues --  -88.71678 -19.02105 -18.92238 -10.11506 -10.08871
  Beta  occ. eigenvalues --  -10.08849 -10.08223 -10.07961 -10.07897 -10.06942
  Beta  occ. eigenvalues --  -10.05140 -10.04189 -10.04013 -10.02848 -10.02237
  Beta  occ. eigenvalues --  -10.01827 -10.01773  -7.80299  -5.76710  -5.76347
  Beta  occ. eigenvalues --   -5.75628  -0.93818  -0.85811  -0.74056  -0.71342
  Beta  occ. eigenvalues --   -0.66280  -0.63827  -0.62346  -0.61605  -0.59870
  Beta  occ. eigenvalues --   -0.56592  -0.51523  -0.48686  -0.47212  -0.46055
  Beta  occ. eigenvalues --   -0.44155  -0.39673  -0.38399  -0.37853  -0.36900
  Beta  occ. eigenvalues --   -0.35296  -0.33785  -0.31583  -0.30561  -0.30285
  Beta  occ. eigenvalues --   -0.30155  -0.28867  -0.28374  -0.27793  -0.27042
  Beta  occ. eigenvalues --   -0.25987  -0.25799  -0.25213  -0.24710  -0.23939
  Beta  occ. eigenvalues --   -0.23442  -0.22264  -0.21701  -0.19493  -0.18703
  Beta  occ. eigenvalues --   -0.18123  -0.17407  -0.10530  -0.09963  -0.08474
  Beta  occ. eigenvalues --   -0.08038
  Beta virt. eigenvalues --    0.06672   0.08334   0.08593   0.08886   0.09952
  Beta virt. eigenvalues --    0.09954   0.10708   0.10865   0.11258   0.11887
  Beta virt. eigenvalues --    0.12172   0.12458   0.12910   0.13588   0.14060

 Mulliken charges and spin densities:
               1          2
     1  C   -0.543334   0.012610
     2  C    0.225247  -0.098832
     3  C   -0.421663   0.151206
     4  C    1.186959  -0.015154
     5  C   -0.942174   0.038538
     6  C   -0.406674   0.068435
     7  C   -0.217628   0.291101
     8  O   -0.060793  -0.008823
     9  C   -0.052877   0.137367
    10  C   -0.488799  -0.328945
    11  C    0.241967   0.049576
    12  O   -0.378060   0.163400
    13  C    0.593838  -0.223306
    14  C   -0.486107  -0.126497
    15  C   -0.475579   0.002089
    16  S    0.069655   0.026326
    17  C   -0.641276   0.002610
    18  H    0.138120  -0.000657
    19  H    0.121197   0.001944
    20  H    0.127638   0.003049
    21  H    0.185746  -0.012306
    22  H    0.104584   0.007349
    23  H    0.125617  -0.019511
    24  H   -0.262065   0.462452
    25  H    0.062265   0.120546
    26  H    0.173539  -0.019384
    27  H    0.139059   0.092883
    28  H    0.071940   0.052058
    29  H    0.049259   0.094816
    30  H    0.208334  -0.013668
    31  H    0.191543   0.021502
    32  H    0.122920   0.082768
    33  H    0.237604  -0.015546
 Sum of Mulliken charges =  -1.00000   1.00000

 Dipole moment (field-independent basis, Debye):
    X=             -2.5727    Y=              1.5790    Z=             -2.8395  Tot=              4.1443
 Quadrupole moment (field-independent basis, Debye-Ang):
   XX=           -134.4416   YY=           -137.2931   ZZ=           -132.8009
   XY=             -0.6289   XZ=             -1.7412   YZ=              1.3470

 Summary of Natural Population Analysis:

                                       Natural Population
                Natural  -----------------------------------------------
    Atom  No    Charge         Core      Valence    Rydberg      Total
 -----------------------------------------------------------------------
      C    1   -0.28583      0.99964     2.28157    0.00462     3.28583
      C    2   -0.06264      0.99952     2.05540    0.00772     3.06264
      C    3   -0.02875      0.99949     2.02147    0.00779     3.02875
      C    4   -0.09743      0.99942     2.08761    0.01040     3.09743
      C    5    0.18412      0.99934     1.80147    0.01506     2.81588
      C    6   -0.13524      0.99952     2.12723    0.00849     3.13524
      C    7   -0.03271      0.99953     2.02521    0.00797     3.03271
      O    8   -0.28402      0.99986     3.27472    0.00944     4.28402
      C    9    0.07706      0.99950     1.90610    0.01734     2.92294
      C   10   -0.24831      0.99958     2.23880    0.00993     3.24831
      C   11    0.31047      0.99959     1.66633    0.02362     2.68953
      O   12   -0.26615      0.99988     3.26018    0.00609     4.26615
      C   13   -0.12376      0.99956     2.11091    0.01329     3.12376
      C   14   -0.19667      0.99961     2.18734    0.00972     3.19667
      C   15   -0.25135      0.99960     2.24239    0.00936     3.25135
      S   16    0.08735      4.99965     2.89556    0.01745     7.91265
      C   17   -0.24712      0.99957     2.23678    0.01077     3.24712
      H   18    0.09830      0.00000     0.40083    0.00087     0.40170
      H   19    0.09350      0.00000     0.40538    0.00112     0.40650
      H   20    0.09397      0.00000     0.40493    0.00110     0.40603
      H   21    0.10243      0.00000     0.39624    0.00133     0.39757
      H   22    0.09571      0.00000     0.40277    0.00152     0.40429
      H   23    0.08461      0.00000     0.41407    0.00132     0.41539
      H   24    0.09116      0.00000     0.40711    0.00174     0.40884
      H   25    0.11299      0.00000     0.38553    0.00148     0.38701
      H   26    0.10445      0.00000     0.39412    0.00143     0.39555
      H   27    0.10314      0.00000     0.39562    0.00124     0.39686
      H   28    0.09840      0.00000     0.40070    0.00090     0.40160
      H   29    0.10250      0.00000     0.39660    0.00090     0.39750
      H   30    0.10732      0.00000     0.39128    0.00140     0.39268
      H   31    0.09744      0.00000     0.40127    0.00129     0.40256
      H   32    0.09466      0.00000     0.40387    0.00147     0.40534
      H   33    0.12043      0.00000     0.37846    0.00111     0.37957
 =======================================================================
   * Total *   -0.00000     20.99286    44.79784    0.20930    66.00000

 Normal termination of Gaussian 16 at Fri Dec 11 13:04:42 2020.
