 Gaussian 16, Revision A.03,

 -----------------------------------------------------------
 # opt freq B3LYP/6-31G(d) empiricaldispersion=gd3bj scf=xqc
 -----------------------------------------------------------

 ------------------------------
 CID_61454716_JID_5285_neutraal
 ------------------------------
 Symbolic Z-matrix:
 Charge =  0 Multiplicity = 1

 SCF Done:  E(RB3LYP) =  -1108.23307785     A.U. after   15 cycles
 SCF Done:  E(RB3LYP) =  -1108.24287846     A.U. after   13 cycles
 SCF Done:  E(RB3LYP) =  -1108.24443654     A.U. after   13 cycles
 SCF Done:  E(RB3LYP) =  -1108.24589329     A.U. after   13 cycles
 SCF Done:  E(RB3LYP) =  -1108.24677863     A.U. after   13 cycles
 SCF Done:  E(RB3LYP) =  -1108.24802534     A.U. after   13 cycles
 SCF Done:  E(RB3LYP) =  -1108.24794157     A.U. after   12 cycles
 SCF Done:  E(RB3LYP) =  -1108.24906533     A.U. after   12 cycles
 SCF Done:  E(RB3LYP) =  -1108.24937472     A.U. after   12 cycles
 SCF Done:  E(RB3LYP) =  -1108.24946341     A.U. after   11 cycles
 SCF Done:  E(RB3LYP) =  -1108.25101019     A.U. after    9 cycles
 SCF Done:  E(RB3LYP) =  -1108.25101069     A.U. after    8 cycles
 SCF Done:  E(RB3LYP) =  -1108.25101077     A.U. after    9 cycles
 SCF Done:  E(RB3LYP) =  -1108.25101095     A.U. after    8 cycles
 SCF Done:  E(RB3LYP) =  -1108.25101095     A.U. after    6 cycles
 Optimization completed.
    -- Stationary point found.
 Normal termination of Gaussian 16 at Thu Dec 10 15:41:49 2020.

 --------------------------------------------------------------------
 #N Geom=AllCheck Guess=TCheck SCRF=Check GenChk RB3LYP/6-31G(d) Freq
 --------------------------------------------------------------------

 Structure from the checkpoint file:  "JID_5285.chk"
 ------------------------------
 CID_61454716_JID_5285_neutraal
 ------------------------------
 Charge =  0 Multiplicity = 1

 SCF Done:  E(RB3LYP) =  -1108.25101095     A.U. after    1 cycles

  Exact polarizability: 140.597   1.960 125.210  -0.320   4.163 117.431
 Approx polarizability: 201.254  -1.664 168.417  -3.771   4.135 186.098

                      1                      2                      3
                      A                      A                      A
 Frequencies --     25.7990                32.3115                54.0255
 Red. masses --      5.3807                 5.2099                 4.5094
 Frc consts  --      0.0021                 0.0032                 0.0078
 IR Inten    --      0.1863                 0.7775                 1.1959

                      4                      5                      6
                      A                      A                      A
 Frequencies --     83.0851                97.7530               100.1017
 Red. masses --      4.3481                 2.8413                 2.9243
 Frc consts  --      0.0177                 0.0160                 0.0173
 IR Inten    --      0.6813                 0.0703                 1.6317

                      7                      8                      9
                      A                      A                      A
 Frequencies --    120.4667               148.5593               162.8518
 Red. masses --      3.3162                 5.2388                 2.1653
 Frc consts  --      0.0284                 0.0681                 0.0338
 IR Inten    --      0.5357                 0.9873                 0.2570

                     10                     11                     12
                      A                      A                      A
 Frequencies --    201.5176               219.9213               228.7556
 Red. masses --      2.4725                 1.5695                 1.7541
 Frc consts  --      0.0592                 0.0447                 0.0541
 IR Inten    --      1.2560                 1.4559                 0.6456

                     13                     14                     15
                      A                      A                      A
 Frequencies --    238.1046               253.5895               259.6336
 Red. masses --      1.2554                 2.9231                 1.4681
 Frc consts  --      0.0419                 0.1108                 0.0583
 IR Inten    --      0.9356                 1.5737                 0.9691

                     16                     17                     18
                      A                      A                      A
 Frequencies --    272.3636               297.4705               316.6559
 Red. masses --      6.0688                 2.0347                 5.1325
 Frc consts  --      0.2652                 0.1061                 0.3032
 IR Inten    --      1.1083                 0.8893                 1.8981

                     19                     20                     21
                      A                      A                      A
 Frequencies --    354.4526               382.7153               403.2159
 Red. masses --      3.2453                 4.1866                 2.4607
 Frc consts  --      0.2402                 0.3613                 0.2357
 IR Inten    --      3.8422                 2.6132                 1.5941

                     22                     23                     24
                      A                      A                      A
 Frequencies --    428.6735               447.1138               489.8621
 Red. masses --      3.4790                 2.7149                 3.7967
 Frc consts  --      0.3767                 0.3198                 0.5368
 IR Inten    --      3.0344                 9.0303                 9.0944

                     25                     26                     27
                      A                      A                      A
 Frequencies --    517.9402               569.2208               611.4810
 Red. masses --      4.3496                 5.4595                 1.9484
 Frc consts  --      0.6875                 1.0422                 0.4292
 IR Inten    --     27.0266                46.9107                84.6884

                     28                     29                     30
                      A                      A                      A
 Frequencies --    626.7357               655.3138               721.6040
 Red. masses --      2.4253                 2.4533                 3.4297
 Frc consts  --      0.5613                 0.6207                 1.0522
 IR Inten    --     70.1094                12.8432                43.8229

                     31                     32                     33
                      A                      A                      A
 Frequencies --    768.5364               790.1486               801.1019
 Red. masses --      1.2873                 1.2385                 3.9505
 Frc consts  --      0.4480                 0.4556                 1.4937
 IR Inten    --      4.1935                11.5464                57.2262

                     34                     35                     36
                      A                      A                      A
 Frequencies --    816.4648               843.3944               893.3623
 Red. masses --      2.1969                 2.7893                 1.7437
 Frc consts  --      0.8629                 1.1690                 0.8200
 IR Inten    --      1.3219                20.1762                57.4653

                     37                     38                     39
                      A                      A                      A
 Frequencies --    906.7792               968.2152               983.9631
 Red. masses --      2.1717                 2.0026                 1.8774
 Frc consts  --      1.0521                 1.1061                 1.0710
 IR Inten    --     60.0395                10.9867                13.4837

                     40                     41                     42
                      A                      A                      A
 Frequencies --   1006.2819              1023.0105              1071.6530
 Red. masses --      1.7057                 1.6404                 1.9930
 Frc consts  --      1.0176                 1.0115                 1.3486
 IR Inten    --     17.4192                43.6340                13.3101

                     43                     44                     45
                      A                      A                      A
 Frequencies --   1085.4698              1102.7971              1106.9834
 Red. masses --      1.5035                 5.1503                 2.2337
 Frc consts  --      1.0437                 3.6904                 1.6127
 IR Inten    --     54.5173               115.9335                 9.2114

                     46                     47                     48
                      A                      A                      A
 Frequencies --   1121.0329              1126.6548              1145.1123
 Red. masses --      3.2227                 2.0647                 1.7426
 Frc consts  --      2.3862                 1.5442                 1.3463
 IR Inten    --     23.3641                16.9438                 2.1698

                     49                     50                     51
                      A                      A                      A
 Frequencies --   1187.3065              1211.5985              1218.1192
 Red. masses --      2.5542                 2.0397                 2.3088
 Frc consts  --      2.1215                 1.7642                 2.0184
 IR Inten    --      9.5107               159.4284                28.1524

                     52                     53                     54
                      A                      A                      A
 Frequencies --   1282.2380              1290.4850              1300.0937
 Red. masses --      1.3581                 1.3583                 1.2578
 Frc consts  --      1.3155                 1.3328                 1.2526
 IR Inten    --      2.1165                12.9281                 4.6651

                     55                     56                     57
                      A                      A                      A
 Frequencies --   1321.5152              1336.4477              1342.4295
 Red. masses --      5.3776                 1.4691                 1.1501
 Frc consts  --      5.5333                 1.5460                 1.2212
 IR Inten    --    161.0310                 9.5840                 1.7715

                     58                     59                     60
                      A                      A                      A
 Frequencies --   1372.2289              1374.1779              1388.1052
 Red. masses --      1.2088                 2.3369                 1.3153
 Frc consts  --      1.3411                 2.6000                 1.4932
 IR Inten    --      9.8465                32.0177                11.3077

                     61                     62                     63
                      A                      A                      A
 Frequencies --   1407.4150              1412.8828              1425.3405
 Red. masses --      1.2867                 1.4658                 1.3160
 Frc consts  --      1.5016                 1.7240                 1.5752
 IR Inten    --     13.1817                 1.2076                 7.9205

                     64                     65                     66
                      A                      A                      A
 Frequencies --   1433.6690              1441.7844              1445.2315
 Red. masses --      1.2392                 1.2800                 1.2513
 Frc consts  --      1.5007                 1.5677                 1.5399
 IR Inten    --      1.4003                23.7395                 3.3141

                     67                     68                     69
                      A                      A                      A
 Frequencies --   1509.1620              1518.1933              1520.2036
 Red. masses --      1.0757                 1.0563                 1.0534
 Frc consts  --      1.4435                 1.4344                 1.4344
 IR Inten    --      4.8889                 1.2470                 5.6512

                     70                     71                     72
                      A                      A                      A
 Frequencies --   1525.2782              1527.9252              1530.3948
 Red. masses --      1.0424                 1.0578                 1.0618
 Frc consts  --      1.4289                 1.4550                 1.4653
 IR Inten    --     12.6065                 3.8828                11.4122

                     73                     74                     75
                      A                      A                      A
 Frequencies --   1532.9987              1540.0589              1543.2975
 Red. masses --      1.0530                 1.0679                 1.0599
 Frc consts  --      1.4580                 1.4923                 1.4873
 IR Inten    --      6.5558                 5.4192                 1.8994

                     76                     77                     78
                      A                      A                      A
 Frequencies --   1547.5299              1858.7844              3039.8433
 Red. masses --      1.0684                 9.8572                 1.0663
 Frc consts  --      1.5075                20.0661                 5.8056
 IR Inten    --     11.6239               323.4945                 3.1115

                     79                     80                     81
                      A                      A                      A
 Frequencies --   3045.1252              3049.5133              3052.3372
 Red. masses --      1.0620                 1.0430                 1.0612
 Frc consts  --      5.8019                 5.7145                 5.8250
 IR Inten    --     24.4908                26.7546                26.1222

                     82                     83                     84
                      A                      A                      A
 Frequencies --   3061.0919              3077.0218              3077.7420
 Red. masses --      1.0406                 1.0661                 1.0677
 Frc consts  --      5.7449                 5.9471                 5.9588
 IR Inten    --     36.6320                22.0827                 2.5153

                     85                     86                     87
                      A                      A                      A
 Frequencies --   3080.3787              3089.1449              3113.8469
 Red. masses --      1.0965                 1.0782                 1.1020
 Frc consts  --      6.1303                 6.0623                 6.2956
 IR Inten    --     38.5470                32.3741                43.7833

                     88                     89                     90
                      A                      A                      A
 Frequencies --   3120.5534              3122.7467              3124.8804
 Red. masses --      1.1016                 1.1009                 1.0860
 Frc consts  --      6.3205                 6.3253                 6.2479
 IR Inten    --     27.9134                49.4038                 2.1050

                     91                     92                     93
                      A                      A                      A
 Frequencies --   3145.8374              3147.7078              3159.9068
 Red. masses --      1.1001                 1.1003                 1.0907
 Frc consts  --      6.4143                 6.4233                 6.4168
 IR Inten    --      7.7652                13.3193                 9.9339

                     94                     95                     96
                      A                      A                      A
 Frequencies --   3177.1005              3189.4167              3683.9692
 Red. masses --      1.0946                 1.1008                 1.0641
 Frc consts  --      6.5096                 6.5975                 8.5085
 IR Inten    --     10.8208                 2.6874                62.9515

 - Thermochemistry -
 -------------------
 Temperature   298.150 Kelvin.  Pressure   1.00000 Atm.
 Atom     1 has atomic number  6 and mass  12.00000

 Molecular mass:   237.10348 amu.
 Principal axes and moments of inertia in atomic units:
                           1         2         3
     Eigenvalues --  2783.240254065.009464804.18140
           X            0.99979  -0.01839   0.00868
           Y            0.01763   0.99661   0.08032
           Z           -0.01013  -0.08016   0.99673
 This molecule is an asymmetric top.
 Rotational symmetry number  1.
 Warning -- assumption of classical behavior for rotation
           may cause significant error
 Rotational temperatures (Kelvin)      0.03112     0.02131     0.01803
 Rotational constants (GHZ):           0.64843     0.44397     0.37566
 Zero-point vibrational energy     764325.9 (Joules/Mol)
                                  182.67828 (Kcal/Mol)
 Warning -- explicit consideration of  27 degrees of freedom as
           vibrations may cause significant error
 Vibrational temperatures:     37.12    46.49    77.73   119.54   140.64
          (Kelvin)            144.02   173.32   213.74   234.31   289.94
                              316.42   329.13   342.58   364.86   373.55
                              391.87   427.99   455.60   509.98   550.64
                              580.14   616.77   643.30   704.80   745.20
                              818.98   879.78   901.73   942.85  1038.23
                             1105.75  1136.85  1152.61  1174.71  1213.46
                             1285.35  1304.65  1393.05  1415.70  1447.82
                             1471.88  1541.87  1561.75  1586.68  1592.70
                             1612.92  1621.00  1647.56  1708.27  1743.22
                             1752.60  1844.85  1856.72  1870.54  1901.37
                             1922.85  1931.46  1974.33  1977.14  1997.17
                             2024.96  2032.82  2050.75  2062.73  2074.41
                             2079.37  2171.35  2184.34  2187.23  2194.54
                             2198.34  2201.90  2205.64  2215.80  2220.46
                             2226.55  2674.38  4373.66  4381.26  4387.57
                             4391.63  4404.23  4427.15  4428.18  4431.98
                             4444.59  4480.13  4489.78  4492.94  4496.01
                             4526.16  4528.85  4546.40  4571.14  4588.86
                             5300.41

 Zero-point correction=                           0.291116 (Hartree/Particle)
 Thermal correction to Energy=                    0.308814
 Thermal correction to Enthalpy=                  0.309758
 Thermal correction to Gibbs Free Energy=         0.244940
 Sum of electronic and zero-point Energies=          -1107.959895
 Sum of electronic and thermal Energies=             -1107.942197
 Sum of electronic and thermal Enthalpies=           -1107.941253
 Sum of electronic and thermal Free Energies=        -1108.006071

                     E (Thermal)             CV                S
                      KCal/Mol        Cal/Mol-Kelvin    Cal/Mol-Kelvin
 Total                  193.783             64.596            136.421
 Electronic               0.000              0.000              0.000
 Translational            0.889              2.981             42.291
 Rotational               0.889              2.981             32.364
 Vibrational            192.006             58.634             61.766
 Vibration     1          0.593              1.985              6.129
 Vibration     2          0.594              1.983              5.682
 Vibration     3          0.596              1.976              4.664
 Vibration     4          0.600              1.961              3.817
 Vibration     5          0.603              1.951              3.499
 Vibration     6          0.604              1.949              3.452
 Vibration     7          0.609              1.932              3.093
 Vibration     8          0.618              1.904              2.691
 Vibration     9          0.623              1.888              2.516
 Vibration    10          0.638              1.838              2.119
 Vibration    11          0.647              1.811              1.960
 Vibration    12          0.651              1.797              1.889
 Vibration    13          0.656              1.782              1.817
 Vibration    14          0.665              1.757              1.705
 Vibration    15          0.668              1.746              1.664
 Vibration    16          0.675              1.724              1.581
 Vibration    17          0.691              1.678              1.431
 Vibration    18          0.704              1.642              1.327
 Vibration    19          0.730              1.566              1.146
 Vibration    20          0.752              1.507              1.028
 Vibration    21          0.769              1.463              0.951
 Vibration    22          0.790              1.408              0.863
 Vibration    23          0.806              1.367              0.805
 Vibration    24          0.846              1.273              0.684
 Vibration    25          0.873              1.210              0.615
 Vibration    26          0.925              1.098              0.506
 Vibration    27          0.971              1.008              0.430

 Optimization completed.
    -- Stationary point found.
 Normal termination of Gaussian 16 at Thu Dec 10 15:53:29 2020.

 ----------------------------------------------------------------------
 # B3LYP/6-311++G(d,p) empiricaldispersion=gd3bj scf=xqc pop=npa geom=c
 heck
 ----------------------------------------------------------------------

 --------------------------------------
 CID_61454716_JID_5285_Energie_neutraal
 --------------------------------------
 Structure from the checkpoint file:  "JID_5285.chk"
 Charge =  0 Multiplicity = 1

 SCF Done:  E(RB3LYP) =  -1108.49467828     A.U. after   15 cycles
 Normal termination of Gaussian 16 at Thu Dec 10 15:58:39 2020.

 ----------------------------------------------------------------------
 # B3LYP/6-311++G(d,p) empiricaldispersion=gd3bj scf=xqc pop=npa geom=c
 heck
 ----------------------------------------------------------------------

 ------------------------------------
 CID_61454716_JID_5285_Energie_kation
 ------------------------------------
 Structure from the checkpoint file:  "JID_5285.chk"
 Charge =  1 Multiplicity = 2

 SCF Done:  E(UB3LYP) =  -1108.16262103     A.U. after   24 cycles
 Normal termination of Gaussian 16 at Thu Dec 10 16:09:42 2020.
 Gaussian 16:  ES64L-G16RevA.03 25-Dec-2016

 ----------------------------------------------------------------------
 # B3LYP/6-311++G(d,p) empiricaldispersion=gd3bj scf=xqc pop=npa geom=c
 heck
 ----------------------------------------------------------------------

 -----------------------------------
 CID_61454716_JID_5285_Energie_anion
 -----------------------------------
 Structure from the checkpoint file:  "JID_5285.chk"
 Charge = -1 Multiplicity = 2

                         Standard orientation:
 ---------------------------------------------------------------------
 Center     Atomic      Atomic             Coordinates (Angstroms)
 Number     Number       Type             X           Y           Z
 ---------------------------------------------------------------------
      1          6           0        2.955372   -2.344506   -0.160197
      2          6           0        2.774040   -1.210975    0.854219
      3          6           0        2.972147    0.184413    0.247176
      4          6           0        1.848371    0.639620   -0.689051
      5          7           0        0.544483    0.706152    0.004734
      6          6           0        0.460992    1.548889    1.214749
      7          6           0        0.824599    3.015396    0.989193
      8         16           0       -0.829261    0.651209   -0.956494
      9          8           0       -1.767055    1.691988   -0.520215
     10          8           0       -0.403890    0.539936   -2.356546
     11          6           0       -1.652968   -0.955526   -0.582143
     12          6           0       -0.708092   -2.133409   -0.806968
     13          6           0       -2.295164   -0.955345    0.790430
     14          8           0       -3.484637   -0.972345    0.993859
     15          8           0       -1.375950   -0.978271    1.789065
     16          1           0        2.267340   -2.250752   -1.006948
     17          1           0        2.777709   -3.322384    0.300808
     18          1           0        3.974790   -2.345832   -0.564282
     19          1           0        1.776687   -1.266618    1.308695
     20          1           0        3.493878   -1.346611    1.671130
     21          1           0        3.108596    0.922892    1.045992
     22          1           0        3.901263    0.203762   -0.338346
     23          1           0        2.104440    1.613848   -1.124815
     24          1           0        1.741756   -0.054854   -1.521773
     25          1           0       -0.554037    1.471919    1.599803
     26          1           0        1.114970    1.091427    1.963510
     27          1           0        0.149089    3.464224    0.255931
     28          1           0        0.729490    3.568812    1.930092
     29          1           0        1.854795    3.134091    0.637483
     30          1           0       -2.472963   -0.960178   -1.304632
     31          1           0        0.106674   -2.116413   -0.082878
     32          1           0       -1.257096   -3.073836   -0.694928
     33          1           0       -0.297786   -2.090716   -1.818772
     34          1           0       -1.886311   -0.987001    2.620928
 ---------------------------------------------------------------------

 SCF Done:  E(UB3LYP) =  -1108.48744272     A.U. after   33 cycles
 SCF Done:  E(UB3LYP) =  -1108.48744272     a.u. after    1 cycles

 The electronic state is 2-A.
 Alpha  occ. eigenvalues --  -88.96893 -19.07619 -19.02688 -19.02532 -19.02428
 Alpha  occ. eigenvalues --  -14.25159 -10.21580 -10.13324 -10.11448 -10.11122
 Alpha  occ. eigenvalues --  -10.08788 -10.07816 -10.07010 -10.07003 -10.06426
 Alpha  occ. eigenvalues --   -8.03093  -5.99366  -5.99347  -5.99163  -1.02874
 Alpha  occ. eigenvalues --   -1.01784  -0.93115  -0.91934  -0.84504  -0.72923
 Alpha  occ. eigenvalues --   -0.70533  -0.66632  -0.63608  -0.59623  -0.56611
 Alpha  occ. eigenvalues --   -0.56307  -0.52906  -0.49757  -0.46320  -0.44184
 Alpha  occ. eigenvalues --   -0.42125  -0.40125  -0.39587  -0.39085  -0.37649
 Alpha  occ. eigenvalues --   -0.36414  -0.35687  -0.35416  -0.33912  -0.33579
 Alpha  occ. eigenvalues --   -0.32894  -0.32278  -0.30823  -0.30329  -0.30136
 Alpha  occ. eigenvalues --   -0.29715  -0.28305  -0.27780  -0.26559  -0.25723
 Alpha  occ. eigenvalues --   -0.24445  -0.24328  -0.23830  -0.23625  -0.23260
 Alpha  occ. eigenvalues --   -0.21818  -0.21212  -0.18944  -0.16251   0.03996
 Alpha virt. eigenvalues --    0.06277   0.06462   0.06823   0.07740   0.08374
 Alpha virt. eigenvalues --    0.08985   0.09610   0.10159   0.10374   0.11400
 Alpha virt. eigenvalues --    0.11831   0.12369   0.12477   0.12924   0.13192

  Beta  occ. eigenvalues --  -88.96884 -19.07553 -19.02672 -19.02528 -19.02353
  Beta  occ. eigenvalues --  -14.25151 -10.21501 -10.13312 -10.11440 -10.11103
  Beta  occ. eigenvalues --  -10.08752 -10.07797 -10.06990 -10.06985 -10.06396
  Beta  occ. eigenvalues --   -8.03081  -5.99358  -5.99339  -5.99148  -1.02834
  Beta  occ. eigenvalues --   -1.01651  -0.92977  -0.91908  -0.84481  -0.72847
  Beta  occ. eigenvalues --   -0.70498  -0.66596  -0.63568  -0.59524  -0.56504
  Beta  occ. eigenvalues --   -0.56254  -0.52794  -0.49685  -0.46250  -0.44138
  Beta  occ. eigenvalues --   -0.42087  -0.40063  -0.39531  -0.38981  -0.37603
  Beta  occ. eigenvalues --   -0.36251  -0.35651  -0.35372  -0.33880  -0.33485
  Beta  occ. eigenvalues --   -0.32836  -0.32221  -0.30784  -0.30295  -0.30102
  Beta  occ. eigenvalues --   -0.29635  -0.28273  -0.27737  -0.26528  -0.25702
  Beta  occ. eigenvalues --   -0.24402  -0.24286  -0.23799  -0.23469  -0.23116
  Beta  occ. eigenvalues --   -0.21778  -0.21170  -0.18871  -0.16237
  Beta virt. eigenvalues --    0.06292   0.07062   0.07300   0.07538   0.08239
  Beta virt. eigenvalues --    0.09000   0.09372   0.09882   0.10423   0.10631
  Beta virt. eigenvalues --    0.11719   0.12147   0.12571   0.12697   0.13219

 Mulliken charges and spin densities:
               1          2
     1  C    0.902592  -1.487495
     2  C   -0.749190   0.700415
     3  C    0.075646  -0.501986
     4  C    0.071798  -0.451738
     5  N    0.060339   0.101145
     6  C   -0.548786   0.188361
     7  C    0.440431  -0.954475
     8  S    0.955969  -0.673484
     9  O   -0.090999   0.018643
    10  O   -0.159018  -0.001690
    11  C   -0.513000   0.340978
    12  C   -0.240343  -0.487521
    13  C   -0.142251   0.021041
    14  O   -0.240822   0.020935
    15  O   -0.189772   0.038507
    16  H   -0.003799   0.136536
    17  H   -0.272262   0.424649
    18  H   -0.121324   0.254873
    19  H    0.048725   0.094781
    20  H   -0.553322   0.732802
    21  H    0.015271   0.148120
    22  H   -0.193620   0.349766
    23  H    0.143716   0.047757
    24  H    0.157787   0.031282
    25  H    0.108131   0.129324
    26  H   -0.289201   0.445354
    27  H    0.153262   0.010139
    28  H   -0.206466   0.357686
    29  H    0.004816   0.126435
    30  H    0.229745   0.093470
    31  H    0.642001  -0.429479
    32  H   -0.164677   0.341833
    33  H   -0.025554   0.215880
    34  H   -0.305822   0.617158
 Sum of Mulliken charges =  -1.00000   1.00000

 Dipole moment (field-independent basis, Debye):
    X=             -0.4589    Y=              1.3200    Z=             -3.7095  Tot=              3.9640
 Quadrupole moment (field-independent basis, Debye-Ang):
   XX=           -165.1570   YY=           -142.9626   ZZ=           -146.8666
   XY=              8.7678   XZ=             -0.6604   YZ=              3.3637

 Summary of Natural Population Analysis:

                                       Natural Population
                Natural  -----------------------------------------------
    Atom  No    Charge         Core      Valence    Rydberg      Total
 -----------------------------------------------------------------------
      C    1   -0.28762      0.99967     2.28227    0.00568     3.28762
      C    2   -0.19626      0.99964     2.18842    0.00820     3.19626
      C    3   -0.19537      0.99962     2.18676    0.00900     3.19537
      C    4   -0.08669      0.99959     2.07501    0.01210     3.08669
      N    5   -0.37970      0.99973     2.86528    0.01469     3.87970
      C    6   -0.08926      0.99960     2.07687    0.01279     3.08926
      C    7   -0.29626      0.99965     2.29168    0.00492     3.29626
      S    8    1.11237      4.99919     1.78886    0.09958     6.88763
      O    9   -0.46259      0.99991     3.45744    0.00524     4.46259
      O   10   -0.46566      0.99991     3.46056    0.00520     4.46566
      C   11   -0.24097      0.99950     2.22520    0.01627     3.24097
      C   12   -0.29499      0.99963     2.28795    0.00741     3.29499
      C   13    0.40907      0.99967     1.56465    0.02660     2.59093
      O   14   -0.28989      0.99987     3.28393    0.00610     4.28989
      O   15   -0.34461      0.99988     3.33641    0.00832     4.34461
      H   16    0.09469      0.00000     0.40417    0.00114     0.40531
      H   17    0.10117      0.00000     0.39780    0.00104     0.39883
      H   18    0.09588      0.00000     0.40307    0.00104     0.40412
      H   19    0.10090      0.00000     0.39689    0.00221     0.39910
      H   20    0.09822      0.00000     0.40033    0.00146     0.40178
      H   21    0.09954      0.00000     0.39914    0.00131     0.40046
      H   22    0.10042      0.00000     0.39856    0.00102     0.39958
      H   23    0.09277      0.00000     0.40617    0.00106     0.40723
      H   24    0.10964      0.00000     0.38913    0.00123     0.39036
      H   25    0.11179      0.00000     0.38639    0.00182     0.38821
      H   26    0.09971      0.00000     0.39862    0.00166     0.40029
      H   27    0.10536      0.00000     0.39362    0.00101     0.39464
      H   28    0.10259      0.00000     0.39663    0.00078     0.39741
      H   29    0.09590      0.00000     0.40323    0.00087     0.40410
      H   30    0.12346      0.00000     0.37550    0.00104     0.37654
      H   31    0.11272      0.00000     0.38509    0.00219     0.38728
      H   32    0.10739      0.00000     0.39159    0.00102     0.39261
      H   33    0.11015      0.00000     0.38868    0.00116     0.38985
      H   34    0.24614      0.00000     0.24391    0.00996     0.25386
 =======================================================================
   * Total *   -0.00000     18.99503    44.72983    0.27514    64.00000

 Normal termination of Gaussian 16 at Thu Dec 10 16:26:29 2020.
