 Gaussian 16, Revision A.03,

 -----------------------------------------------------------
 # opt freq B3LYP/6-31G(d) empiricaldispersion=gd3bj scf=xqc
 -----------------------------------------------------------

 ------------------------------
 CID_73733281_JID_9597_neutraal
 ------------------------------
 Symbolic Z-matrix:
 Charge =  0 Multiplicity = 1

 SCF Done:  E(RB3LYP) =  -957.622483826     A.U. after   15 cycles
 SCF Done:  E(RB3LYP) =  -957.628230935     A.U. after   13 cycles
 SCF Done:  E(RB3LYP) =  -957.628653672     A.U. after   13 cycles
 SCF Done:  E(RB3LYP) =  -957.629133305     A.U. after   13 cycles
 SCF Done:  E(RB3LYP) =  -957.629802939     A.U. after   12 cycles
 SCF Done:  E(RB3LYP) =  -957.630014768     A.U. after   12 cycles
 SCF Done:  E(RB3LYP) =  -957.629821179     A.U. after   13 cycles
 SCF Done:  E(RB3LYP) =  -957.630149144     A.U. after   12 cycles
 SCF Done:  E(RB3LYP) =  -957.630215797     A.U. after   10 cycles
 SCF Done:  E(RB3LYP) =  -957.630241382     A.U. after   11 cycles
 SCF Done:  E(RB3LYP) =  -957.630650540     A.U. after   10 cycles
 SCF Done:  E(RB3LYP) =  -957.630651135     A.U. after    9 cycles
 SCF Done:  E(RB3LYP) =  -957.630651462     A.U. after    9 cycles
 SCF Done:  E(RB3LYP) =  -957.630651696     A.U. after    8 cycles
 SCF Done:  E(RB3LYP) =  -957.630651838     A.U. after    8 cycles
 SCF Done:  E(RB3LYP) =  -957.630651852     A.U. after    6 cycles
 Optimization completed.
    -- Stationary point found.
 Normal termination of Gaussian 16 at Mon Dec 14 13:41:05 2020.

 --------------------------------------------------------------------
 #N Geom=AllCheck Guess=TCheck SCRF=Check GenChk RB3LYP/6-31G(d) Freq
 --------------------------------------------------------------------

 Structure from the checkpoint file:  "JID_9597.chk"
 ------------------------------
 CID_73733281_JID_9597_neutraal
 ------------------------------
 Charge =  0 Multiplicity = 1

 SCF Done:  E(RB3LYP) =  -957.630651852     A.U. after    1 cycles

  Exact polarizability: 253.271 -14.340 165.468   0.528  -2.820 101.294
 Approx polarizability: 340.318 -46.941 241.233   2.674 -12.127 149.267

                      1                      2                      3
                      A                      A                      A
 Frequencies --     17.3729                20.8633                32.0957
 Red. masses --      3.7152                 4.6396                 4.2940
 Frc consts  --      0.0007                 0.0012                 0.0026
 IR Inten    --      1.1286                 0.2321                 0.0756

                      4                      5                      6
                      A                      A                      A
 Frequencies --     34.6429                46.9554                55.4684
 Red. masses --      4.1094                 3.7807                 3.4367
 Frc consts  --      0.0029                 0.0049                 0.0062
 IR Inten    --      0.6142                 2.3353                 0.1863

                      7                      8                      9
                      A                      A                      A
 Frequencies --     70.5996                73.7238                95.4863
 Red. masses --      3.8203                 3.8072                 4.8688
 Frc consts  --      0.0112                 0.0122                 0.0262
 IR Inten    --      0.6143                 0.8746                 0.0440

                     10                     11                     12
                      A                      A                      A
 Frequencies --    112.6206               115.5511               135.6513
 Red. masses --      4.4368                 5.0326                 4.0473
 Frc consts  --      0.0332                 0.0396                 0.0439
 IR Inten    --      2.2443                 0.8065                 1.5323

                     13                     14                     15
                      A                      A                      A
 Frequencies --    164.2159               185.8540               201.2790
 Red. masses --      3.2931                 2.6568                 2.0545
 Frc consts  --      0.0523                 0.0541                 0.0490
 IR Inten    --      0.6740                 1.5572                 0.9898

                     16                     17                     18
                      A                      A                      A
 Frequencies --    220.3971               232.9713               235.5816
 Red. masses --      1.3570                 1.3087                 1.4680
 Frc consts  --      0.0388                 0.0418                 0.0480
 IR Inten    --      2.3719                 2.1726                 3.9530

                     19                     20                     21
                      A                      A                      A
 Frequencies --    270.6302               293.2565               299.6859
 Red. masses --      2.4875                 4.0157                 4.6262
 Frc consts  --      0.1073                 0.2035                 0.2448
 IR Inten    --      1.0201                 0.1312                 3.9238

                     22                     23                     24
                      A                      A                      A
 Frequencies --    329.3730               353.6985               369.0743
 Red. masses --      2.7339                 3.3681                 4.5632
 Frc consts  --      0.1747                 0.2483                 0.3662
 IR Inten    --      7.0921                12.6016                 9.2894

                     25                     26                     27
                      A                      A                      A
 Frequencies --    404.0503               432.3230               453.6694
 Red. masses --      5.6928                 3.4054                 4.0163
 Frc consts  --      0.5476                 0.3750                 0.4870
 IR Inten    --      0.9657                 9.0076                 9.8623

                     28                     29                     30
                      A                      A                      A
 Frequencies --    467.1360               503.0991               527.1352
 Red. masses --      3.6891                 4.8091                 4.5493
 Frc consts  --      0.4743                 0.7172                 0.7448
 IR Inten    --      3.1164                 6.1662                 4.1046

                     31                     32                     33
                      A                      A                      A
 Frequencies --    613.1814               683.7177               730.1516
 Red. masses --      5.2943                 5.0702                 4.6786
 Frc consts  --      1.1728                 1.3965                 1.4696
 IR Inten    --      1.2128                26.9650                 9.5114

                     34                     35                     36
                      A                      A                      A
 Frequencies --    750.2254               759.2907               791.9012
 Red. masses --      3.0593                 3.6870                 2.2565
 Frc consts  --      1.0145                 1.2524                 0.8337
 IR Inten    --      6.9789                20.0616                 4.2561

                     37                     38                     39
                      A                      A                      A
 Frequencies --    797.7852               802.8974               832.3152
 Red. masses --      1.9752                 1.8715                 1.6821
 Frc consts  --      0.7407                 0.7108                 0.6866
 IR Inten    --     11.1244                22.9760                 5.9133

                     40                     41                     42
                      A                      A                      A
 Frequencies --    842.5946               873.0420               881.4704
 Red. masses --      2.3106                 2.8941                 1.7804
 Frc consts  --      0.9665                 1.2997                 0.8150
 IR Inten    --     30.4136                 8.9282                 0.7573

                     43                     44                     45
                      A                      A                      A
 Frequencies --    892.5772               908.0622               962.8165
 Red. masses --      2.8941                 2.7045                 1.5024
 Frc consts  --      1.3585                 1.3139                 0.8206
 IR Inten    --      2.1589                 3.6533                 2.7155

                     46                     47                     48
                      A                      A                      A
 Frequencies --    977.0365              1011.9081              1023.8996
 Red. masses --      2.0647                 2.9112                 1.1568
 Frc consts  --      1.1613                 1.7563                 0.7145
 IR Inten    --     92.1936                17.3844                36.4222

                     49                     50                     51
                      A                      A                      A
 Frequencies --   1053.7811              1072.1818              1092.9444
 Red. masses --      4.0022                 2.4361                 4.8398
 Frc consts  --      2.6185                 1.6500                 3.4062
 IR Inten    --     26.3696               168.3107               269.9656

                     52                     53                     54
                      A                      A                      A
 Frequencies --   1107.3840              1132.5128              1133.8851
 Red. masses --      1.7009                 1.9633                 2.0303
 Frc consts  --      1.2289                 1.4837                 1.5380
 IR Inten    --      6.8141                39.9118               104.8805

                     55                     56                     57
                      A                      A                      A
 Frequencies --   1180.2355              1196.7011              1208.0923
 Red. masses --      5.6960                 2.6578                 1.7792
 Frc consts  --      4.6747                 2.2426                 1.5299
 IR Inten    --    387.6501               132.1621                22.7758

                     58                     59                     60
                      A                      A                      A
 Frequencies --   1211.5194              1223.1765              1256.3844
 Red. masses --      1.8316                 3.0196                 4.5455
 Frc consts  --      1.5839                 2.6618                 4.2274
 IR Inten    --     32.5044               557.1758               443.7666

                     61                     62                     63
                      A                      A                      A
 Frequencies --   1282.5490              1306.7947              1313.0606
 Red. masses --      2.0093                 1.3671                 1.5337
 Frc consts  --      1.9474                 1.3755                 1.5580
 IR Inten    --    584.9076                77.9565                10.7771

                     64                     65                     66
                      A                      A                      A
 Frequencies --   1343.5368              1343.9308              1365.6862
 Red. masses --      1.1308                 1.1187                 1.5242
 Frc consts  --      1.2026                 1.1904                 1.6749
 IR Inten    --     23.2552                 9.7920                 8.6220

                     67                     68                     69
                      A                      A                      A
 Frequencies --   1394.1122              1414.4076              1419.9597
 Red. masses --      1.6125                 1.2429                 1.2784
 Frc consts  --      1.8464                 1.4650                 1.5187
 IR Inten    --     95.4804                 7.9520                 5.5929

                     70                     71                     72
                      A                      A                      A
 Frequencies --   1431.7084              1438.7351              1443.8308
 Red. masses --      1.4620                 1.2188                 1.3215
 Frc consts  --      1.7657                 1.4864                 1.6232
 IR Inten    --     46.6081                 8.2503                10.0062

                     73                     74                     75
                      A                      A                      A
 Frequencies --   1446.5117              1504.7268              1514.8639
 Red. masses --      1.4840                 1.0810                 1.0578
 Frc consts  --      1.8294                 1.4422                 1.4302
 IR Inten    --     10.8319                 3.8407                17.0736

                     76                     77                     78
                      A                      A                      A
 Frequencies --   1515.8053              1518.0341              1518.8879
 Red. masses --      1.0541                 1.0744                 1.0793
 Frc consts  --      1.4270                 1.4588                 1.4670
 IR Inten    --      8.7222                 4.7050                 5.2816

                     79                     80                     81
                      A                      A                      A
 Frequencies --   1529.2922              1538.1348              1538.9019
 Red. masses --      1.0394                 1.0586                 1.0557
 Frc consts  --      1.4322                 1.4756                 1.4730
 IR Inten    --      8.7941                12.9653                 6.5458

                     82                     83                     84
                      A                      A                      A
 Frequencies --   1539.2805              1654.9752              1679.2620
 Red. masses --      1.0571                 7.6011                 4.7543
 Frc consts  --      1.4758                12.2662                 7.8990
 IR Inten    --      6.3320                18.3389               414.0481

                     85                     86                     87
                      A                      A                      A
 Frequencies --   1785.7537              1800.1626              1854.0602
 Red. masses --     11.3219                11.5989                11.6235
 Frc consts  --     21.2722                22.1457                23.5415
 IR Inten    --    149.6269               314.6128               147.5208

                     88                     89                     90
                      A                      A                      A
 Frequencies --   3060.8512              3061.2892              3064.7738
 Red. masses --      1.0364                 1.0366                 1.0374
 Frc consts  --      5.7209                 5.7238                 5.7410
 IR Inten    --     17.9889                21.1433                18.7611

                     91                     92                     93
                      A                      A                      A
 Frequencies --   3070.7515              3091.0744              3096.0646
 Red. masses --      1.0626                 1.0586                 1.0592
 Frc consts  --      5.9034                 5.9596                 5.9823
 IR Inten    --     13.6347                31.2460                26.9110

                     94                     95                     96
                      A                      A                      A
 Frequencies --   3126.1558              3126.7921              3129.8044
 Red. masses --      1.1023                 1.1009                 1.0998
 Frc consts  --      6.3472                 6.3414                 6.3473
 IR Inten    --     26.7593                30.2094                 9.1975

                     97                     98                     99
                      A                      A                      A
 Frequencies --   3136.5537              3139.8324              3141.4658
 Red. masses --      1.1038                 1.1047                 1.1046
 Frc consts  --      6.3982                 6.4169                 6.4224
 IR Inten    --     17.3324                10.7855                 5.6698

                    100                    101                    102
                      A                      A                      A
 Frequencies --   3152.6038              3159.9600              3161.1300
 Red. masses --      1.1024                 1.1059                 1.1075
 Frc consts  --      6.4553                 6.5064                 6.5204
 IR Inten    --     29.9023                23.8280                28.8881

                    103                    104                    105
                      A                      A                      A
 Frequencies --   3188.5266              3206.5719              3307.1577
 Red. masses --      1.0881                 1.0918                 1.0909
 Frc consts  --      6.5179                 6.6140                 7.0299
 IR Inten    --      1.7117                13.7555                12.7558

 - Thermochemistry -
 -------------------
 Temperature   298.150 Kelvin.  Pressure   1.00000 Atm.
 Atom     1 has atomic number  6 and mass  12.00000

 Molecular mass:   270.11034 amu.
 Principal axes and moments of inertia in atomic units:
                           1         2         3
     Eigenvalues --  3741.79586********************
           X            1.00000   0.00063  -0.00180
           Y           -0.00062   0.99999   0.00397
           Z            0.00180  -0.00397   0.99999
 This molecule is an asymmetric top.
 Rotational symmetry number  1.
 Warning -- assumption of classical behavior for rotation
           may cause significant error
 Rotational temperatures (Kelvin)      0.02315     0.00803     0.00632
 Rotational constants (GHZ):           0.48232     0.16722     0.13163
 Zero-point vibrational energy     793222.6 (Joules/Mol)
                                  189.58474 (Kcal/Mol)
 Warning -- explicit consideration of  31 degrees of freedom as
           vibrations may cause significant error
 Vibrational temperatures:     25.00    30.02    46.18    49.84    67.56
          (Kelvin)             79.81   101.58   106.07   137.38   162.04
                              166.25   195.17   236.27   267.40   289.60
                              317.10   335.19   338.95   389.38   421.93
                              431.18   473.89   508.89   531.02   581.34
                              622.02   652.73   672.10   723.85   758.43
                              882.23   983.72  1050.53  1079.41  1092.45
                             1139.37  1147.83  1155.19  1197.52  1212.31
                             1256.11  1268.24  1284.22  1306.50  1385.28
                             1405.74  1455.91  1473.16  1516.16  1542.63
                             1572.50  1593.28  1629.43  1631.41  1698.10
                             1721.79  1738.18  1743.11  1759.88  1807.66
                             1845.30  1880.19  1889.20  1933.05  1933.62
                             1964.92  2005.82  2035.02  2043.01  2059.91
                             2070.02  2077.35  2081.21  2164.97  2179.55
                             2180.91  2184.11  2185.34  2200.31  2213.03
                             2214.14  2214.68  2381.14  2416.08  2569.30
                             2590.03  2667.58  4403.88  4404.51  4409.53
                             4418.13  4447.37  4454.55  4497.84  4498.76
                             4503.09  4512.80  4517.52  4519.87  4535.89
                             4546.48  4548.16  4587.58  4613.54  4758.26

 Zero-point correction=                           0.302123 (Hartree/Particle)
 Thermal correction to Energy=                    0.323502
 Thermal correction to Enthalpy=                  0.324446
 Thermal correction to Gibbs Free Energy=         0.247407
 Sum of electronic and zero-point Energies=           -957.328529
 Sum of electronic and thermal Energies=              -957.307150
 Sum of electronic and thermal Enthalpies=            -957.306205
 Sum of electronic and thermal Free Energies=         -957.383245

                     E (Thermal)             CV                S
                      KCal/Mol        Cal/Mol-Kelvin    Cal/Mol-Kelvin
 Total                  203.001             74.271            162.144
 Electronic               0.000              0.000              0.000
 Translational            0.889              2.981             42.680
 Rotational               0.889              2.981             34.670
 Vibrational            201.223             68.310             84.794
 Vibration     1          0.593              1.986              6.914
 Vibration     2          0.593              1.986              6.550
 Vibration     3          0.594              1.983              5.695
 Vibration     4          0.594              1.983              5.544
 Vibration     5          0.595              1.979              4.942
 Vibration     6          0.596              1.975              4.612
 Vibration     7          0.598              1.968              4.137
 Vibration     8          0.599              1.966              4.051
 Vibration     9          0.603              1.952              3.544
 Vibration    10          0.607              1.939              3.223
 Vibration    11          0.608              1.937              3.173
 Vibration    12          0.613              1.918              2.864
 Vibration    13          0.623              1.886              2.501
 Vibration    14          0.632              1.859              2.269
 Vibration    15          0.638              1.838              2.121
 Vibration    16          0.647              1.810              1.956
 Vibration    17          0.654              1.790              1.856
 Vibration    18          0.655              1.786              1.836
 Vibration    19          0.674              1.727              1.592
 Vibration    20          0.688              1.686              1.455
 Vibration    21          0.692              1.674              1.419
 Vibration    22          0.712              1.617              1.263
 Vibration    23          0.730              1.568              1.150
 Vibration    24          0.741              1.536              1.084
 Vibration    25          0.769              1.461              0.948
 Vibration    26          0.793              1.400              0.851
 Vibration    27          0.812              1.353              0.785
 Vibration    28          0.824              1.323              0.746
 Vibration    29          0.858              1.243              0.650
 Vibration    30          0.882              1.190              0.594
 Vibration    31          0.972              1.004              0.428

 Optimization completed.
    -- Stationary point found.
 Normal termination of Gaussian 16 at Mon Dec 14 13:56:06 2020.

 ----------------------------------------------------------------------
 # B3LYP/6-311++G(d,p) empiricaldispersion=gd3bj scf=xqc pop=npa geom=c
 heck
 ----------------------------------------------------------------------

 --------------------------------------
 CID_73733281_JID_9597_Energie_neutraal
 --------------------------------------
 Structure from the checkpoint file:  "JID_9597.chk"
 Charge =  0 Multiplicity = 1

 SCF Done:  E(RB3LYP) =  -957.911085355     A.U. after   16 cycles
 Normal termination of Gaussian 16 at Mon Dec 14 14:03:42 2020.

 ----------------------------------------------------------------------
 # B3LYP/6-311++G(d,p) empiricaldispersion=gd3bj scf=xqc pop=npa geom=c
 heck
 ----------------------------------------------------------------------

 ------------------------------------
 CID_73733281_JID_9597_Energie_kation
 ------------------------------------
 Structure from the checkpoint file:  "JID_9597.chk"
 Charge =  1 Multiplicity = 2

 SCF Done:  E(UB3LYP) =  -957.601004448     A.U. after   29 cycles
 Normal termination of Gaussian 16 at Mon Dec 14 14:23:00 2020.
 Gaussian 16:  ES64L-G16RevA.03 25-Dec-2016

 ----------------------------------------------------------------------
 # B3LYP/6-311++G(d,p) empiricaldispersion=gd3bj scf=xqc pop=npa geom=c
 heck
 ----------------------------------------------------------------------

 -----------------------------------
 CID_73733281_JID_9597_Energie_anion
 -----------------------------------
 Structure from the checkpoint file:  "JID_9597.chk"
 Charge = -1 Multiplicity = 2

                         Standard orientation:
 ---------------------------------------------------------------------
 Center     Atomic      Atomic             Coordinates (Angstroms)
 Number     Number       Type             X           Y           Z
 ---------------------------------------------------------------------
      1          6           0        6.137581   -1.007834    1.089746
      2          6           0        5.659987   -0.264869   -0.168766
      3          6           0        4.166607   -0.039857   -0.169603
      4          8           0        3.602997    1.021507   -0.104451
      5          8           0        3.521627   -1.260730   -0.233739
      6          6           0        2.160845   -1.407141   -0.234353
      7          6           0        1.192848   -0.474683   -0.332757
      8          6           0       -0.176653   -0.925510   -0.311890
      9          6           0       -1.294655   -0.157548   -0.385107
     10          6           0       -2.642864   -0.783871   -0.407882
     11          8           0       -3.642206   -0.252827   -0.848299
     12          8           0       -2.625117   -2.049993    0.083664
     13          6           0       -3.879691   -2.765139    0.029892
     14          6           0       -4.764643   -2.411420    1.214382
     15          6           0       -1.214056    1.328505   -0.502043
     16          8           0       -0.340370    1.929355   -1.099783
     17          8           0       -2.202587    1.929595    0.183651
     18          6           0       -2.230420    3.374090    0.133067
     19          6           0       -1.285533    3.978350    1.159692
     20          1           0        5.880402   -0.448968    1.995540
     21          1           0        7.224679   -1.129829    1.064264
     22          1           0        5.680678   -1.999035    1.155257
     23          1           0        6.128452    0.719023   -0.245852
     24          1           0        5.923065   -0.843272   -1.062278
     25          1           0        1.927857   -2.465265   -0.156163
     26          1           0        1.413614    0.575968   -0.434922
     27          1           0       -0.335222   -1.996554   -0.210539
     28          1           0       -4.376459   -2.536224   -0.916020
     29          1           0       -3.590312   -3.818853    0.043965
     30          1           0       -5.051091   -1.357596    1.172443
     31          1           0       -5.675784   -3.020185    1.194582
     32          1           0       -4.242352   -2.601067    2.157703
     33          1           0       -1.973367    3.695192   -0.879094
     34          1           0       -3.271932    3.627616    0.342305
     35          1           0       -0.249734    3.723455    0.921194
     36          1           0       -1.382790    5.069978    1.158748
     37          1           0       -1.520573    3.611910    2.164278
 ---------------------------------------------------------------------

 SCF Done:  E(UB3LYP) =  -957.938347068     A.U. after   26 cycles

 The electronic state is 2-A.
 Alpha  occ. eigenvalues --  -19.05461 -19.02858 -19.02588 -18.98863 -18.95941
 Alpha  occ. eigenvalues --  -18.95377 -10.17406 -10.15035 -10.14532 -10.11821
 Alpha  occ. eigenvalues --  -10.11214 -10.08632 -10.08123 -10.07767 -10.06664
 Alpha  occ. eigenvalues --  -10.06079 -10.02129 -10.01885 -10.01798  -0.98615
 Alpha  occ. eigenvalues --   -0.96859  -0.96329  -0.90858  -0.87515  -0.87250
 Alpha  occ. eigenvalues --   -0.69619  -0.67936  -0.66085  -0.65496  -0.61814
 Alpha  occ. eigenvalues --   -0.57342  -0.54997  -0.54108  -0.51915  -0.46490
 Alpha  occ. eigenvalues --   -0.44873  -0.41993  -0.41317  -0.39844  -0.37901
 Alpha  occ. eigenvalues --   -0.36815  -0.36067  -0.35472  -0.35051  -0.34422
 Alpha  occ. eigenvalues --   -0.34035  -0.33168  -0.32889  -0.32449  -0.31120
 Alpha  occ. eigenvalues --   -0.30048  -0.29221  -0.28920  -0.28772  -0.28171
 Alpha  occ. eigenvalues --   -0.27577  -0.26616  -0.26435  -0.25771  -0.24740
 Alpha  occ. eigenvalues --   -0.24357  -0.23562  -0.23281  -0.22081  -0.21675
 Alpha  occ. eigenvalues --   -0.17761  -0.17426  -0.17037  -0.15466  -0.13722
 Alpha  occ. eigenvalues --   -0.12891  -0.09129   0.02828
 Alpha virt. eigenvalues --    0.06319   0.07353   0.08049   0.08969   0.09455
 Alpha virt. eigenvalues --    0.09835   0.10135   0.10623   0.10700   0.11127
 Alpha virt. eigenvalues --    0.11247   0.12239   0.12340   0.13103   0.13252

  Beta  occ. eigenvalues --  -19.05525 -19.02838 -19.02553 -18.98674 -18.95864
  Beta  occ. eigenvalues --  -18.95199 -10.17223 -10.14972 -10.14436 -10.11822
  Beta  occ. eigenvalues --  -10.11211 -10.08649 -10.08100 -10.07273 -10.06660
  Beta  occ. eigenvalues --  -10.06076 -10.01886 -10.01776 -10.01671  -0.98421
  Beta  occ. eigenvalues --   -0.96741  -0.96222  -0.90599  -0.87366  -0.87016
  Beta  occ. eigenvalues --   -0.69430  -0.67595  -0.66052  -0.65174  -0.61360
  Beta  occ. eigenvalues --   -0.57087  -0.54929  -0.53878  -0.51771  -0.46034
  Beta  occ. eigenvalues --   -0.44719  -0.41841  -0.41054  -0.39717  -0.37749
  Beta  occ. eigenvalues --   -0.36644  -0.35984  -0.35314  -0.34620  -0.34290
  Beta  occ. eigenvalues --   -0.33804  -0.32991  -0.32653  -0.32292  -0.30970
  Beta  occ. eigenvalues --   -0.29908  -0.29130  -0.28818  -0.28601  -0.28016
  Beta  occ. eigenvalues --   -0.27312  -0.26525  -0.26264  -0.25513  -0.24550
  Beta  occ. eigenvalues --   -0.24187  -0.23361  -0.22378  -0.21992  -0.21551
  Beta  occ. eigenvalues --   -0.17284  -0.16663  -0.16096  -0.15236  -0.13462
  Beta  occ. eigenvalues --   -0.12720  -0.07450
  Beta virt. eigenvalues --    0.06252   0.07289   0.07981   0.08786   0.09140
  Beta virt. eigenvalues --    0.09428   0.09787   0.10135   0.10608   0.10667
  Beta virt. eigenvalues --    0.11109   0.12163   0.12269   0.12852   0.13108

 Mulliken charges and spin densities:
               1          2
     1  C   -0.361815  -0.063851
     2  C   -0.482428   0.077493
     3  C    0.153285   0.013877
     4  O   -0.276553   0.066967
     5  O   -0.048473  -0.035358
     6  C   -0.511972   0.323669
     7  C    0.493566  -0.069793
     8  C   -0.628583   0.340743
     9  C    1.571102   0.092674
    10  C   -0.612231   0.054751
    11  O   -0.305983   0.060708
    12  O    0.022763  -0.000015
    13  C   -0.206961   0.007247
    14  C   -0.309365  -0.020487
    15  C   -1.293947   0.031715
    16  O   -0.265033   0.023595
    17  O    0.058378   0.009949
    18  C   -0.171227   0.003643
    19  C   -0.354221  -0.013427
    20  H    0.134926   0.003100
    21  H    0.057373   0.076306
    22  H    0.156831  -0.002585
    23  H    0.146805   0.005765
    24  H    0.134952   0.026127
    25  H    0.132405  -0.024255
    26  H    0.263441  -0.000457
    27  H    0.117461  -0.021735
    28  H    0.161302  -0.001527
    29  H    0.125120   0.002684
    30  H    0.174268   0.006868
    31  H    0.104645   0.005010
    32  H    0.120897   0.004511
    33  H    0.155899   0.003388
    34  H    0.133725   0.003488
    35  H    0.183883   0.002012
    36  H    0.104409   0.002611
    37  H    0.121353   0.004589
 Sum of Mulliken charges =  -1.00000   1.00000

 Dipole moment (field-independent basis, Debye):
    X=              0.5213    Y=             -1.7674    Z=              2.6966  Tot=              3.2660
 Quadrupole moment (field-independent basis, Debye-Ang):
   XX=           -157.3476   YY=           -123.5971   ZZ=           -124.2024
   XY=             -1.4212   XZ=             -4.1712   YZ=              3.4561

 Summary of Natural Population Analysis:

                                       Natural Population
                Natural  -----------------------------------------------
    Atom  No    Charge         Core      Valence    Rydberg      Total
 -----------------------------------------------------------------------
      C    1   -0.28123      0.99967     2.27711    0.00445     3.28123
      C    2   -0.23438      0.99961     2.22764    0.00714     3.23438
      C    3    0.42508      0.99969     1.55150    0.02374     2.57492
      O    4   -0.27562      0.99987     3.26948    0.00627     4.27562
      O    5   -0.28878      0.99985     3.28021    0.00872     4.28878
      C    6    0.18431      0.99945     1.80356    0.01268     2.81569
      C    7   -0.17781      0.99952     2.16968    0.00861     3.17781
      C    8    0.04103      0.99952     1.95111    0.00834     2.95897
      C    9   -0.12453      0.99938     2.11401    0.01114     3.12453
      C   10    0.40989      0.99964     1.56624    0.02423     2.59011
      O   11   -0.30961      0.99987     3.30350    0.00624     4.30961
      O   12   -0.29161      0.99986     3.28217    0.00958     4.29161
      C   13   -0.01574      0.99960     2.00550    0.01065     3.01574
      C   14   -0.29942      0.99967     2.29558    0.00417     3.29942
      C   15    0.41435      0.99965     1.56178    0.02422     2.58565
      O   16   -0.31817      0.99987     3.31202    0.00628     4.31817
      O   17   -0.27567      0.99986     3.26640    0.00941     4.27567
      C   18   -0.01622      0.99960     2.00614    0.01048     3.01622
      C   19   -0.29986      0.99967     2.29609    0.00410     3.29986
      H   20    0.09782      0.00000     0.40106    0.00112     0.40218
      H   21    0.09261      0.00000     0.40605    0.00134     0.40739
      H   22    0.10291      0.00000     0.39583    0.00126     0.39709
      H   23    0.10185      0.00000     0.39616    0.00199     0.39815
      H   24    0.10453      0.00000     0.39393    0.00154     0.39547
      H   25    0.07110      0.00000     0.42762    0.00128     0.42890
      H   26    0.12541      0.00000     0.37321    0.00139     0.37459
      H   27    0.09029      0.00000     0.40849    0.00122     0.40971
      H   28    0.09221      0.00000     0.40622    0.00157     0.40779
      H   29    0.08135      0.00000     0.41750    0.00115     0.41865
      H   30    0.10976      0.00000     0.38907    0.00117     0.39024
      H   31    0.09202      0.00000     0.40708    0.00090     0.40798
      H   32    0.09690      0.00000     0.40211    0.00099     0.40310
      H   33    0.09230      0.00000     0.40623    0.00147     0.40770
      H   34    0.08316      0.00000     0.41570    0.00114     0.41684
      H   35    0.11095      0.00000     0.38789    0.00116     0.38905
      H   36    0.09220      0.00000     0.40692    0.00089     0.40780
      H   37    0.09663      0.00000     0.40238    0.00098     0.40337
 =======================================================================
   * Total *   -0.00000     18.99383    52.78315    0.22302    72.00000

 Normal termination of Gaussian 16 at Mon Dec 14 14:41:08 2020.
