 Gaussian 16, Revision A.03,

 -----------------------------------------------------------
 # opt freq B3LYP/6-31G(d) empiricaldispersion=gd3bj scf=xqc
 -----------------------------------------------------------

 -------------------------------
 CID_130062440_JID_3528_neutraal
 -------------------------------
 Symbolic Z-matrix:
 Charge =  0 Multiplicity = 1

 SCF Done:  E(RB3LYP) =  -631.219451164     A.U. after   14 cycles
 SCF Done:  E(RB3LYP) =  -631.221874533     A.U. after   12 cycles
 SCF Done:  E(RB3LYP) =  -631.222136255     A.U. after   10 cycles
 SCF Done:  E(RB3LYP) =  -631.222186181     A.U. after   10 cycles
 SCF Done:  E(RB3LYP) =  -631.222209554     A.U. after   10 cycles
 SCF Done:  E(RB3LYP) =  -631.222212852     A.U. after    8 cycles
 SCF Done:  E(RB3LYP) =  -631.222215279     A.U. after    8 cycles
 SCF Done:  E(RB3LYP) =  -631.222216631     A.U. after    8 cycles
 SCF Done:  E(RB3LYP) =  -631.222217295     A.U. after    8 cycles
 Optimization completed.
    -- Stationary point found.
 Normal termination of Gaussian 16 at Wed Dec  9 23:32:51 2020.

 --------------------------------------------------------------------
 #N Geom=AllCheck Guess=TCheck SCRF=Check GenChk RB3LYP/6-31G(d) Freq
 --------------------------------------------------------------------

 Structure from the checkpoint file:  "JID_3528.chk"
 -------------------------------
 CID_130062440_JID_3528_neutraal
 -------------------------------
 Charge =  0 Multiplicity = 1

 SCF Done:  E(RB3LYP) =  -631.222217295     A.U. after    1 cycles

  Exact polarizability: 153.108  -1.859 116.191   0.786  -0.436  66.144
 Approx polarizability: 216.550   8.821 196.568   3.619  -1.686  94.333

                      1                      2                      3
                      A                      A                      A
 Frequencies --     51.5115                71.2326               103.0373
 Red. masses --      3.2211                 3.3926                 4.6538
 Frc consts  --      0.0050                 0.0101                 0.0291
 IR Inten    --      1.8231                 0.1309                 0.9119

                      4                      5                      6
                      A                      A                      A
 Frequencies --    171.0413               174.4422               212.6538
 Red. masses --      4.3171                 3.4838                 1.6677
 Frc consts  --      0.0744                 0.0625                 0.0444
 IR Inten    --      0.3378                 0.1458                 0.0319

                      7                      8                      9
                      A                      A                      A
 Frequencies --    224.0341               250.2180               264.6446
 Red. masses --      3.0179                 1.2296                 1.1816
 Frc consts  --      0.0892                 0.0454                 0.0488
 IR Inten    --      2.1602                 1.6634                98.8284

                     10                     11                     12
                      A                      A                      A
 Frequencies --    275.6233               286.8987               320.7347
 Red. masses --      2.0724                 2.6875                 1.3897
 Frc consts  --      0.0928                 0.1303                 0.0842
 IR Inten    --      5.5449                 3.1866                31.4604

                     13                     14                     15
                      A                      A                      A
 Frequencies --    325.6470               327.0304               410.6355
 Red. masses --      3.8057                 2.8928                 3.7559
 Frc consts  --      0.2378                 0.1823                 0.3731
 IR Inten    --      2.2637                 3.4871                12.7078

                     16                     17                     18
                      A                      A                      A
 Frequencies --    415.1235               446.3962               464.6675
 Red. masses --      1.1820                 3.5781                 3.3030
 Frc consts  --      0.1200                 0.4201                 0.4202
 IR Inten    --     98.5032                16.1898                13.9495

                     19                     20                     21
                      A                      A                      A
 Frequencies --    481.9960               495.4295               543.7330
 Red. masses --      5.3532                 3.4895                 4.9508
 Frc consts  --      0.7327                 0.5046                 0.8624
 IR Inten    --      3.1730                 3.4702                 5.6306

                     22                     23                     24
                      A                      A                      A
 Frequencies --    633.9116               668.9252               707.5669
 Red. masses --      4.3665                 6.6459                 3.6233
 Frc consts  --      1.0338                 1.7521                 1.0688
 IR Inten    --     12.0876                 0.0622                 4.8954

                     25                     26                     27
                      A                      A                      A
 Frequencies --    719.6995               753.7121               787.8727
 Red. masses --      4.0890                 6.4799                 1.4579
 Frc consts  --      1.2479                 2.1689                 0.5332
 IR Inten    --      8.2895                 3.3477                25.4226

                     28                     29                     30
                      A                      A                      A
 Frequencies --    854.8214               890.4995               920.8566
 Red. masses --      4.2358                 1.3698                 2.4266
 Frc consts  --      1.8237                 0.6400                 1.2124
 IR Inten    --     81.0346                12.7079                22.5058

                     31                     32                     33
                      A                      A                      A
 Frequencies --    947.0047              1028.2864              1044.3760
 Red. masses --      1.6178                 1.4703                 2.1819
 Frc consts  --      0.8548                 0.9160                 1.4022
 IR Inten    --    183.9383                 7.6686                50.6236

                     34                     35                     36
                      A                      A                      A
 Frequencies --   1081.9793              1148.9656              1165.9006
 Red. masses --      2.4889                 2.9367                 2.3662
 Frc consts  --      1.7167                 2.2841                 1.8950
 IR Inten    --     39.2205               157.8642                76.1810

                     37                     38                     39
                      A                      A                      A
 Frequencies --   1187.7244              1194.0663              1212.2655
 Red. masses --      1.2656                 1.7398                 1.4032
 Frc consts  --      1.0519                 1.4616                 1.2150
 IR Inten    --      0.6595                97.9076                57.8871

                     40                     41                     42
                      A                      A                      A
 Frequencies --   1236.8791              1247.6783              1281.4173
 Red. masses --      1.7882                 1.4293                 1.6699
 Frc consts  --      1.6118                 1.3110                 1.6155
 IR Inten    --     76.5439                25.8832                18.5266

                     43                     44                     45
                      A                      A                      A
 Frequencies --   1289.2751              1326.3194              1352.6635
 Red. masses --      3.1429                 1.8717                 2.7893
 Frc consts  --      3.0780                 1.9400                 3.0069
 IR Inten    --     74.1653               174.8801                85.2544

                     46                     47                     48
                      A                      A                      A
 Frequencies --   1370.6120              1419.6441              1428.6224
 Red. masses --      1.8596                 1.4693                 1.6875
 Frc consts  --      2.0582                 1.7447                 2.0292
 IR Inten    --     73.9272                17.1558                35.0500

                     49                     50                     51
                      A                      A                      A
 Frequencies --   1438.0818              1501.7828              1505.7424
 Red. masses --      1.3908                 1.9610                 1.5921
 Frc consts  --      1.6947                 2.6059                 2.1268
 IR Inten    --     21.2720                 5.0803                67.4510

                     52                     53                     54
                      A                      A                      A
 Frequencies --   1518.6606              1519.5686              1535.9074
 Red. masses --      1.0478                 1.0529                 1.0570
 Frc consts  --      1.4238                 1.4324                 1.4691
 IR Inten    --      6.0617                 2.5457                 7.5580

                     55                     56                     57
                      A                      A                      A
 Frequencies --   1537.6111              1573.7427              1665.7180
 Red. masses --      1.0850                 3.2270                 7.0868
 Frc consts  --      1.5114                 4.7089                11.5852
 IR Inten    --     29.9818               206.3549                 8.4761

                     58                     59                     60
                      A                      A                      A
 Frequencies --   1687.8174              1708.1779              3027.8378
 Red. masses --      6.3917                 1.0885                 1.0344
 Frc consts  --     10.7280                 1.8713                 5.5875
 IR Inten    --     32.1373                19.3396                53.9824

                     61                     62                     63
                      A                      A                      A
 Frequencies --   3043.3166              3059.9621              3087.1983
 Red. masses --      1.0852                 1.0343                 1.1069
 Frc consts  --      5.9216                 5.7061                 6.2156
 IR Inten    --     29.0448                25.1546                41.4158

                     64                     65                     66
                      A                      A                      A
 Frequencies --   3131.7367              3139.2898              3161.8418
 Red. masses --      1.1029                 1.1029                 1.1001
 Frc consts  --      6.3733                 6.4038                 6.4796
 IR Inten    --     28.7158                24.6536                23.3847

                     67                     68                     69
                      A                      A                      A
 Frequencies --   3194.1819              3200.8348              3460.8252
 Red. masses --      1.0894                 1.0901                 1.0502
 Frc consts  --      6.5487                 6.5804                 7.4109
 IR Inten    --     14.2103                 4.1622                 2.6763

                     70                     71                     72
                      A                      A                      A
 Frequencies --   3546.1821              3712.7699              3760.3751
 Red. masses --      1.0906                 1.0648                 1.0661
 Frc consts  --      8.0807                 8.6480                 8.8817
 IR Inten    --      1.5090                76.3294                33.5576

 - Thermochemistry -
 -------------------
 Temperature   298.150 Kelvin.  Pressure   1.00000 Atm.
 Atom     1 has atomic number  6 and mass  12.00000

 Molecular mass:   183.08954 amu.
 Principal axes and moments of inertia in atomic units:
                           1         2         3
     Eigenvalues --  1221.589163661.442244499.66649
           X            0.99966  -0.02557  -0.00556
           Y            0.02559   0.99967   0.00230
           Z            0.00550  -0.00244   0.99998
 This molecule is an asymmetric top.
 Rotational symmetry number  1.
 Warning -- assumption of classical behavior for rotation
           may cause significant error
 Rotational temperatures (Kelvin)      0.07090     0.02366     0.01925
 Rotational constants (GHZ):           1.47737     0.49290     0.40108
 Zero-point vibrational energy     567852.0 (Joules/Mol)
                                  135.71988 (Kcal/Mol)
 Warning -- explicit consideration of  21 degrees of freedom as
           vibrations may cause significant error
 Vibrational temperatures:     74.11   102.49   148.25   246.09   250.98
          (Kelvin)            305.96   322.34   360.01   380.76   396.56
                              412.78   461.47   468.53   470.52   590.81
                              597.27   642.26   668.55   693.48   712.81
                              782.31   912.06   962.43  1018.03  1035.49
                             1084.42  1133.57  1229.90  1281.23  1324.91
                             1362.53  1479.47  1502.62  1556.73  1653.11
                             1677.47  1708.87  1718.00  1744.18  1779.59
                             1795.13  1843.67  1854.98  1908.28  1946.18
                             1972.00  2042.55  2055.47  2069.08  2160.73
                             2166.43  2185.01  2186.32  2209.83  2212.28
                             2264.26  2396.60  2428.39  2457.69  4356.38
                             4378.65  4402.60  4441.79  4505.87  4516.74
                             4549.19  4595.72  4605.29  4979.36  5102.17
                             5341.85  5410.34

 Zero-point correction=                           0.216283 (Hartree/Particle)
 Thermal correction to Energy=                    0.229717
 Thermal correction to Enthalpy=                  0.230661
 Thermal correction to Gibbs Free Energy=         0.177134
 Sum of electronic and zero-point Energies=           -631.005934
 Sum of electronic and thermal Energies=              -630.992501
 Sum of electronic and thermal Enthalpies=            -630.991557
 Sum of electronic and thermal Free Energies=         -631.045083

                     E (Thermal)             CV                S
                      KCal/Mol        Cal/Mol-Kelvin    Cal/Mol-Kelvin
 Total                  144.149             51.149            112.655
 Electronic               0.000              0.000              0.000
 Translational            0.889              2.981             41.521
 Rotational               0.889              2.981             31.376
 Vibrational            142.372             45.187             39.758
 Vibration     1          0.596              1.977              4.758
 Vibration     2          0.598              1.968              4.119
 Vibration     3          0.605              1.947              3.396
 Vibration     4          0.626              1.878              2.424
 Vibration     5          0.627              1.874              2.387
 Vibration     6          0.644              1.822              2.021
 Vibration     7          0.649              1.804              1.926
 Vibration     8          0.663              1.762              1.729
 Vibration     9          0.671              1.738              1.631
 Vibration    10          0.677              1.718              1.561
 Vibration    11          0.684              1.698              1.492
 Vibration    12          0.706              1.634              1.306
 Vibration    13          0.710              1.624              1.282
 Vibration    14          0.711              1.621              1.275
 Vibration    15          0.775              1.447              0.924
 Vibration    16          0.779              1.437              0.909
 Vibration    17          0.806              1.369              0.807
 Vibration    18          0.822              1.328              0.753
 Vibration    19          0.838              1.290              0.705
 Vibration    20          0.851              1.260              0.670
 Vibration    21          0.899              1.153              0.557

                           ! Non-Optimized Parameters !
 Normal termination of Gaussian 16 at Wed Dec  9 23:39:35 2020.

 ----------------------------------------------------------------------
 # B3LYP/6-311++G(d,p) empiricaldispersion=gd3bj scf=xqc pop=npa geom=c
 heck
 ----------------------------------------------------------------------

 ---------------------------------------
 CID_130062440_JID_3528_Energie_neutraal
 ---------------------------------------
 Structure from the checkpoint file:  "JID_3528.chk"
 Charge =  0 Multiplicity = 1

 SCF Done:  E(RB3LYP) =  -631.424398084     A.U. after   15 cycles
 Normal termination of Gaussian 16 at Wed Dec  9 23:42:40 2020.

 ----------------------------------------------------------------------
 # B3LYP/6-311++G(d,p) empiricaldispersion=gd3bj scf=xqc pop=npa geom=c
 heck
 ----------------------------------------------------------------------

 -------------------------------------
 CID_130062440_JID_3528_Energie_kation
 -------------------------------------
 Structure from the checkpoint file:  "JID_3528.chk"
 Charge =  1 Multiplicity = 2

 SCF Done:  E(UB3LYP) =  -631.152804284     A.U. after   26 cycles
 Normal termination of Gaussian 16 at Wed Dec  9 23:50:10 2020.
 Gaussian 16:  ES64L-G16RevA.03 25-Dec-2016

 ----------------------------------------------------------------------
 # B3LYP/6-311++G(d,p) empiricaldispersion=gd3bj scf=xqc pop=npa geom=c
 heck
 ----------------------------------------------------------------------

 ------------------------------------
 CID_130062440_JID_3528_Energie_anion
 ------------------------------------
 Structure from the checkpoint file:  "JID_3528.chk"
 Charge = -1 Multiplicity = 2

                         Standard orientation:
 ---------------------------------------------------------------------
 Center     Atomic      Atomic             Coordinates (Angstroms)
 Number     Number       Type             X           Y           Z
 ---------------------------------------------------------------------
      1          6           0       -3.259662    0.215004    1.257725
      2          6           0       -2.593651    0.601708   -0.068592
      3          6           0       -1.087467    0.359602   -0.040794
      4          6           0       -0.200068    1.442563   -0.056014
      5          6           0        1.178237    1.270128   -0.031481
      6          6           0        1.703421   -0.030586    0.004922
      7          6           0        0.846702   -1.129227    0.016226
      8          6           0       -0.537852   -0.928993   -0.005156
      9          8           0       -1.405632   -2.004092    0.003089
     10          8           0        3.076680   -0.084528    0.022932
     11          6           0        3.690956   -1.360639    0.058746
     12          8           0        2.011992    2.353594   -0.046533
     13          7           0       -3.307127   -0.055218   -1.176558
     14          1           0       -3.142005   -0.855547    1.451744
     15          1           0       -4.328673    0.445237    1.212968
     16          1           0       -2.808875    0.764498    2.090730
     17          1           0       -2.734841    1.680974   -0.209056
     18          1           0       -0.587601    2.456822   -0.085746
     19          1           0        1.242651   -2.140085    0.041756
     20          1           0       -0.888955   -2.822484    0.047094
     21          1           0        3.405557   -1.913859    0.963000
     22          1           0        3.427780   -1.953482   -0.827002
     23          1           0        4.767141   -1.180878    0.068129
     24          1           0        2.920634    2.007451   -0.027195
     25          1           0       -2.856492    0.202484   -2.054428
     26          1           0       -3.174449   -1.061765   -1.085479
 ---------------------------------------------------------------------

 SCF Done:  E(UB3LYP) =  -631.417904788     A.U. after   32 cycles

 The electronic state is 2-A.
 Alpha  occ. eigenvalues --  -19.06464 -19.05474 -19.04707 -14.19390 -10.13723
 Alpha  occ. eigenvalues --  -10.13237 -10.12928 -10.11946 -10.11062 -10.07623
 Alpha  occ. eigenvalues --  -10.07505 -10.07432 -10.06302  -0.98565  -0.95646
 Alpha  occ. eigenvalues --   -0.95557  -0.79474  -0.75095  -0.67144  -0.64347
 Alpha  occ. eigenvalues --   -0.63485  -0.59989  -0.53346  -0.51998  -0.49339
 Alpha  occ. eigenvalues --   -0.45971  -0.43535  -0.42600  -0.39247  -0.38656
 Alpha  occ. eigenvalues --   -0.37477  -0.35109  -0.34100  -0.34004  -0.32592
 Alpha  occ. eigenvalues --   -0.32125  -0.31085  -0.29937  -0.29011  -0.27750
 Alpha  occ. eigenvalues --   -0.27213  -0.25880  -0.25022  -0.24439  -0.24195
 Alpha  occ. eigenvalues --   -0.20176  -0.15654  -0.13979  -0.10171   0.04262
 Alpha virt. eigenvalues --    0.06819   0.07453   0.08560   0.08796   0.09119
 Alpha virt. eigenvalues --    0.09490   0.10523   0.10670   0.11374   0.11534
 Alpha virt. eigenvalues --    0.12377   0.13153   0.13304   0.14180   0.15471

  Beta  occ. eigenvalues --  -19.06453 -19.05472 -19.04643 -14.19382 -10.13722
  Beta  occ. eigenvalues --  -10.13236 -10.12928 -10.11876 -10.11061 -10.07622
  Beta  occ. eigenvalues --  -10.07501 -10.07391 -10.06296  -0.98548  -0.95635
  Beta  occ. eigenvalues --   -0.95435  -0.79460  -0.75075  -0.67118  -0.64304
  Beta  occ. eigenvalues --   -0.63455  -0.59925  -0.53286  -0.51944  -0.49313
  Beta  occ. eigenvalues --   -0.45930  -0.43471  -0.42543  -0.39229  -0.38619
  Beta  occ. eigenvalues --   -0.37440  -0.35054  -0.34071  -0.33965  -0.32547
  Beta  occ. eigenvalues --   -0.32100  -0.31063  -0.29912  -0.28963  -0.27738
  Beta  occ. eigenvalues --   -0.27195  -0.25862  -0.24969  -0.24407  -0.24164
  Beta  occ. eigenvalues --   -0.20153  -0.15641  -0.13960  -0.10158
  Beta virt. eigenvalues --    0.07020   0.07572   0.08275   0.08575   0.08929
  Beta virt. eigenvalues --    0.09360   0.09966   0.11055   0.11362   0.11711
  Beta virt. eigenvalues --    0.11951   0.12508   0.13067   0.13538   0.14350

 Mulliken charges and spin densities:
               1          2
     1  C   -0.425970  -0.187115
     2  C    0.493999  -0.801008
     3  C    3.303628  -1.802655
     4  C   -0.751198   0.263197
     5  C   -1.280846   0.479385
     6  C   -0.818935   0.686155
     7  C   -1.130587   1.288630
     8  C    1.075616  -1.585850
     9  O   -0.315894   0.079317
    10  O   -0.335354   0.079085
    11  C    1.517641  -1.849117
    12  O   -0.286844   0.010198
    13  N   -0.233546  -0.005184
    14  H    0.105092   0.074476
    15  H    0.116269   0.010794
    16  H    0.092176   0.031801
    17  H    0.187931  -0.012325
    18  H    0.103897   0.047092
    19  H   -0.648371   0.842692
    20  H   -0.609210   0.900845
    21  H   -0.429042   0.602635
    22  H   -0.455213   0.628664
    23  H   -0.877743   1.056537
    24  H    0.216626   0.072421
    25  H    0.160138   0.051913
    26  H    0.225740   0.037418
 Sum of Mulliken charges =  -1.00000   1.00000

 Dipole moment (field-independent basis, Debye):
    X=             -5.0654    Y=              8.4674    Z=             -0.0477  Tot=              9.8670
 Quadrupole moment (field-independent basis, Debye-Ang):
   XX=           -150.7735   YY=           -133.9499   ZZ=           -100.7618
   XY=             12.1419   XZ=             -2.4688   YZ=              1.0309

 Summary of Natural Population Analysis:

                                       Natural Population
                Natural  -----------------------------------------------
    Atom  No    Charge         Core      Valence    Rydberg      Total
 -----------------------------------------------------------------------
      C    1   -0.28671      0.99964     2.28201    0.00506     3.28671
      C    2   -0.01613      0.99959     2.00472    0.01182     3.01613
      C    3   -0.05621      0.99946     2.04414    0.01261     3.05621
      C    4   -0.11511      0.99950     2.10786    0.00775     3.11511
      C    5    0.12617      0.99935     1.85987    0.01462     2.87383
      C    6    0.13851      0.99936     1.84959    0.01255     2.86149
      C    7   -0.16286      0.99948     2.15256    0.01081     3.16286
      C    8    0.15754      0.99934     1.82921    0.01391     2.84246
      O    9   -0.35437      0.99988     3.34693    0.00756     4.35437
      O   10   -0.28681      0.99986     3.27603    0.01093     4.28681
      C   11   -0.09919      0.99960     2.09021    0.00937     3.09919
      O   12   -0.34641      0.99988     3.34005    0.00648     4.34641
      N   13   -0.42279      0.99978     2.91446    0.00855     3.92279
      H   14    0.10656      0.00000     0.39233    0.00111     0.39344
      H   15    0.09780      0.00000     0.40122    0.00098     0.40220
      H   16    0.09789      0.00000     0.40134    0.00077     0.40211
      H   17    0.08720      0.00000     0.41117    0.00163     0.41280
      H   18    0.10143      0.00000     0.39751    0.00105     0.39857
      H   19    0.11607      0.00000     0.37919    0.00475     0.38393
      H   20    0.24626      0.00000     0.23484    0.01890     0.25374
      H   21    0.08973      0.00000     0.40729    0.00298     0.41027
      H   22    0.08986      0.00000     0.40702    0.00312     0.41014
      H   23    0.09524      0.00000     0.40258    0.00219     0.40476
      H   24    0.24206      0.00000     0.25502    0.00291     0.25794
      H   25    0.17182      0.00000     0.32643    0.00175     0.32818
      H   26    0.18245      0.00000     0.31519    0.00236     0.31755
 =======================================================================
   * Total *   -0.00000     12.99471    35.82877    0.17652    49.00000

 Normal termination of Gaussian 16 at Wed Dec  9 23:59:28 2020.
