 Gaussian 16, Revision A.03,

 -----------------------------------------------------------
 # opt freq B3LYP/6-31G(d) empiricaldispersion=gd3bj scf=xqc
 -----------------------------------------------------------

 -------------------------------
 CID_149850437_JID_1383_neutraal
 -------------------------------
 Symbolic Z-matrix:
 Charge =  0 Multiplicity = 1

 SCF Done:  E(RB3LYP) =  -1238.06969285     A.U. after   14 cycles
 SCF Done:  E(RB3LYP) =  -1238.07598560     A.U. after   13 cycles
 SCF Done:  E(RB3LYP) =  -1238.07645852     A.U. after   12 cycles
 SCF Done:  E(RB3LYP) =  -1238.07680751     A.U. after   12 cycles
 SCF Done:  E(RB3LYP) =  -1238.07700047     A.U. after   10 cycles
 SCF Done:  E(RB3LYP) =  -1238.07703034     A.U. after   10 cycles
 SCF Done:  E(RB3LYP) =  -1238.07705760     A.U. after   10 cycles
 SCF Done:  E(RB3LYP) =  -1238.07707635     A.U. after   10 cycles
 SCF Done:  E(RB3LYP) =  -1238.07709752     A.U. after   10 cycles
 SCF Done:  E(RB3LYP) =  -1238.07710617     A.U. after   10 cycles
 SCF Done:  E(RB3LYP) =  -1238.07711655     A.U. after    8 cycles
 SCF Done:  E(RB3LYP) =  -1238.07711681     A.U. after    7 cycles
 SCF Done:  E(RB3LYP) =  -1238.07711712     A.U. after    8 cycles
 SCF Done:  E(RB3LYP) =  -1238.07711722     A.U. after    8 cycles
 SCF Done:  E(RB3LYP) =  -1238.07711725     A.U. after    7 cycles
 SCF Done:  E(RB3LYP) =  -1238.07711727     A.U. after    7 cycles
 Optimization completed.
    -- Stationary point found.
 Normal termination of Gaussian 16 at Tue Dec  8 19:56:35 2020.

 --------------------------------------------------------------------
 #N Geom=AllCheck Guess=TCheck SCRF=Check GenChk RB3LYP/6-31G(d) Freq
 --------------------------------------------------------------------

 Structure from the checkpoint file:  "JID_1383.chk"
 -------------------------------
 CID_149850437_JID_1383_neutraal
 -------------------------------
 Charge =  0 Multiplicity = 1

 SCF Done:  E(RB3LYP) =  -1238.07711727     A.U. after    1 cycles

  Exact polarizability: 129.148   0.587 104.074   7.733   0.980  94.759
 Approx polarizability: 173.850   7.180 154.914  19.524   1.417 148.069

                      1                      2                      3
                      A                      A                      A
 Frequencies --     19.8649                34.1626                70.4876
 Red. masses --      3.9779                 6.8880                 3.3787
 Frc consts  --      0.0009                 0.0047                 0.0099
 IR Inten    --      0.9211                 0.8053                 0.1175

                      4                      5                      6
                      A                      A                      A
 Frequencies --     76.2118               140.7233               171.2783
 Red. masses --      5.4348                 4.2944                 5.6381
 Frc consts  --      0.0186                 0.0501                 0.0975
 IR Inten    --      1.5652                 3.5196                 0.5083

                      7                      8                      9
                      A                      A                      A
 Frequencies --    201.1620               219.2918               222.9739
 Red. masses --      4.8087                 1.3143                 2.0154
 Frc consts  --      0.1146                 0.0372                 0.0590
 IR Inten    --      6.0485                81.1603                13.1879

                     10                     11                     12
                      A                      A                      A
 Frequencies --    230.8463               244.6993               257.7325
 Red. masses --      1.5966                 2.5363                 1.1520
 Frc consts  --      0.0501                 0.0895                 0.0451
 IR Inten    --      4.7802                 4.7818                19.0888

                     13                     14                     15
                      A                      A                      A
 Frequencies --    280.2170               319.2641               333.0804
 Red. masses --      2.7899                 1.5411                 2.2445
 Frc consts  --      0.1291                 0.0926                 0.1467
 IR Inten    --      6.7336                14.3998                17.7926

                     16                     17                     18
                      A                      A                      A
 Frequencies --    341.0516               393.7467               439.3098
 Red. masses --      2.2290                 4.6921                 4.3664
 Frc consts  --      0.1528                 0.4286                 0.4965
 IR Inten    --      2.2170                 0.6767                 8.7343

                     19                     20                     21
                      A                      A                      A
 Frequencies --    500.1192               577.9561               608.6515
 Red. masses --      2.7864                 4.3540                 1.2039
 Frc consts  --      0.4106                 0.8569                 0.2628
 IR Inten    --      7.4647                24.0645                83.7593

                     22                     23                     24
                      A                      A                      A
 Frequencies --    635.9419               720.7416               755.9433
 Red. masses --      3.3134                 4.7426                 2.8048
 Frc consts  --      0.7895                 1.4515                 0.9443
 IR Inten    --     31.6264                26.4670                12.6385

                     25                     26                     27
                      A                      A                      A
 Frequencies --    808.7276               813.3173               859.8781
 Red. masses --      1.7879                 1.5845                 1.7232
 Frc consts  --      0.6890                 0.6175                 0.7507
 IR Inten    --      3.9742                 2.6492                 3.9861

                     28                     29                     30
                      A                      A                      A
 Frequencies --    899.6792               971.5346              1000.6919
 Red. masses --      1.2457                 1.4644                 2.3767
 Frc consts  --      0.5941                 0.8144                 1.4023
 IR Inten    --     16.2254                13.9377                 4.7312

                     31                     32                     33
                      A                      A                      A
 Frequencies --   1029.3629              1062.0040              1082.8211
 Red. masses --      2.5498                 2.6948                 3.1488
 Frc consts  --      1.5918                 1.7907                 2.1753
 IR Inten    --     67.7410                43.4456                33.0170

                     34                     35                     36
                      A                      A                      A
 Frequencies --   1097.8969              1123.1943              1150.6697
 Red. masses --      1.8073                 1.7826                 1.9328
 Frc consts  --      1.2836                 1.3250                 1.5078
 IR Inten    --      6.6572                14.5241                19.3653

                     37                     38                     39
                      A                      A                      A
 Frequencies --   1172.7916              1262.9090              1275.0295
 Red. masses --      3.6181                 1.2510                 1.3991
 Frc consts  --      2.9320                 1.1756                 1.3401
 IR Inten    --      7.2746                39.3269                73.2712

                     40                     41                     42
                      A                      A                      A
 Frequencies --   1285.9417              1313.6341              1344.8970
 Red. masses --      1.1728                 1.2067                 1.3657
 Frc consts  --      1.1427                 1.2269                 1.4554
 IR Inten    --      3.2034                43.1950                26.0503

                     43                     44                     45
                      A                      A                      A
 Frequencies --   1384.2721              1414.2815              1443.3359
 Red. masses --      1.5106                 1.6204                 1.2480
 Frc consts  --      1.7055                 1.9096                 1.5318
 IR Inten    --     62.3020                54.3264                15.8224

                     46                     47                     48
                      A                      A                      A
 Frequencies --   1455.9348              1501.2635              1510.8024
 Red. masses --      1.4094                 1.6360                 1.1103
 Frc consts  --      1.7602                 2.1725                 1.4931
 IR Inten    --      5.6745                52.5064                12.6899

                     49                     50                     51
                      A                      A                      A
 Frequencies --   1524.9059              1532.7573              1542.6619
 Red. masses --      1.0769                 1.0477                 1.0906
 Frc consts  --      1.4754                 1.4502                 1.5292
 IR Inten    --     14.8600                 3.9134                30.2146

                     52                     53                     54
                      A                      A                      A
 Frequencies --   1545.5248              1789.4164              2666.1484
 Red. masses --      1.0899                 7.8170                 1.0376
 Frc consts  --      1.5339                14.7472                 4.3457
 IR Inten    --      2.1521               388.3510                 7.8144

                     55                     56                     57
                      A                      A                      A
 Frequencies --   2680.6264              3022.0298              3061.5313
 Red. masses --      1.0382                 1.0599                 1.0353
 Frc consts  --      4.3954                 5.7033                 5.7173
 IR Inten    --     12.6172                31.3459                23.2291

                     58                     59                     60
                      A                      A                      A
 Frequencies --   3065.6633              3070.0763              3071.0556
 Red. masses --      1.0699                 1.0665                 1.1039
 Frc consts  --      5.9244                 5.9226                 6.1342
 IR Inten    --      7.1014                27.6625                32.7648

                     61                     62                     63
                      A                      A                      A
 Frequencies --   3122.0716              3130.5422              3145.5259
 Red. masses --      1.0995                 1.1026                 1.1026
 Frc consts  --      6.3144                 6.3667                 6.4276
 IR Inten    --      3.2564                24.2457                29.6378

                     64                     65                     66
                      A                      A                      A
 Frequencies --   3183.2680              3588.9597              3766.9230
 Red. masses --      1.0933                 1.0749                 1.0667
 Frc consts  --      6.5275                 8.1576                 8.9180
 IR Inten    --      3.0072                13.1231                36.5339

 - Thermochemistry -
 -------------------
 Temperature   298.150 Kelvin.  Pressure   1.00000 Atm.
 Atom     1 has atomic number  6 and mass  12.00000

 Molecular mass:   195.03877 amu.
 Principal axes and moments of inertia in atomic units:
                           1         2         3
     Eigenvalues --  1531.578523612.699244138.38075
           X            0.99886  -0.04415  -0.01820
           Y            0.04443   0.99890   0.01524
           Z            0.01751  -0.01603   0.99972
 This molecule is an asymmetric top.
 Rotational symmetry number  1.
 Warning -- assumption of classical behavior for rotation
           may cause significant error
 Rotational temperatures (Kelvin)      0.05655     0.02397     0.02093
 Rotational constants (GHZ):           1.17835     0.49955     0.43610
 Zero-point vibrational energy     505841.0 (Joules/Mol)
                                  120.89891 (Kcal/Mol)
 Warning -- explicit consideration of  21 degrees of freedom as
           vibrations may cause significant error
 Vibrational temperatures:     28.58    49.15   101.42   109.65   202.47
          (Kelvin)            246.43   289.43   315.51   320.81   332.14
                              352.07   370.82   403.17   459.35   479.23
                              490.70   566.51   632.07   719.56   831.55
                              875.71   914.98  1036.99  1087.63  1163.58
                             1170.18  1237.17  1294.44  1397.82  1439.77
                             1481.02  1527.99  1557.94  1579.63  1616.03
                             1655.56  1687.39  1817.04  1834.48  1850.18
                             1890.03  1935.01  1991.66  2034.84  2076.64
                             2094.77  2159.98  2173.71  2194.00  2205.30
                             2219.55  2223.67  2574.57  3835.99  3856.82
                             4348.03  4404.86  4410.81  4417.16  4418.56
                             4491.96  4504.15  4525.71  4580.01  5163.71
                             5419.76

 Zero-point correction=                           0.192665 (Hartree/Particle)
 Thermal correction to Energy=                    0.206910
 Thermal correction to Enthalpy=                  0.207854
 Thermal correction to Gibbs Free Energy=         0.150202
 Sum of electronic and zero-point Energies=          -1237.884453
 Sum of electronic and thermal Energies=             -1237.870207
 Sum of electronic and thermal Enthalpies=           -1237.869263
 Sum of electronic and thermal Free Energies=        -1237.926915

                     E (Thermal)             CV                S
                      KCal/Mol        Cal/Mol-Kelvin    Cal/Mol-Kelvin
 Total                  129.838             50.309            121.340
 Electronic               0.000              0.000              0.000
 Translational            0.889              2.981             41.709
 Rotational               0.889              2.981             31.505
 Vibrational            128.061             44.348             48.126
 Vibration     1          0.593              1.986              6.648
 Vibration     2          0.594              1.983              5.572
 Vibration     3          0.598              1.968              4.140
 Vibration     4          0.599              1.965              3.986
 Vibration     5          0.615              1.913              2.794
 Vibration     6          0.626              1.878              2.421
 Vibration     7          0.638              1.838              2.122
 Vibration     8          0.647              1.812              1.965
 Vibration     9          0.649              1.806              1.935
 Vibration    10          0.653              1.794              1.872
 Vibration    11          0.660              1.772              1.768
 Vibration    12          0.667              1.750              1.677
 Vibration    13          0.680              1.710              1.532
 Vibration    14          0.705              1.637              1.314
 Vibration    15          0.715              1.609              1.245
 Vibration    16          0.721              1.593              1.207
 Vibration    17          0.761              1.484              0.986
 Vibration    18          0.799              1.384              0.829
 Vibration    19          0.856              1.250              0.658
 Vibration    20          0.934              1.079              0.489
 Vibration    21          0.968              1.013              0.435

                           ! Non-Optimized Parameters !
 Normal termination of Gaussian 16 at Tue Dec  8 20:01:56 2020.

 ----------------------------------------------------------------------
 # B3LYP/6-311++G(d,p) empiricaldispersion=gd3bj scf=xqc pop=npa geom=c
 heck
 ----------------------------------------------------------------------

 ---------------------------------------
 CID_149850437_JID_1383_Energie_neutraal
 ---------------------------------------
 Structure from the checkpoint file:  "JID_1383.chk"
 Charge =  0 Multiplicity = 1

 SCF Done:  E(RB3LYP) =  -1238.28453371     A.U. after   15 cycles
 Normal termination of Gaussian 16 at Tue Dec  8 20:04:54 2020.

 ----------------------------------------------------------------------
 # B3LYP/6-311++G(d,p) empiricaldispersion=gd3bj scf=xqc pop=npa geom=c
 heck
 ----------------------------------------------------------------------

 -------------------------------------
 CID_149850437_JID_1383_Energie_kation
 -------------------------------------
 Structure from the checkpoint file:  "JID_1383.chk"
 Charge =  1 Multiplicity = 2

 SCF Done:  E(UB3LYP) =  -1237.96954911     A.U. after   25 cycles
 Normal termination of Gaussian 16 at Tue Dec  8 20:11:15 2020.
 Gaussian 16:  ES64L-G16RevA.03 25-Dec-2016

 ----------------------------------------------------------------------
 # B3LYP/6-311++G(d,p) empiricaldispersion=gd3bj scf=xqc pop=npa geom=c
 heck
 ----------------------------------------------------------------------

 ------------------------------------
 CID_149850437_JID_1383_Energie_anion
 ------------------------------------
 Structure from the checkpoint file:  "JID_1383.chk"
 Charge = -1 Multiplicity = 2

                         Standard orientation:
 ---------------------------------------------------------------------
 Center     Atomic      Atomic             Coordinates (Angstroms)
 Number     Number       Type             X           Y           Z
 ---------------------------------------------------------------------
      1          6           0        2.945856   -1.626820   -0.158271
      2          6           0        2.917826   -0.300021   -0.934492
      3          6           0        2.367779    0.844106   -0.093557
      4          8           0        3.106088    1.576796    0.551572
      5          7           0        1.002082    1.025959   -0.038083
      6          6           0       -0.044889    0.374018   -0.798005
      7          6           0       -1.219032   -0.102188    0.084542
      8          6           0       -1.915194    1.063148    0.795578
      9          8           0       -2.344964    1.992904   -0.193106
     10         16           0       -2.424501   -1.021096   -0.978974
     11         16           0       -0.553251   -1.261131    1.357796
     12          1           0        3.483169   -1.499344    0.786856
     13          1           0        3.458539   -2.398314   -0.742096
     14          1           0        1.938517   -1.986293    0.071199
     15          1           0        3.937437   -0.002586   -1.191895
     16          1           0        2.363791   -0.417854   -1.872366
     17          1           0        0.752791    1.862002    0.477101
     18          1           0       -0.461842    1.050516   -1.553605
     19          1           0        0.367516   -0.491854   -1.312061
     20          1           0       -2.756839    0.672278    1.381222
     21          1           0       -1.201124    1.522443    1.494730
     22          1           0       -2.914472    2.650093    0.233392
     23          1           0       -2.989820    0.096429   -1.487963
     24          1           0       -1.751286   -1.794660    1.678406
 ---------------------------------------------------------------------

 SCF Done:  E(UB3LYP) =  -1238.27893603     A.U. after   31 cycles

 The electronic state is 2-A.
 Alpha  occ. eigenvalues --  -88.75308 -88.74568 -19.01902 -18.99256 -14.24120
 Alpha  occ. eigenvalues --  -10.17976 -10.15155 -10.12156 -10.12077 -10.08990
 Alpha  occ. eigenvalues --  -10.07868  -7.84020  -7.83288  -5.80394  -5.80045
 Alpha  occ. eigenvalues --   -5.79657  -5.79398  -5.79311  -5.78668  -0.94444
 Alpha  occ. eigenvalues --   -0.92225  -0.83187  -0.73839  -0.68952  -0.62744
 Alpha  occ. eigenvalues --   -0.61409  -0.59215  -0.56398  -0.48352  -0.46558
 Alpha  occ. eigenvalues --   -0.42598  -0.40712  -0.39244  -0.37908  -0.35886
 Alpha  occ. eigenvalues --   -0.34963  -0.33856  -0.33251  -0.31667  -0.30196
 Alpha  occ. eigenvalues --   -0.29143  -0.28139  -0.26703  -0.26575  -0.24677
 Alpha  occ. eigenvalues --   -0.23956  -0.23539  -0.17993  -0.16761  -0.16475
 Alpha  occ. eigenvalues --   -0.15716  -0.14163   0.04371
 Alpha virt. eigenvalues --    0.06245   0.07870   0.08324   0.08575   0.09460
 Alpha virt. eigenvalues --    0.09941   0.10318   0.10681   0.11067   0.11638
 Alpha virt. eigenvalues --    0.12189   0.12673   0.13658   0.14185   0.14977

  Beta  occ. eigenvalues --  -88.75292 -88.74555 -19.01815 -18.99254 -14.24102
  Beta  occ. eigenvalues --  -10.17976 -10.15155 -10.12130 -10.12026 -10.08975
  Beta  occ. eigenvalues --  -10.07854  -7.84004  -7.83274  -5.80350  -5.80036
  Beta  occ. eigenvalues --   -5.79630  -5.79385  -5.79302  -5.78657  -0.94438
  Beta  occ. eigenvalues --   -0.92052  -0.83160  -0.73783  -0.68928  -0.62661
  Beta  occ. eigenvalues --   -0.61356  -0.59058  -0.56358  -0.48313  -0.46478
  Beta  occ. eigenvalues --   -0.42409  -0.40663  -0.39175  -0.37849  -0.35827
  Beta  occ. eigenvalues --   -0.34939  -0.33818  -0.33204  -0.31627  -0.30139
  Beta  occ. eigenvalues --   -0.29076  -0.28111  -0.26680  -0.26550  -0.24588
  Beta  occ. eigenvalues --   -0.23880  -0.23469  -0.17905  -0.16719  -0.16463
  Beta  occ. eigenvalues --   -0.15681  -0.14123
  Beta virt. eigenvalues --    0.06417   0.07746   0.08263   0.08597   0.09117
  Beta virt. eigenvalues --    0.09558   0.10230   0.10528   0.11009   0.11492
  Beta virt. eigenvalues --    0.11871   0.12375   0.13259   0.13878   0.14326

 Mulliken charges and spin densities:
               1          2
     1  C   -0.089567  -0.326109
     2  C   -0.019173  -0.160965
     3  C   -0.093645   0.077049
     4  O   -0.341823   0.005820
     5  N   -0.139032   0.073532
     6  C   -0.398453  -0.842982
     7  C    0.689147   1.108163
     8  C    1.091711  -1.951078
     9  O   -0.338964   0.078555
    10  S   -0.079934  -0.271429
    11  S   -0.014119  -0.302070
    12  H    0.119977   0.024591
    13  H   -0.075918   0.208958
    14  H    0.080163   0.035198
    15  H    0.044932   0.148468
    16  H   -0.035072   0.182777
    17  H    0.230104   0.115348
    18  H    0.068600   0.158847
    19  H    0.007365   0.164345
    20  H   -0.640955   0.830523
    21  H   -0.282181   0.409867
    22  H   -0.550981   0.846959
    23  H   -0.073880   0.150032
    24  H   -0.158304   0.235603
 Sum of Mulliken charges =  -1.00000   1.00000

 Dipole moment (field-independent basis, Debye):
    X=              4.6545    Y=             -6.0206    Z=             -2.1258  Tot=              7.9013
 Quadrupole moment (field-independent basis, Debye-Ang):
   XX=           -151.1514   YY=           -128.2051   ZZ=           -108.8653
   XY=             11.5245   XZ=              3.7184   YZ=             -6.9201

 Summary of Natural Population Analysis:

                                       Natural Population
                Natural  -----------------------------------------------
    Atom  No    Charge         Core      Valence    Rydberg      Total
 -----------------------------------------------------------------------
      C    1   -0.28567      0.99966     2.28160    0.00441     3.28567
      C    2   -0.23382      0.99960     2.22612    0.00810     3.23382
      C    3    0.34700      0.99967     1.63110    0.02223     2.65300
      O    4   -0.32511      0.99988     3.31931    0.00593     4.32511
      N    5   -0.32211      0.99966     2.81173    0.01072     3.82211
      C    6   -0.10415      0.99950     2.08978    0.01486     3.10415
      C    7   -0.16027      0.99957     2.14195    0.01874     3.16027
      C    8   -0.02595      0.99945     2.00808    0.01843     3.02595
      O    9   -0.38247      0.99989     3.37452    0.00805     4.38247
      S   10   -0.01518      4.99954     3.00090    0.01475     8.01518
      S   11   -0.00165      4.99953     2.98587    0.01625     8.00165
      H   12    0.10045      0.00000     0.39850    0.00106     0.39955
      H   13    0.09692      0.00000     0.40195    0.00113     0.40308
      H   14    0.10624      0.00000     0.39261    0.00114     0.39376
      H   15    0.10882      0.00000     0.39001    0.00117     0.39118
      H   16    0.10146      0.00000     0.39736    0.00118     0.39854
      H   17    0.19885      0.00000     0.29868    0.00247     0.30115
      H   18    0.11017      0.00000     0.38812    0.00171     0.38983
      H   19    0.10808      0.00000     0.39043    0.00148     0.39192
      H   20    0.09443      0.00000     0.40096    0.00462     0.40557
      H   21    0.08553      0.00000     0.41208    0.00239     0.41447
      H   22    0.25079      0.00000     0.20699    0.04222     0.24921
      H   23    0.07779      0.00000     0.41886    0.00335     0.42221
      H   24    0.06987      0.00000     0.42718    0.00295     0.43013
 =======================================================================
   * Total *    0.00000     18.99595    32.79470    0.20935    52.00000

 Normal termination of Gaussian 16 at Tue Dec  8 20:19:33 2020.
