 Gaussian 16, Revision A.03,

 -----------------------------------------------------------
 # opt freq B3LYP/6-31G(d) empiricaldispersion=gd3bj scf=xqc
 -----------------------------------------------------------

 ------------------------------
 CID_88838713_JID_8290_neutraal
 ------------------------------
 Symbolic Z-matrix:
 Charge =  0 Multiplicity = 1

 SCF Done:  E(RB3LYP) =  -1252.32388012     A.U. after   15 cycles
 SCF Done:  E(RB3LYP) =  -1252.32195087     A.U. after   14 cycles
 SCF Done:  E(RB3LYP) =  -1252.33052766     A.U. after   13 cycles
 SCF Done:  E(RB3LYP) =  -1252.33081808     A.U. after   13 cycles
 SCF Done:  E(RB3LYP) =  -1252.32970425     A.U. after   13 cycles
 SCF Done:  E(RB3LYP) =  -1252.32706479     A.U. after   13 cycles
 SCF Done:  E(RB3LYP) =  -1252.32773559     A.U. after   13 cycles
 SCF Done:  E(RB3LYP) =  -1252.33153906     A.U. after   11 cycles
 SCF Done:  E(RB3LYP) =  -1252.33270736     A.U. after   12 cycles
 SCF Done:  E(RB3LYP) =  -1252.33278462     A.U. after   12 cycles
 SCF Done:  E(RB3LYP) =  -1252.33298124     A.U. after    8 cycles
 SCF Done:  E(RB3LYP) =  -1252.33298193     A.U. after    8 cycles
 SCF Done:  E(RB3LYP) =  -1252.33298250     A.U. after    8 cycles
 SCF Done:  E(RB3LYP) =  -1252.33298282     A.U. after    7 cycles
 SCF Done:  E(RB3LYP) =  -1252.33298290     A.U. after    7 cycles
 SCF Done:  E(RB3LYP) =  -1252.33298294     A.U. after    7 cycles
 Optimization completed.
    -- Stationary point found.
 Normal termination of Gaussian 16 at Fri Dec 11 20:06:13 2020.

 --------------------------------------------------------------------
 #N Geom=AllCheck Guess=TCheck SCRF=Check GenChk RB3LYP/6-31G(d) Freq
 --------------------------------------------------------------------

 Structure from the checkpoint file:  "JID_8290.chk"
 ------------------------------
 CID_88838713_JID_8290_neutraal
 ------------------------------
 Charge =  0 Multiplicity = 1

 SCF Done:  E(RB3LYP) =  -1252.33298294     A.U. after    1 cycles

  Exact polarizability: 188.689   0.063 145.507  -2.926  -0.540 109.340
 Approx polarizability: 274.307  -1.793 225.101  -1.964  -8.447 184.741

                      1                      2                      3
                      A                      A                      A
 Frequencies --     42.9025                52.9478                55.9877
 Red. masses --      7.2691                 5.7332                 6.9477
 Frc consts  --      0.0079                 0.0095                 0.0128
 IR Inten    --      0.9708                 1.0853                 0.7936

                      4                      5                      6
                      A                      A                      A
 Frequencies --     76.7650                86.9681                89.3168
 Red. masses --      7.5010                 4.9318                 7.2155
 Frc consts  --      0.0260                 0.0220                 0.0339
 IR Inten    --      0.4160                 0.3574                 1.4096

                      7                      8                      9
                      A                      A                      A
 Frequencies --    104.8206               135.1573               159.5316
 Red. masses --      6.5340                 1.0628                 7.5537
 Frc consts  --      0.0423                 0.0114                 0.1133
 IR Inten    --      0.8658                 0.4106                 4.8339

                     10                     11                     12
                      A                      A                      A
 Frequencies --    162.3628               179.7466               186.8142
 Red. masses --      4.9666                 4.2768                 1.2241
 Frc consts  --      0.0771                 0.0814                 0.0252
 IR Inten    --      4.4240                 3.0550               213.2022

                     13                     14                     15
                      A                      A                      A
 Frequencies --    210.2710               241.0766               282.1485
 Red. masses --      5.1413                 1.2497                 3.8258
 Frc consts  --      0.1339                 0.0428                 0.1794
 IR Inten    --     28.1691                16.5952                11.6071

                     16                     17                     18
                      A                      A                      A
 Frequencies --    304.5126               325.5281               344.6344
 Red. masses --      3.9353                 3.5133                 5.1537
 Frc consts  --      0.2150                 0.2194                 0.3606
 IR Inten    --      2.4860                 2.3381                13.6797

                     19                     20                     21
                      A                      A                      A
 Frequencies --    357.1188               367.4226               397.7568
 Red. masses --      3.8124                 3.8277                 5.6736
 Frc consts  --      0.2865                 0.3045                 0.5289
 IR Inten    --      3.6774                 1.6174                11.2133

                     22                     23                     24
                      A                      A                      A
 Frequencies --    478.6046               494.3045               504.8453
 Red. masses --      4.0525                 2.4676                 3.5775
 Frc consts  --      0.5469                 0.3552                 0.5372
 IR Inten    --      8.9259                34.3325                11.9301

                     25                     26                     27
                      A                      A                      A
 Frequencies --    530.7258               556.8915               560.1974
 Red. masses --      2.1661                 1.1637                 1.9069
 Frc consts  --      0.3595                 0.2126                 0.3526
 IR Inten    --     40.6446                 2.6448                 5.5152

                     28                     29                     30
                      A                      A                      A
 Frequencies --    577.9577               587.7714               611.9197
 Red. masses --      3.1032                 2.1008                 2.0492
 Frc consts  --      0.6107                 0.4276                 0.4521
 IR Inten    --     23.5606               126.1337               123.3453

                     31                     32                     33
                      A                      A                      A
 Frequencies --    640.3263               672.2881               686.3988
 Red. masses --      5.1810                 4.4571                 4.3222
 Frc consts  --      1.2516                 1.1869                 1.1998
 IR Inten    --      1.7771                19.5429                 0.9265

                     34                     35                     36
                      A                      A                      A
 Frequencies --    709.2073               737.9195               754.8797
 Red. masses --      1.3499                 4.0349                 5.4613
 Frc consts  --      0.4000                 1.2945                 1.8336
 IR Inten    --      8.0631                 4.9292                20.8566

                     37                     38                     39
                      A                      A                      A
 Frequencies --    769.4634               796.9209               810.2792
 Red. masses --      7.1467                 5.2681                 1.7758
 Frc consts  --      2.4930                 1.9712                 0.6869
 IR Inten    --     12.7231                 3.0464                 7.8784

                     40                     41                     42
                      A                      A                      A
 Frequencies --    831.4830               877.6229               921.6827
 Red. masses --      2.5762                 5.5613                 4.1419
 Frc consts  --      1.0494                 2.5237                 2.0731
 IR Inten    --      9.4467                 1.6960                20.1286

                     43                     44                     45
                      A                      A                      A
 Frequencies --    944.2275               966.0683              1007.0765
 Red. masses --      1.4531                 2.8296                 1.9859
 Frc consts  --      0.7633                 1.5559                 1.1867
 IR Inten    --      4.2728                14.8690                 8.1433

                     46                     47                     48
                      A                      A                      A
 Frequencies --   1038.9261              1073.1770              1097.4823
 Red. masses --      1.5355                 1.5452                 4.3741
 Frc consts  --      0.9765                 1.0485                 3.1041
 IR Inten    --      7.9178                 2.0792                52.8126

                     49                     50                     51
                      A                      A                      A
 Frequencies --   1120.7360              1135.7329              1162.4400
 Red. masses --      1.9615                 3.9808                 2.0878
 Frc consts  --      1.4516                 3.0253                 1.6622
 IR Inten    --      2.7446                93.5726                37.8766

                     52                     53                     54
                      A                      A                      A
 Frequencies --   1190.5391              1238.0526              1263.7339
 Red. masses --      1.3479                 4.0309                 1.3991
 Frc consts  --      1.1256                 3.6403                 1.3164
 IR Inten    --     17.8342               117.6071                12.3778

                     55                     56                     57
                      A                      A                      A
 Frequencies --   1296.0262              1304.8611              1316.9708
 Red. masses --      1.2920                 4.0706                 2.8746
 Frc consts  --      1.2786                 4.0835                 2.9375
 IR Inten    --     12.9164                19.1285                 8.0773

                     58                     59                     60
                      A                      A                      A
 Frequencies --   1322.5737              1362.6790              1390.1148
 Red. masses --      1.7954                 2.0385                 3.0786
 Frc consts  --      1.8503                 2.2302                 3.5051
 IR Inten    --      5.4369                96.3503               494.9774

                     61                     62                     63
                      A                      A                      A
 Frequencies --   1407.8348              1432.0084              1448.4762
 Red. masses --      1.8929                 1.3025                 3.0271
 Frc consts  --      2.2105                 1.5737                 3.7419
 IR Inten    --     44.1926                 0.3009                51.7857

                     64                     65                     66
                      A                      A                      A
 Frequencies --   1472.3547              1502.7952              1515.4631
 Red. masses --      1.7223                 1.2571                 1.1076
 Frc consts  --      2.1998                 1.6728                 1.4987
 IR Inten    --     38.5645                17.5417                13.4412

                     67                     68                     69
                      A                      A                      A
 Frequencies --   1523.0381              1529.0799              1611.0007
 Red. masses --      1.2522                 1.7182                 5.3167
 Frc consts  --      1.7114                 2.3669                 8.1298
 IR Inten    --      5.2200                24.2805                 3.9664

                     70                     71                     72
                      A                      A                      A
 Frequencies --   1636.3546              1649.3588              1676.8502
 Red. masses --      1.3333                 7.3856                 1.2495
 Frc consts  --      2.1034                11.8377                 2.0700
 IR Inten    --    153.6551                24.6645                99.8063

                     73                     74                     75
                      A                      A                      A
 Frequencies --   1790.2530              1828.2478              2682.2598
 Red. masses --      7.7653                 9.5839                 1.0383
 Frc consts  --     14.6634                18.8739                 4.4014
 IR Inten    --    267.7692               378.9032                 2.4122

                     76                     77                     78
                      A                      A                      A
 Frequencies --   3031.6493              3049.9278              3103.7019
 Red. masses --      1.0815                 1.0409                 1.0700
 Frc consts  --      5.8566                 5.7048                 6.0727
 IR Inten    --     24.6284                18.4152                 8.4024

                     79                     80                     81
                      A                      A                      A
 Frequencies --   3105.2136              3166.3657              3174.5013
 Red. masses --      1.0980                 1.1002                 1.0905
 Frc consts  --      6.2381                 6.4988                 6.4750
 IR Inten    --     14.5985                 7.1829                19.7048

                     82                     83                     84
                      A                      A                      A
 Frequencies --   3206.0115              3465.3108              3530.8788
 Red. masses --      1.0950                 1.0586                 1.0641
 Frc consts  --      6.6313                 7.4898                 7.8163
 IR Inten    --      1.0083               252.3973               125.7142

                     85                     86                     87
                      A                      A                      A
 Frequencies --   3620.4339              3656.7309              3747.6697
 Red. masses --      1.0452                 1.0942                 1.1066
 Frc consts  --      8.0716                 8.6206                 9.1569
 IR Inten    --     94.6133                93.2495                68.6365

 - Thermochemistry -
 -------------------
 Temperature   298.150 Kelvin.  Pressure   1.00000 Atm.
 Atom     1 has atomic number  6 and mass  12.00000

 Molecular mass:   271.06268 amu.
 Principal axes and moments of inertia in atomic units:
                           1         2         3
     Eigenvalues --  3451.369225463.853777252.09467
           X            0.99997  -0.00611   0.00494
           Y            0.00607   0.99996   0.00656
           Z           -0.00498  -0.00653   0.99997
 This molecule is an asymmetric top.
 Rotational symmetry number  1.
 Warning -- assumption of classical behavior for rotation
           may cause significant error
 Rotational temperatures (Kelvin)      0.02510     0.01585     0.01194
 Rotational constants (GHZ):           0.52291     0.33031     0.24886
 Zero-point vibrational energy     622480.8 (Joules/Mol)
                                  148.77649 (Kcal/Mol)
 Warning -- explicit consideration of  30 degrees of freedom as
           vibrations may cause significant error
 Vibrational temperatures:     61.73    76.18    80.55   110.45   125.13
          (Kelvin)            128.51   150.81   194.46   229.53   233.60
                              258.62   268.78   302.53   346.86   405.95
                              438.13   468.36   495.85   513.81   528.64
                              572.28   688.61   711.19   726.36   763.60
                              801.24   806.00   831.55   845.67   880.42
                              921.29   967.27   987.57  1020.39  1061.70
                             1086.10  1107.09  1146.59  1165.81  1196.32
                             1262.70  1326.10  1358.53  1389.96  1448.96
                             1494.78  1544.06  1579.03  1612.49  1634.07
                             1672.49  1712.92  1781.28  1818.23  1864.69
                             1877.40  1894.83  1902.89  1960.59  2000.07
                             2025.56  2060.34  2084.03  2118.39  2162.19
                             2180.41  2191.31  2200.00  2317.87  2354.35
                             2373.06  2412.61  2575.77  2630.44  3859.17
                             4361.87  4388.17  4465.53  4467.71  4555.69
                             4567.40  4612.74  4985.81  5080.15  5209.00
                             5261.22  5392.06

 Zero-point correction=                           0.237090 (Hartree/Particle)
 Thermal correction to Energy=                    0.255492
 Thermal correction to Enthalpy=                  0.256436
 Thermal correction to Gibbs Free Energy=         0.190305
 Sum of electronic and zero-point Energies=          -1252.095893
 Sum of electronic and thermal Energies=             -1252.077491
 Sum of electronic and thermal Enthalpies=           -1252.076547
 Sum of electronic and thermal Free Energies=        -1252.142678

                     E (Thermal)             CV                S
                      KCal/Mol        Cal/Mol-Kelvin    Cal/Mol-Kelvin
 Total                  160.324             67.987            139.184
 Electronic               0.000              0.000              0.000
 Translational            0.889              2.981             42.690
 Rotational               0.889              2.981             33.280
 Vibrational            158.546             62.026             63.213
 Vibration     1          0.595              1.980              5.120
 Vibration     2          0.596              1.976              4.704
 Vibration     3          0.596              1.975              4.594
 Vibration     4          0.599              1.965              3.972
 Vibration     5          0.601              1.958              3.727
 Vibration     6          0.602              1.957              3.675
 Vibration     7          0.605              1.945              3.363
 Vibration     8          0.613              1.918              2.871
 Vibration     9          0.621              1.892              2.555
 Vibration    10          0.622              1.889              2.522
 Vibration    11          0.629              1.867              2.331
 Vibration    12          0.632              1.858              2.259
 Vibration    13          0.642              1.825              2.041
 Vibration    14          0.658              1.777              1.795
 Vibration    15          0.681              1.707              1.521
 Vibration    16          0.695              1.665              1.392
 Vibration    17          0.710              1.624              1.282
 Vibration    18          0.723              1.586              1.191
 Vibration    19          0.732              1.561              1.135
 Vibration    20          0.740              1.539              1.091
 Vibration    21          0.764              1.475              0.971
 Vibration    22          0.835              1.298              0.714
 Vibration    23          0.850              1.263              0.673
 Vibration    24          0.860              1.239              0.646
 Vibration    25          0.886              1.182              0.586
 Vibration    26          0.912              1.125              0.530
 Vibration    27          0.916              1.117              0.523
 Vibration    28          0.934              1.079              0.489
 Vibration    29          0.945              1.058              0.471
 Vibration    30          0.971              1.007              0.430

                           ! Non-Optimized Parameters !
 Normal termination of Gaussian 16 at Fri Dec 11 20:19:23 2020.

 ----------------------------------------------------------------------
 # B3LYP/6-311++G(d,p) empiricaldispersion=gd3bj scf=xqc pop=npa geom=c
 heck
 ----------------------------------------------------------------------

 --------------------------------------
 CID_88838713_JID_8290_Energie_neutraal
 --------------------------------------
 Structure from the checkpoint file:  "JID_8290.chk"
 Charge =  0 Multiplicity = 1

 SCF Done:  E(RB3LYP) =  -1252.62552668     A.U. after   15 cycles
 Normal termination of Gaussian 16 at Fri Dec 11 20:24:14 2020.

 ----------------------------------------------------------------------
 # B3LYP/6-311++G(d,p) empiricaldispersion=gd3bj scf=xqc pop=npa geom=c
 heck
 ----------------------------------------------------------------------

 ------------------------------------
 CID_88838713_JID_8290_Energie_kation
 ------------------------------------
 Structure from the checkpoint file:  "JID_8290.chk"
 Charge =  1 Multiplicity = 2

 SCF Done:  E(UB3LYP) =  -1252.32148609     A.U. after   25 cycles
 Normal termination of Gaussian 16 at Fri Dec 11 20:35:37 2020.
 Gaussian 16:  ES64L-G16RevA.03 25-Dec-2016

 ----------------------------------------------------------------------
 # B3LYP/6-311++G(d,p) empiricaldispersion=gd3bj scf=xqc pop=npa geom=c
 heck
 ----------------------------------------------------------------------

 -----------------------------------
 CID_88838713_JID_8290_Energie_anion
 -----------------------------------
 Structure from the checkpoint file:  "JID_8290.chk"
 Charge = -1 Multiplicity = 2

                         Standard orientation:
 ---------------------------------------------------------------------
 Center     Atomic      Atomic             Coordinates (Angstroms)
 Number     Number       Type             X           Y           Z
 ---------------------------------------------------------------------
      1          6           0       -3.000050    2.319965   -0.107574
      2          6           0       -1.567692    1.919411    0.117644
      3          7           0       -0.620971    2.857140   -0.010054
      4          6           0        0.651029    2.492467    0.161756
      5          6           0        1.082463    1.199466    0.472037
      6          6           0        0.098570    0.206446    0.633231
      7          6           0       -1.224665    0.604671    0.444033
      8          8           0       -2.277256   -0.302214    0.639939
      9          6           0       -2.669217   -1.038236   -0.442886
     10          8           0       -2.068095   -1.085006   -1.503388
     11          7           0       -3.796252   -1.725208   -0.149734
     12          6           0        0.424417   -1.230615    0.996203
     13          6           0        1.217628   -1.964744   -0.113284
     14          8           0        2.225854   -2.591652    0.203746
     15          7           0        0.739911   -1.865907   -1.371265
     16          8           0        1.168758   -1.304860    2.189575
     17          6           0        2.558504    0.920592    0.569785
     18         16           0        3.396943    0.881979   -1.082112
     19          1           0       -3.047094    3.400053   -0.255877
     20          1           0       -3.410158    1.826625   -0.998043
     21          1           0       -3.633812    2.041521    0.741625
     22          1           0        1.392781    3.278375    0.030619
     23          1           0       -4.298204   -1.548153    0.706774
     24          1           0       -4.225208   -2.272318   -0.879020
     25          1           0       -0.521439   -1.777086    1.115933
     26          1           0       -0.176598   -1.458557   -1.556894
     27          1           0        1.164638   -2.451686   -2.077763
     28          1           0        1.874797   -1.957030    1.983649
     29          1           0        3.063671    1.732245    1.100691
     30          1           0        2.759313   -0.002495    1.106425
     31          1           0        2.627413   -0.092033   -1.611616
 ---------------------------------------------------------------------

 SCF Done:  E(UB3LYP) =  -1252.62937464     A.U. after   32 cycles

 The electronic state is 2-A.
 Alpha  occ. eigenvalues --  -88.74257 -19.07926 -19.02482 -19.01743 -19.01513
 Alpha  occ. eigenvalues --  -14.24767 -14.24332 -14.18956 -10.23901 -10.19262
 Alpha  occ. eigenvalues --  -10.14216 -10.13034 -10.10689 -10.09999 -10.09412
 Alpha  occ. eigenvalues --  -10.08198 -10.07933 -10.06392  -7.82958  -5.79332
 Alpha  occ. eigenvalues --   -5.78995  -5.78332  -1.02731  -0.97357  -0.93775
 Alpha  occ. eigenvalues --   -0.92557  -0.83778  -0.82736  -0.82380  -0.72902
 Alpha  occ. eigenvalues --   -0.69251  -0.66474  -0.62193  -0.60646  -0.56065
 Alpha  occ. eigenvalues --   -0.54632  -0.52027  -0.49045  -0.48328  -0.46832
 Alpha  occ. eigenvalues --   -0.45954  -0.43453  -0.42690  -0.41726  -0.39589
 Alpha  occ. eigenvalues --   -0.37662  -0.37324  -0.36363  -0.35036  -0.34105
 Alpha  occ. eigenvalues --   -0.33208  -0.32478  -0.32034  -0.31394  -0.30602
 Alpha  occ. eigenvalues --   -0.29874  -0.28628  -0.27079  -0.26910  -0.25789
 Alpha  occ. eigenvalues --   -0.24372  -0.23051  -0.20678  -0.20398  -0.20168
 Alpha  occ. eigenvalues --   -0.19332  -0.18621  -0.16736  -0.15641  -0.14747
 Alpha  occ. eigenvalues --   -0.13166   0.03617
 Alpha virt. eigenvalues --    0.05297   0.07400   0.08000   0.08246   0.08596
 Alpha virt. eigenvalues --    0.08819   0.09343   0.10144   0.10967   0.11108
 Alpha virt. eigenvalues --    0.11978   0.12038   0.12583   0.12681   0.13196

  Beta  occ. eigenvalues --  -88.74243 -19.07906 -19.02452 -19.01727 -19.01500
  Beta  occ. eigenvalues --  -14.24760 -14.24231 -14.18712 -10.23888 -10.19226
  Beta  occ. eigenvalues --  -10.14229 -10.13056 -10.10684 -10.09895 -10.09438
  Beta  occ. eigenvalues --  -10.07954 -10.07849 -10.06390  -7.82943  -5.79308
  Beta  occ. eigenvalues --   -5.78978  -5.78321  -1.02700  -0.97311  -0.93741
  Beta  occ. eigenvalues --   -0.92492  -0.83502  -0.82666  -0.82232  -0.72621
  Beta  occ. eigenvalues --   -0.69037  -0.66330  -0.62075  -0.60547  -0.55928
  Beta  occ. eigenvalues --   -0.54563  -0.51855  -0.48925  -0.48195  -0.46733
  Beta  occ. eigenvalues --   -0.45874  -0.43354  -0.42605  -0.41664  -0.39491
  Beta  occ. eigenvalues --   -0.37608  -0.37255  -0.36281  -0.34955  -0.33980
  Beta  occ. eigenvalues --   -0.33077  -0.32391  -0.31935  -0.31284  -0.30472
  Beta  occ. eigenvalues --   -0.29790  -0.28588  -0.26932  -0.26580  -0.25689
  Beta  occ. eigenvalues --   -0.24189  -0.22975  -0.20642  -0.20308  -0.19807
  Beta  occ. eigenvalues --   -0.19240  -0.18518  -0.15991  -0.15414  -0.14410
  Beta  occ. eigenvalues --   -0.12849
  Beta virt. eigenvalues --    0.06764   0.07158   0.07791   0.08112   0.08325
  Beta virt. eigenvalues --    0.08649   0.09301   0.10150   0.10405   0.11020
  Beta virt. eigenvalues --    0.11178   0.11998   0.12254   0.12679   0.12882

 Mulliken charges and spin densities:
               1          2
     1  C   -0.167398  -0.421689
     2  C   -0.273020   0.101594
     3  N   -0.039774   0.130838
     4  C   -0.061514  -0.051756
     5  C   -0.014039   0.088688
     6  C    0.939455   0.305268
     7  C    0.050202  -0.208621
     8  O   -0.077312  -0.022034
     9  C    0.753935  -0.888328
    10  O   -0.257744  -0.002985
    11  N   -0.516873   0.225299
    12  C   -0.586740  -0.141360
    13  C   -0.128654   0.042833
    14  O   -0.316714   0.005558
    15  N   -0.416059  -0.018297
    16  O   -0.168871  -0.000325
    17  C   -0.526154   0.033832
    18  S   -0.190798  -0.029694
    19  H    0.142666   0.027458
    20  H    0.018445   0.155582
    21  H    0.110866   0.049323
    22  H    0.159173  -0.001071
    23  H   -0.224554   0.514594
    24  H   -0.645000   0.955087
    25  H    0.128750   0.130068
    26  H    0.356659  -0.016943
    27  H    0.295340   0.007012
    28  H    0.242303   0.003712
    29  H    0.241694  -0.000360
    30  H    0.183897   0.010482
    31  H   -0.012166   0.016235
 Sum of Mulliken charges =  -1.00000   1.00000

 Dipole moment (field-independent basis, Debye):
    X=              5.6978    Y=              1.7102    Z=              0.1682  Tot=              5.9513
 Quadrupole moment (field-independent basis, Debye-Ang):
   XX=           -190.6139   YY=           -153.8103   ZZ=           -134.0906
   XY=            -14.2283   XZ=             -3.5046   YZ=              4.8710

 Summary of Natural Population Analysis:

                                       Natural Population
                Natural  -----------------------------------------------
    Atom  No    Charge         Core      Valence    Rydberg      Total
 -----------------------------------------------------------------------
      C    1   -0.30292      0.99964     2.29685    0.00644     3.30292
      C    2    0.10757      0.99949     1.87714    0.01581     2.89243
      N    3   -0.20723      0.99969     2.69657    0.01097     3.70723
      C    4    0.03459      0.99948     1.95345    0.01248     2.96541
      C    5   -0.02824      0.99941     2.01696    0.01187     3.02824
      C    6    0.01480      0.99937     1.97400    0.01184     2.98520
      C    7    0.12813      0.99923     1.85824    0.01440     2.87187
      O    8   -0.28440      0.99984     3.27550    0.00906     4.28440
      C    9    0.45996      0.99970     1.51398    0.02636     2.54004
      O   10   -0.34352      0.99985     3.33799    0.00567     4.34352
      N   11   -0.39665      0.99971     2.88833    0.00861     3.89665
      C   12    0.01918      0.99945     1.96594    0.01542     2.98082
      C   13    0.33239      0.99970     1.64228    0.02563     2.66761
      O   14   -0.33299      0.99987     3.32681    0.00631     4.33299
      N   15   -0.40246      0.99968     2.89592    0.00686     3.90246
      O   16   -0.36906      0.99990     3.36313    0.00604     4.36906
      C   17   -0.24636      0.99955     2.23905    0.00776     3.24636
      S   18   -0.03177      4.99967     3.01719    0.01491     8.03177
      H   19    0.10686      0.00000     0.39189    0.00125     0.39314
      H   20    0.10668      0.00000     0.39197    0.00135     0.39332
      H   21    0.10489      0.00000     0.39399    0.00112     0.39511
      H   22    0.08582      0.00000     0.41301    0.00118     0.41418
      H   23    0.20441      0.00000     0.28807    0.00752     0.29559
      H   24    0.20656      0.00000     0.27648    0.01696     0.29344
      H   25    0.10176      0.00000     0.39658    0.00166     0.39824
      H   26    0.21867      0.00000     0.27937    0.00196     0.28133
      H   27    0.19213      0.00000     0.30618    0.00169     0.30787
      H   28    0.23866      0.00000     0.25837    0.00296     0.26134
      H   29    0.10618      0.00000     0.39286    0.00096     0.39382
      H   30    0.11507      0.00000     0.38320    0.00173     0.38493
      H   31    0.06141      0.00000     0.43570    0.00290     0.43859
 =======================================================================
   * Total *    0.00013     21.99322    48.74698    0.25968    70.99987

 Normal termination of Gaussian 16 at Fri Dec 11 20:50:22 2020.
