 Gaussian 16, Revision A.03,

 -----------------------------------------------------------
 # opt freq B3LYP/6-31G(d) empiricaldispersion=gd3bj scf=xqc
 -----------------------------------------------------------

 ------------------------------
 CID_84676801_JID_5549_neutraal
 ------------------------------
 Symbolic Z-matrix:
 Charge =  0 Multiplicity = 1

 SCF Done:  E(RB3LYP) =  -708.684026400     A.U. after   15 cycles
 SCF Done:  E(RB3LYP) =  -708.687889160     A.U. after   12 cycles
 SCF Done:  E(RB3LYP) =  -708.687548723     A.U. after   12 cycles
 SCF Done:  E(RB3LYP) =  -708.688867329     A.U. after   12 cycles
 SCF Done:  E(RB3LYP) =  -708.689206254     A.U. after   12 cycles
 SCF Done:  E(RB3LYP) =  -708.689319541     A.U. after   12 cycles
 SCF Done:  E(RB3LYP) =  -708.689368435     A.U. after   11 cycles
 SCF Done:  E(RB3LYP) =  -708.689395829     A.U. after   11 cycles
 SCF Done:  E(RB3LYP) =  -708.689407810     A.U. after   11 cycles
 SCF Done:  E(RB3LYP) =  -708.689418272     A.U. after   10 cycles
 SCF Done:  E(RB3LYP) =  -708.689436582     A.U. after   11 cycles
 SCF Done:  E(RB3LYP) =  -708.689444062     A.U. after   12 cycles
 SCF Done:  E(RB3LYP) =  -708.689445018     A.U. after    9 cycles
 SCF Done:  E(RB3LYP) =  -708.689445102     A.U. after    7 cycles
 SCF Done:  E(RB3LYP) =  -708.689445116     A.U. after    7 cycles
 Optimization completed.
    -- Stationary point found.
 Normal termination of Gaussian 16 at Thu Dec 10 16:34:38 2020.

 --------------------------------------------------------------------
 #N Geom=AllCheck Guess=TCheck SCRF=Check GenChk RB3LYP/6-31G(d) Freq
 --------------------------------------------------------------------

 Structure from the checkpoint file:  "JID_5549.chk"
 ------------------------------
 CID_84676801_JID_5549_neutraal
 ------------------------------
 Charge =  0 Multiplicity = 1

 SCF Done:  E(RB3LYP) =  -708.689445116     A.U. after    1 cycles

  Exact polarizability: 171.270   7.623 128.036   1.733  13.626  88.024
 Approx polarizability: 245.623  14.108 197.918   8.553  28.082 140.219

                      1                      2                      3
                      A                      A                      A
 Frequencies --     19.9489                26.6923                44.9042
 Red. masses --      7.4237                 3.5189                 4.8888
 Frc consts  --      0.0017                 0.0015                 0.0058
 IR Inten    --      1.0775                 0.7701                 0.5093

                      4                      5                      6
                      A                      A                      A
 Frequencies --     86.7351                95.7938               107.8560
 Red. masses --      3.6756                 3.9169                 4.9549
 Frc consts  --      0.0163                 0.0212                 0.0340
 IR Inten    --      1.7788                 0.9338                 0.7837

                      7                      8                      9
                      A                      A                      A
 Frequencies --    179.8371               226.1575               248.8034
 Red. masses --      4.1307                 4.2027                 1.4438
 Frc consts  --      0.0787                 0.1266                 0.0527
 IR Inten    --      1.5058                 0.7862                 1.7549

                     10                     11                     12
                      A                      A                      A
 Frequencies --    263.2158               284.6384               300.8990
 Red. masses --      1.8928                 1.0455                 1.5932
 Frc consts  --      0.0773                 0.0499                 0.0850
 IR Inten    --      2.2921                 0.6809                16.5704

                     13                     14                     15
                      A                      A                      A
 Frequencies --    319.1447               358.0019               394.0913
 Red. masses --      2.1981                 2.4257                 2.8589
 Frc consts  --      0.1319                 0.1832                 0.2616
 IR Inten    --     11.3057                 3.7195                 9.0089

                     16                     17                     18
                      A                      A                      A
 Frequencies --    398.4499               431.0319               449.5472
 Red. masses --      3.6434                 2.6820                 4.3409
 Frc consts  --      0.3408                 0.2936                 0.5169
 IR Inten    --      2.1002                 3.5684                 0.3656

                     19                     20                     21
                      A                      A                      A
 Frequencies --    462.9908               493.9737               522.1550
 Red. masses --      3.1434                 2.9840                 1.4979
 Frc consts  --      0.3970                 0.4290                 0.2406
 IR Inten    --     14.8237                 9.4291               238.1914

                     22                     23                     24
                      A                      A                      A
 Frequencies --    532.8771               548.4903               591.0420
 Red. masses --      2.9635                 2.5903                 3.9738
 Frc consts  --      0.4958                 0.4591                 0.8179
 IR Inten    --      8.9456                35.0023                63.1521

                     25                     26                     27
                      A                      A                      A
 Frequencies --    637.7018               675.8203               712.1915
 Red. masses --      2.5703                 1.8341                 5.1537
 Frc consts  --      0.6158                 0.4936                 1.5402
 IR Inten    --     32.8242                71.4281                 7.3338

                     28                     29                     30
                      A                      A                      A
 Frequencies --    735.8853               768.8322               811.2017
 Red. masses --      3.5235                 4.1736                 4.0862
 Frc consts  --      1.1242                 1.4535                 1.5843
 IR Inten    --     33.4292                 4.4853                 5.0531

                     31                     32                     33
                      A                      A                      A
 Frequencies --    825.8457               836.1370               887.6290
 Red. masses --      1.9018                 2.2003                 2.3999
 Frc consts  --      0.7642                 0.9063                 1.1140
 IR Inten    --     12.9807                24.2024                 3.0516

                     34                     35                     36
                      A                      A                      A
 Frequencies --    915.3554               933.8569               935.9167
 Red. masses --      2.2958                 1.5122                 1.3490
 Frc consts  --      1.1334                 0.7770                 0.6962
 IR Inten    --      2.4960                 8.7632                 0.3614

                     37                     38                     39
                      A                      A                      A
 Frequencies --    949.6428               951.4272               962.6092
 Red. masses --      1.2748                 2.2709                 2.0357
 Frc consts  --      0.6774                 1.2112                 1.1114
 IR Inten    --      0.4662                24.1172                10.0991

                     40                     41                     42
                      A                      A                      A
 Frequencies --    999.2598              1086.8636              1131.6326
 Red. masses --      2.9521                 1.6770                 1.8369
 Frc consts  --      1.7367                 1.1672                 1.3860
 IR Inten    --     28.8430                 1.3345               242.1235

                     43                     44                     45
                      A                      A                      A
 Frequencies --   1157.2593              1163.0300              1179.6463
 Red. masses --      2.1071                 1.6567                 1.4530
 Frc consts  --      1.6626                 1.3203                 1.1913
 IR Inten    --     11.1516                73.4856                22.2601

                     46                     47                     48
                      A                      A                      A
 Frequencies --   1189.1822              1213.2531              1237.2878
 Red. masses --      1.6565                 2.0053                 1.5421
 Frc consts  --      1.3802                 1.7391                 1.3910
 IR Inten    --     77.0612                 5.2845               115.0790

                     49                     50                     51
                      A                      A                      A
 Frequencies --   1266.5016              1310.8297              1330.7504
 Red. masses --      2.7351                 1.4879                 1.3883
 Frc consts  --      2.5848                 1.5063                 1.4486
 IR Inten    --    116.3795                 6.6453                 7.1749

                     52                     53                     54
                      A                      A                      A
 Frequencies --   1335.3251              1362.7595              1381.1606
 Red. masses --      3.5438                 3.9360                 1.3288
 Frc consts  --      3.7230                 4.3067                 1.4935
 IR Inten    --      6.2520                11.9358                 3.4561

                     55                     56                     57
                      A                      A                      A
 Frequencies --   1387.6098              1411.8287              1428.1580
 Red. masses --      2.1708                 1.2944                 1.3342
 Frc consts  --      2.4627                 1.5201                 1.6034
 IR Inten    --     59.0090                 4.0111                16.7240

                     58                     59                     60
                      A                      A                      A
 Frequencies --   1442.1045              1475.1078              1505.9044
 Red. masses --      1.2475                 3.8594                 1.1291
 Frc consts  --      1.5286                 4.9478                 1.5086
 IR Inten    --     16.7360                23.2067                 8.1743

                     61                     62                     63
                      A                      A                      A
 Frequencies --   1513.3794              1520.7067              1525.9380
 Red. masses --      1.0475                 1.0529                 1.0532
 Frc consts  --      1.4134                 1.4346                 1.4450
 IR Inten    --      0.7872                 2.3946                 9.9783

                     64                     65                     66
                      A                      A                      A
 Frequencies --   1541.0392              1555.5608              1634.8989
 Red. masses --      1.0749                 2.6714                 6.2790
 Frc consts  --      1.5039                 3.8086                 9.8882
 IR Inten    --      0.8775               184.6352                 2.9185

                     67                     68                     69
                      A                      A                      A
 Frequencies --   1674.5726              1705.7325              1861.9545
 Red. masses --      4.4830                 1.2453                 9.6605
 Frc consts  --      7.4067                 2.1347                19.7328
 IR Inten    --      4.4167                94.7433               225.6893

                     70                     71                     72
                      A                      A                      A
 Frequencies --   3053.4295              3058.3760              3061.6791
 Red. masses --      1.0350                 1.0357                 1.0638
 Frc consts  --      5.6854                 5.7076                 5.8752
 IR Inten    --     16.6410                 8.2405                20.5742

                     73                     74                     75
                      A                      A                      A
 Frequencies --   3074.3596              3121.2665              3121.5868
 Red. masses --      1.0866                 1.1018                 1.0998
 Frc consts  --      6.0509                 6.3243                 6.3144
 IR Inten    --     32.4065                 2.6020                 5.4353

                     76                     77                     78
                      A                      A                      A
 Frequencies --   3127.2006              3133.0694              3137.5408
 Red. masses --      1.1019                 1.1037                 1.1023
 Frc consts  --      6.3488                 6.3833                 6.3932
 IR Inten    --     58.8076                15.4825                51.2425

                     79                     80                     81
                      A                      A                      A
 Frequencies --   3176.6644              3209.6938              3217.4399
 Red. masses --      1.0889                 1.0908                 1.0929
 Frc consts  --      6.4739                 6.6207                 6.6656
 IR Inten    --     20.3826                 7.7137                10.9653

                     82                     83                     84
                      A                      A                      A
 Frequencies --   3567.2497              3670.4422              3680.0459
 Red. masses --      1.0475                 1.0993                 1.0639
 Frc consts  --      7.8535                 8.7262                 8.4890
 IR Inten    --     19.6506                19.7746                51.2440

 - Thermochemistry -
 -------------------
 Temperature   298.150 Kelvin.  Pressure   1.00000 Atm.
 Atom     1 has atomic number  6 and mass  12.00000

 Molecular mass:   209.10519 amu.
 Principal axes and moments of inertia in atomic units:
                           1         2         3
     Eigenvalues --  1767.907205073.888396077.07484
           X            0.99963   0.02303  -0.01480
           Y           -0.02268   0.99946   0.02364
           Z            0.01533  -0.02330   0.99961
 This molecule is an asymmetric top.
 Rotational symmetry number  1.
 Warning -- assumption of classical behavior for rotation
           may cause significant error
 Rotational temperatures (Kelvin)      0.04899     0.01707     0.01425
 Rotational constants (GHZ):           1.02083     0.35569     0.29698
 Zero-point vibrational energy     657148.3 (Joules/Mol)
                                  157.06221 (Kcal/Mol)
 Warning -- explicit consideration of  24 degrees of freedom as
           vibrations may cause significant error
 Vibrational temperatures:     28.70    38.40    64.61   124.79   137.83
          (Kelvin)            155.18   258.75   325.39   357.97   378.71
                              409.53   432.93   459.18   515.08   567.01
                              573.28   620.16   646.80   666.14   710.72
                              751.26   766.69   789.16   850.38   917.51
                              972.35  1024.68  1058.77  1106.18  1167.14
                             1188.21  1203.01  1277.10  1316.99  1343.61
                             1346.58  1366.32  1368.89  1384.98  1437.71
                             1563.75  1628.17  1665.04  1673.34  1697.25
                             1710.97  1745.60  1780.18  1822.21  1885.99
                             1914.65  1921.24  1960.71  1987.18  1996.46
                             2031.31  2054.80  2074.87  2122.35  2166.66
                             2177.42  2187.96  2195.48  2217.21  2238.11
                             2352.25  2409.34  2454.17  2678.94  4393.20
                             4400.32  4405.07  4423.32  4490.81  4491.27
                             4499.34  4507.79  4514.22  4570.51  4618.03
                             4629.18  5132.48  5280.95  5294.77

 Zero-point correction=                           0.250295 (Hartree/Particle)
 Thermal correction to Energy=                    0.265500
 Thermal correction to Enthalpy=                  0.266444
 Thermal correction to Gibbs Free Energy=         0.206325
 Sum of electronic and zero-point Energies=           -708.439151
 Sum of electronic and thermal Energies=              -708.423945
 Sum of electronic and thermal Enthalpies=            -708.423001
 Sum of electronic and thermal Free Energies=         -708.483121

                     E (Thermal)             CV                S
                      KCal/Mol        Cal/Mol-Kelvin    Cal/Mol-Kelvin
 Total                  166.604             57.564            126.532
 Electronic               0.000              0.000              0.000
 Translational            0.889              2.981             41.917
 Rotational               0.889              2.981             32.366
 Vibrational            164.826             51.602             52.249
 Vibration     1          0.593              1.986              6.639
 Vibration     2          0.593              1.984              6.061
 Vibration     3          0.595              1.979              5.030
 Vibration     4          0.601              1.958              3.732
 Vibration     5          0.603              1.952              3.538
 Vibration     6          0.606              1.943              3.307
 Vibration     7          0.629              1.867              2.330
 Vibration     8          0.650              1.801              1.909
 Vibration     9          0.662              1.765              1.739
 Vibration    10          0.670              1.740              1.640
 Vibration    11          0.683              1.702              1.506
 Vibration    12          0.693              1.672              1.412
 Vibration    13          0.705              1.637              1.314
 Vibration    14          0.733              1.559              1.131
 Vibration    15          0.761              1.483              0.985
 Vibration    16          0.765              1.473              0.968
 Vibration    17          0.792              1.403              0.855
 Vibration    18          0.808              1.362              0.797
 Vibration    19          0.821              1.332              0.757
 Vibration    20          0.850              1.263              0.673
 Vibration    21          0.877              1.201              0.605
 Vibration    22          0.888              1.177              0.581
 Vibration    23          0.904              1.143              0.547
 Vibration    24          0.948              1.051              0.465

 Optimization completed.
    -- Stationary point found.
 Normal termination of Gaussian 16 at Thu Dec 10 16:44:17 2020.

 ----------------------------------------------------------------------
 # B3LYP/6-311++G(d,p) empiricaldispersion=gd3bj scf=xqc pop=npa geom=c
 heck
 ----------------------------------------------------------------------

 --------------------------------------
 CID_84676801_JID_5549_Energie_neutraal
 --------------------------------------
 Structure from the checkpoint file:  "JID_5549.chk"
 Charge =  0 Multiplicity = 1

 SCF Done:  E(RB3LYP) =  -708.904537273     A.U. after   16 cycles
 Normal termination of Gaussian 16 at Thu Dec 10 16:48:40 2020.

 ----------------------------------------------------------------------
 # B3LYP/6-311++G(d,p) empiricaldispersion=gd3bj scf=xqc pop=npa geom=c
 heck
 ----------------------------------------------------------------------

 ------------------------------------
 CID_84676801_JID_5549_Energie_kation
 ------------------------------------
 Structure from the checkpoint file:  "JID_5549.chk"
 Charge =  1 Multiplicity = 2

 SCF Done:  E(UB3LYP) =  -708.631078934     A.U. after   22 cycles
 Normal termination of Gaussian 16 at Thu Dec 10 16:57:27 2020.
 Gaussian 16:  ES64L-G16RevA.03 25-Dec-2016

 ----------------------------------------------------------------------
 # B3LYP/6-311++G(d,p) empiricaldispersion=gd3bj scf=xqc pop=npa geom=c
 heck
 ----------------------------------------------------------------------

 -----------------------------------
 CID_84676801_JID_5549_Energie_anion
 -----------------------------------
 Structure from the checkpoint file:  "JID_5549.chk"
 Charge = -1 Multiplicity = 2

                         Standard orientation:
 ---------------------------------------------------------------------
 Center     Atomic      Atomic             Coordinates (Angstroms)
 Number     Number       Type             X           Y           Z
 ---------------------------------------------------------------------
      1          6           0       -2.730277   -2.053023    0.171895
      2          6           0       -3.432041   -0.713777   -0.043191
      3          6           0       -3.720720    0.006424    1.272015
      4          8           0       -2.719468    0.132453   -0.979605
      5          6           0       -1.458699    0.560562   -0.614616
      6          6           0       -0.331933   -0.187884   -0.954053
      7          6           0        0.957398    0.249012   -0.645758
      8          6           0        1.131074    1.472462    0.036902
      9          6           0       -0.006329    2.235718    0.346391
     10          6           0       -1.283146    1.790316    0.024684
     11          7           0        2.390710    1.905055    0.456766
     12          6           0        2.151446   -0.588199   -1.054317
     13          6           0        2.834554   -1.231265    0.141237
     14          8           0        2.357258   -2.083014    0.851821
     15          8           0        4.079482   -0.718241    0.344852
     16          1           0       -1.774974   -1.924071    0.690769
     17          1           0       -2.540876   -2.547568   -0.786175
     18          1           0       -3.360499   -2.711346    0.780291
     19          1           0       -4.377849   -0.889064   -0.566634
     20          1           0       -2.796874    0.203690    1.825373
     21          1           0       -4.225829    0.959895    1.087377
     22          1           0       -4.369073   -0.611442    1.903219
     23          1           0       -0.467262   -1.124984   -1.484164
     24          1           0        0.120650    3.186375    0.859016
     25          1           0       -2.153340    2.393560    0.261133
     26          1           0        2.489589    2.906896    0.554327
     27          1           0        3.196096    1.477573    0.020201
     28          1           0        1.813563   -1.401565   -1.702633
     29          1           0        2.884985    0.001950   -1.615915
     30          1           0        4.420595   -1.146941    1.152769
 ---------------------------------------------------------------------

 SCF Done:  E(UB3LYP) =  -708.893426571     A.U. after   33 cycles
 SCF Done:  E(UB3LYP) =  -708.893426571     a.u. after    1 cycles

 The electronic state is 2-A.
 Alpha  occ. eigenvalues --  -19.07202 -19.03446 -19.01708 -14.21234 -10.20859
 Alpha  occ. eigenvalues --  -10.13767 -10.11667 -10.11387 -10.09311 -10.08467
 Alpha  occ. eigenvalues --  -10.07314 -10.07297 -10.07148 -10.07132 -10.06976
 Alpha  occ. eigenvalues --   -1.01109  -0.94887  -0.92358  -0.81940  -0.74320
 Alpha  occ. eigenvalues --   -0.69908  -0.68668  -0.63217  -0.61351  -0.60389
 Alpha  occ. eigenvalues --   -0.53050  -0.52594  -0.50771  -0.46423  -0.42275
 Alpha  occ. eigenvalues --   -0.41913  -0.40328  -0.39916  -0.39083  -0.38335
 Alpha  occ. eigenvalues --   -0.36593  -0.35552  -0.33856  -0.33310  -0.33019
 Alpha  occ. eigenvalues --   -0.31816  -0.30901  -0.30089  -0.29891  -0.28990
 Alpha  occ. eigenvalues --   -0.28248  -0.27366  -0.27237  -0.24940  -0.23968
 Alpha  occ. eigenvalues --   -0.22943  -0.19942  -0.18935  -0.17816  -0.15280
 Alpha  occ. eigenvalues --   -0.10257   0.04219
 Alpha virt. eigenvalues --    0.05699   0.06857   0.07086   0.08041   0.08372
 Alpha virt. eigenvalues --    0.08552   0.08917   0.10166   0.10309   0.10425
 Alpha virt. eigenvalues --    0.10827   0.11654   0.12472   0.12633   0.13646

  Beta  occ. eigenvalues --  -19.07148 -19.03446 -19.01685 -14.21180 -10.20834
  Beta  occ. eigenvalues --  -10.13761 -10.11669 -10.11385 -10.09280 -10.08462
  Beta  occ. eigenvalues --  -10.07297 -10.07288 -10.07138 -10.07106 -10.06951
  Beta  occ. eigenvalues --   -1.01031  -0.94883  -0.92289  -0.81880  -0.74276
  Beta  occ. eigenvalues --   -0.69874  -0.68631  -0.63156  -0.61294  -0.60359
  Beta  occ. eigenvalues --   -0.52998  -0.52520  -0.50696  -0.46373  -0.42232
  Beta  occ. eigenvalues --   -0.41843  -0.40290  -0.39863  -0.39047  -0.38293
  Beta  occ. eigenvalues --   -0.36517  -0.35506  -0.33814  -0.33268  -0.32992
  Beta  occ. eigenvalues --   -0.31779  -0.30853  -0.30069  -0.29844  -0.28964
  Beta  occ. eigenvalues --   -0.28209  -0.27331  -0.27211  -0.24907  -0.23943
  Beta  occ. eigenvalues --   -0.22851  -0.19892  -0.18887  -0.17806  -0.15190
  Beta  occ. eigenvalues --   -0.10199
  Beta virt. eigenvalues --    0.06003   0.06982   0.07517   0.07718   0.08426
  Beta virt. eigenvalues --    0.08737   0.08834   0.09622   0.10318   0.10420
  Beta virt. eigenvalues --    0.10763   0.11282   0.11797   0.12500   0.12694

 Mulliken charges and spin densities:
               1          2
     1  C   -0.115812  -0.488406
     2  C   -0.255017   0.429601
     3  C   -0.068722  -0.544900
     4  O   -0.095958  -0.000232
     5  C   -0.506472  -0.556476
     6  C    0.175525  -0.190739
     7  C    1.882241   0.653383
     8  C   -2.759916   1.139385
     9  C   -0.838984   0.459699
    10  C    0.698900  -0.411035
    11  N   -0.225175  -0.045508
    12  C    2.623034  -3.200096
    13  C    0.155256  -0.291803
    14  O   -0.324012   0.033662
    15  O   -0.186939   0.068960
    16  H    0.197831  -0.022547
    17  H    0.038160   0.107236
    18  H   -0.009925   0.137995
    19  H   -0.080982   0.264198
    20  H    0.109333   0.055683
    21  H    0.034949   0.116190
    22  H   -0.092533   0.213774
    23  H   -0.003498   0.167181
    24  H   -0.371242   0.541207
    25  H    0.068501   0.081091
    26  H   -0.453111   0.713364
    27  H    0.118162   0.159374
    28  H   -0.185188   0.348778
    29  H   -0.226329   0.470383
    30  H   -0.302076   0.590599
 Sum of Mulliken charges =  -1.00000   1.00000

 Dipole moment (field-independent basis, Debye):
    X=             -5.6140    Y=             -1.6726    Z=             -0.7270  Tot=              5.9028
 Quadrupole moment (field-independent basis, Debye-Ang):
   XX=           -166.3907   YY=           -135.0619   ZZ=           -120.0731
   XY=             -4.9387   XZ=             -4.9690   YZ=              1.3211

 Summary of Natural Population Analysis:

                                       Natural Population
                Natural  -----------------------------------------------
    Atom  No    Charge         Core      Valence    Rydberg      Total
 -----------------------------------------------------------------------
      C    1   -0.30230      0.99964     2.29775    0.00490     3.30230
      C    2    0.06763      0.99955     1.91883    0.01399     2.93237
      C    3   -0.30139      0.99964     2.29690    0.00484     3.30139
      O    4   -0.29976      0.99986     3.29008    0.00981     4.29976
      C    5    0.12893      0.99935     1.85771    0.01401     2.87107
      C    6   -0.10238      0.99947     2.09379    0.00912     3.10238
      C    7   -0.03574      0.99947     2.02560    0.01068     3.03574
      C    8    0.08542      0.99944     1.90343    0.01171     2.91458
      C    9   -0.11468      0.99953     2.10546    0.00968     3.11468
      C   10   -0.11075      0.99951     2.10189    0.00934     3.11075
      N   11   -0.39665      0.99971     2.88712    0.00982     3.89665
      C   12   -0.24620      0.99955     2.23609    0.01055     3.24620
      C   13    0.41275      0.99972     1.56183    0.02570     2.58725
      O   14   -0.30196      0.99986     3.29598    0.00611     4.30196
      O   15   -0.34853      0.99988     3.34114    0.00751     4.34853
      H   16    0.10707      0.00000     0.39191    0.00102     0.39293
      H   17    0.10206      0.00000     0.39688    0.00106     0.39794
      H   18    0.10005      0.00000     0.39910    0.00085     0.39995
      H   19    0.08646      0.00000     0.41218    0.00137     0.41354
      H   20    0.10462      0.00000     0.39432    0.00106     0.39538
      H   21    0.10141      0.00000     0.39742    0.00117     0.39859
      H   22    0.10061      0.00000     0.39843    0.00097     0.39939
      H   23    0.10297      0.00000     0.39534    0.00170     0.39703
      H   24    0.09992      0.00000     0.39866    0.00142     0.40008
      H   25    0.10208      0.00000     0.39639    0.00153     0.39792
      H   26    0.18949      0.00000     0.30495    0.00556     0.31051
      H   27    0.19388      0.00000     0.30241    0.00372     0.30612
      H   28    0.11804      0.00000     0.38067    0.00129     0.38196
      H   29    0.11293      0.00000     0.38508    0.00199     0.38707
      H   30    0.24404      0.00000     0.24659    0.00937     0.25596
 =======================================================================
   * Total *    0.00000     14.99420    40.81395    0.19186    56.00000

 Normal termination of Gaussian 16 at Thu Dec 10 17:10:33 2020.
