 Gaussian 16, Revision A.03,

 -----------------------------------------------------------
 # opt freq B3LYP/6-31G(d) empiricaldispersion=gd3bj scf=xqc
 -----------------------------------------------------------

 ------------------------------
 CID_22474126_JID_2069_neutraal
 ------------------------------
 Symbolic Z-matrix:
 Charge =  0 Multiplicity = 1

 SCF Done:  E(RB3LYP) =  -859.338072035     A.U. after   15 cycles
 SCF Done:  E(RB3LYP) =  -859.342833649     A.U. after   14 cycles
 SCF Done:  E(RB3LYP) =  -859.343407701     A.U. after   14 cycles
 SCF Done:  E(RB3LYP) =  -859.343940548     A.U. after   14 cycles
 SCF Done:  E(RB3LYP) =  -859.344436847     A.U. after   11 cycles
 SCF Done:  E(RB3LYP) =  -859.344742428     A.U. after   13 cycles
 SCF Done:  E(RB3LYP) =  -859.344876368     A.U. after   13 cycles
 SCF Done:  E(RB3LYP) =  -859.344900100     A.U. after    9 cycles
 SCF Done:  E(RB3LYP) =  -859.344904373     A.U. after   10 cycles
 SCF Done:  E(RB3LYP) =  -859.344904588     A.U. after    7 cycles
 SCF Done:  E(RB3LYP) =  -859.344904621     A.U. after    7 cycles
 Optimization completed.
    -- Stationary point found.
 Normal termination of Gaussian 16 at Wed Dec  9 16:45:30 2020.

 --------------------------------------------------------------------
 #N Geom=AllCheck Guess=TCheck SCRF=Check GenChk RB3LYP/6-31G(d) Freq
 --------------------------------------------------------------------

 Structure from the checkpoint file:  "JID_2069.chk"
 ------------------------------
 CID_22474126_JID_2069_neutraal
 ------------------------------
 Charge =  0 Multiplicity = 1

 SCF Done:  E(RB3LYP) =  -859.344904621     A.U. after    1 cycles

  Exact polarizability: 166.919   7.360 142.571   0.002   0.001  49.790
 Approx polarizability: 272.904   9.570 267.220   0.006  -0.001  79.040

                      1                      2                      3
                      A                      A                      A
 Frequencies --     50.4823               107.7004               183.8650
 Red. masses --      4.3028                 6.3588                 1.1163
 Frc consts  --      0.0065                 0.0435                 0.0222
 IR Inten    --      3.4690                 0.9878                 0.6589

                      4                      5                      6
                      A                      A                      A
 Frequencies --    203.5719               211.6092               219.5557
 Red. masses --      5.7612                 3.5036                 4.2818
 Frc consts  --      0.1407                 0.0924                 0.1216
 IR Inten    --      5.3680                 0.5235                 0.8569

                      7                      8                      9
                      A                      A                      A
 Frequencies --    336.6036               365.4192               417.9108
 Red. masses --      3.5664                 8.0297                 7.6004
 Frc consts  --      0.2381                 0.6317                 0.7821
 IR Inten    --      0.4410                 0.2489                 1.4023

                     10                     11                     12
                      A                      A                      A
 Frequencies --    439.7319               484.7050               534.1825
 Red. masses --      4.0316                 4.6346                 5.5425
 Frc consts  --      0.4593                 0.6415                 0.9318
 IR Inten    --      0.6833                 3.0989                 0.6698

                     13                     14                     15
                      A                      A                      A
 Frequencies --    574.5750               592.6768               609.0463
 Red. masses --      3.3102                 6.3055                 4.4330
 Frc consts  --      0.6439                 1.3050                 0.9688
 IR Inten    --      2.5526                 3.6196                25.7893

                     16                     17                     18
                      A                      A                      A
 Frequencies --    623.8333               702.3568               719.2034
 Red. masses --      3.0861                 7.5168                 1.5541
 Frc consts  --      0.7076                 2.1847                 0.4736
 IR Inten    --      3.4072                11.3777                14.0227

                     19                     20                     21
                      A                      A                      A
 Frequencies --    776.1863               791.9749               805.9884
 Red. masses --      1.3616                 6.3607                 2.3081
 Frc consts  --      0.4833                 2.3506                 0.8834
 IR Inten    --     63.3950                14.7499                 0.0380

                     22                     23                     24
                      A                      A                      A
 Frequencies --    840.0013               889.0504               917.6565
 Red. masses --      5.6147                 3.9252                 1.3431
 Frc consts  --      2.3342                 1.8280                 0.6664
 IR Inten    --     12.9001                21.9710                 0.2321

                     25                     26                     27
                      A                      A                      A
 Frequencies --    936.4113               970.8943               983.2855
 Red. masses --      1.2858                 1.2958                 2.0949
 Frc consts  --      0.6643                 0.7197                 1.1934
 IR Inten    --      2.3030                 0.9510                24.4156

                     28                     29                     30
                      A                      A                      A
 Frequencies --   1053.8860              1102.6211              1112.3734
 Red. masses --      1.8357                 2.1019                 2.0339
 Frc consts  --      1.2013                 1.5056                 1.4828
 IR Inten    --      2.2556                 0.6000                 1.4775

                     31                     32                     33
                      A                      A                      A
 Frequencies --   1119.8151              1191.2790              1237.1086
 Red. masses --      1.4958                 1.4132                 1.6536
 Frc consts  --      1.1051                 1.1816                 1.4911
 IR Inten    --     13.5251                14.9437                15.2145

                     34                     35                     36
                      A                      A                      A
 Frequencies --   1241.2546              1293.5764              1358.0367
 Red. masses --      2.0524                 2.6428                 3.3187
 Frc consts  --      1.8631                 2.6055                 3.6061
 IR Inten    --     77.1279               171.7514                13.4854

                     37                     38                     39
                      A                      A                      A
 Frequencies --   1383.2907              1409.3201              1454.1977
 Red. masses --      3.3116                 1.3341                 3.0807
 Frc consts  --      3.7335                 1.5613                 3.8384
 IR Inten    --      3.1001                31.2589                30.7710

                     40                     41                     42
                      A                      A                      A
 Frequencies --   1499.5575              1506.3461              1510.4583
 Red. masses --      1.4182                 1.7253                 1.0482
 Frc consts  --      1.8789                 2.3065                 1.4090
 IR Inten    --      7.4690                 9.9112                 9.1870

                     43                     44                     45
                      A                      A                      A
 Frequencies --   1551.8530              1608.1825              1640.8538
 Red. masses --      4.6885                 6.1644                 5.4376
 Frc consts  --      6.6525                 9.3931                 8.6258
 IR Inten    --      7.1609                50.1839                 1.3146

                     46                     47                     48
                      A                      A                      A
 Frequencies --   1766.0679              3057.4443              3118.6254
 Red. masses --     10.7191                 1.0380                 1.1003
 Frc consts  --     19.6981                 5.7170                 6.3049
 IR Inten    --    144.1880                 2.6540                 9.7976

                     49                     50                     51
                      A                      A                      A
 Frequencies --   3172.2079              3196.8592              3211.5221
 Red. masses --      1.1014                 1.0868                 1.0934
 Frc consts  --      6.5302                 6.5441                 6.6444
 IR Inten    --     11.4707                 1.1995                14.2482

                     52                     53                     54
                      A                      A                      A
 Frequencies --   3228.4424              3262.8665              3294.5058
 Red. masses --      1.0925                 1.0912                 1.0969
 Frc consts  --      6.7088                 6.8444                 7.0142
 IR Inten    --     13.0237                 2.2571                 5.6686

 - Thermochemistry -
 -------------------
 Temperature   298.150 Kelvin.  Pressure   1.00000 Atm.
 Atom     1 has atomic number  6 and mass  12.00000

 Molecular mass:   176.02959 amu.
 Principal axes and moments of inertia in atomic units:
                           1         2         3
     Eigenvalues --  1198.625492691.016273878.39445
           X            0.99981   0.01949  -0.00001
           Y           -0.01949   0.99981   0.00000
           Z            0.00001  -0.00000   1.00000
 This molecule is an asymmetric top.
 Rotational symmetry number  1.
 Warning -- assumption of classical behavior for rotation
           may cause significant error
 Rotational temperatures (Kelvin)      0.07226     0.03219     0.02233
 Rotational constants (GHZ):           1.50568     0.67065     0.46533
 Zero-point vibrational energy     399977.6 (Joules/Mol)
                                   95.59694 (Kcal/Mol)
 Warning -- explicit consideration of  15 degrees of freedom as
           vibrations may cause significant error
 Vibrational temperatures:     72.63   154.96   264.54   292.89   304.46
          (Kelvin)            315.89   484.30   525.76   601.28   632.68
                              697.38   768.57   826.69   852.73   876.28
                              897.56  1010.53  1034.77  1116.76  1139.48
                             1159.64  1208.57  1279.15  1320.30  1347.29
                             1396.90  1414.73  1516.31  1586.43  1600.46
                             1611.16  1713.98  1779.92  1785.89  1861.17
                             1953.91  1990.25  2027.70  2092.27  2157.53
                             2167.30  2173.21  2232.77  2313.82  2360.82
                             2540.98  4398.98  4487.01  4564.10  4599.57
                             4620.66  4645.01  4694.54  4740.06

 Zero-point correction=                           0.152343 (Hartree/Particle)
 Thermal correction to Energy=                    0.162284
 Thermal correction to Enthalpy=                  0.163228
 Thermal correction to Gibbs Free Energy=         0.116442
 Sum of electronic and zero-point Energies=           -859.192561
 Sum of electronic and thermal Energies=              -859.182621
 Sum of electronic and thermal Enthalpies=            -859.181677
 Sum of electronic and thermal Free Energies=         -859.228462

                     E (Thermal)             CV                S
                      KCal/Mol        Cal/Mol-Kelvin    Cal/Mol-Kelvin
 Total                  101.835             38.899             98.469
 Electronic               0.000              0.000              0.000
 Translational            0.889              2.981             41.404
 Rotational               0.889              2.981             30.904
 Vibrational            100.057             32.938             26.161
 Vibration     1          0.595              1.977              4.798
 Vibration     2          0.606              1.943              3.310
 Vibration     3          0.631              1.862              2.289
 Vibration     4          0.639              1.835              2.101
 Vibration     5          0.643              1.823              2.030
 Vibration     6          0.647              1.811              1.963
 Vibration     7          0.717              1.602              1.228
 Vibration     8          0.739              1.543              1.099
 Vibration     9          0.781              1.431              0.899
 Vibration    10          0.800              1.384              0.827
 Vibration    11          0.841              1.284              0.697
 Vibration    12          0.889              1.174              0.578
 Vibration    13          0.931              1.086              0.496
 Vibration    14          0.950              1.047              0.462
 Vibration    15          0.968              1.013              0.434

 Optimization completed.
    -- Stationary point found.
 Normal termination of Gaussian 16 at Wed Dec  9 16:49:39 2020.

 ----------------------------------------------------------------------
 # B3LYP/6-311++G(d,p) empiricaldispersion=gd3bj scf=xqc pop=npa geom=c
 heck
 ----------------------------------------------------------------------

 --------------------------------------
 CID_22474126_JID_2069_Energie_neutraal
 --------------------------------------
 Structure from the checkpoint file:  "JID_2069.chk"
 Charge =  0 Multiplicity = 1

 SCF Done:  E(RB3LYP) =  -859.491666121     A.U. after   16 cycles
 Normal termination of Gaussian 16 at Wed Dec  9 16:51:14 2020.

 ----------------------------------------------------------------------
 # B3LYP/6-311++G(d,p) empiricaldispersion=gd3bj scf=xqc pop=npa geom=c
 heck
 ----------------------------------------------------------------------

 ------------------------------------
 CID_22474126_JID_2069_Energie_kation
 ------------------------------------
 Structure from the checkpoint file:  "JID_2069.chk"
 Charge =  1 Multiplicity = 2

 SCF Done:  E(UB3LYP) =  -859.189552678     A.U. after   25 cycles
 Normal termination of Gaussian 16 at Wed Dec  9 16:54:20 2020.
 Gaussian 16:  ES64L-G16RevA.03 25-Dec-2016

 ----------------------------------------------------------------------
 # B3LYP/6-311++G(d,p) empiricaldispersion=gd3bj scf=xqc pop=npa geom=c
 heck
 ----------------------------------------------------------------------

 -----------------------------------
 CID_22474126_JID_2069_Energie_anion
 -----------------------------------
 Structure from the checkpoint file:  "JID_2069.chk"
 Charge = -1 Multiplicity = 2

                         Standard orientation:
 ---------------------------------------------------------------------
 Center     Atomic      Atomic             Coordinates (Angstroms)
 Number     Number       Type             X           Y           Z
 ---------------------------------------------------------------------
      1          6           0        3.671287   -0.074961   -0.000333
      2          6           0        2.277881   -0.687752    0.000057
      3          8           0        2.156338   -1.905569    0.000356
      4          6           0        1.095307    0.223393    0.000019
      5          6           0       -0.230385   -0.292734    0.000007
      6          6           0       -0.697998   -1.655855   -0.000016
      7          6           0       -2.054118   -1.747173   -0.000090
      8         16           0       -2.861128   -0.196694   -0.000061
      9          6           0       -1.312087    0.627154    0.000010
     10          6           0       -1.119559    2.009456    0.000035
     11          6           0        0.182365    2.495255    0.000101
     12          6           0        1.268145    1.611045    0.000072
     13          1           0        4.399407   -0.887231   -0.000802
     14          1           0        3.830106    0.553021    0.883666
     15          1           0        3.829447    0.553471   -0.884130
     16          1           0       -0.029715   -2.503285    0.000013
     17          1           0       -2.649795   -2.650474   -0.000165
     18          1           0       -1.967250    2.688020    0.000062
     19          1           0        0.360301    3.566149    0.000178
     20          1           0        2.269825    2.025008    0.000136
 ---------------------------------------------------------------------

 SCF Done:  E(UB3LYP) =  -859.509963334     A.U. after   22 cycles

 The electronic state is 2-A.
 Alpha  occ. eigenvalues --  -88.73046 -18.92027 -10.06917 -10.05857 -10.04997
 Alpha  occ. eigenvalues --  -10.02850 -10.02716 -10.02691 -10.02417 -10.02178
 Alpha  occ. eigenvalues --  -10.02028 -10.01353  -7.81705  -5.78002  -5.77668
 Alpha  occ. eigenvalues --   -5.77258  -0.86165  -0.74206  -0.68140  -0.62571
 Alpha  occ. eigenvalues --   -0.59492  -0.57848  -0.55886  -0.48144  -0.44053
 Alpha  occ. eigenvalues --   -0.42751  -0.38497  -0.34570  -0.33733  -0.30905
 Alpha  occ. eigenvalues --   -0.30143  -0.29508  -0.28714  -0.25553  -0.24954
 Alpha  occ. eigenvalues --   -0.24694  -0.24486  -0.21944  -0.20896  -0.20878
 Alpha  occ. eigenvalues --   -0.19569  -0.18768  -0.13664  -0.09914  -0.08200
 Alpha  occ. eigenvalues --   -0.08193   0.04186
 Alpha virt. eigenvalues --    0.09059   0.09750   0.09986   0.11281   0.11761
 Alpha virt. eigenvalues --    0.12755   0.12893   0.13569   0.14620   0.15218
 Alpha virt. eigenvalues --    0.15319   0.16293   0.16892   0.16934   0.17059

  Beta  occ. eigenvalues --  -88.73042 -18.91539 -10.06627 -10.05959 -10.04748
  Beta  occ. eigenvalues --  -10.02743 -10.02715 -10.02694 -10.02464 -10.01905
  Beta  occ. eigenvalues --  -10.01831 -10.01168  -7.81701  -5.78002  -5.77668
  Beta  occ. eigenvalues --   -5.77237  -0.85269  -0.73988  -0.67799  -0.62090
  Beta  occ. eigenvalues --   -0.59276  -0.57545  -0.55670  -0.47404  -0.43849
  Beta  occ. eigenvalues --   -0.42515  -0.38104  -0.34291  -0.33581  -0.30602
  Beta  occ. eigenvalues --   -0.30024  -0.28857  -0.28508  -0.24977  -0.24765
  Beta  occ. eigenvalues --   -0.24540  -0.24233  -0.21820  -0.20708  -0.19451
  Beta  occ. eigenvalues --   -0.19173  -0.17470  -0.12626  -0.08983  -0.07743
  Beta  occ. eigenvalues --   -0.06926
  Beta virt. eigenvalues --    0.09011   0.09730   0.09952   0.10114   0.11253
  Beta virt. eigenvalues --    0.12307   0.12706   0.13078   0.13536   0.14588
  Beta virt. eigenvalues --    0.15194   0.15683   0.16276   0.16865   0.17036

 Mulliken charges and spin densities:
               1          2
     1  C   -0.558557  -0.015638
     2  C   -0.457563   0.159368
     3  O   -0.386405   0.178132
     4  C    1.545320   0.103404
     5  C    0.300909   0.116784
     6  C    0.161269  -0.045959
     7  C   -0.157131   0.189707
     8  S   -0.792984  -0.002602
     9  C   -0.001198  -0.064917
    10  C   -0.110743   0.261380
    11  C   -0.537947   0.008301
    12  C   -1.052503   0.115971
    13  H    0.151842  -0.001674
    14  H    0.107837   0.019481
    15  H    0.107830   0.019433
    16  H    0.181983  -0.000630
    17  H    0.190313  -0.012550
    18  H    0.117295  -0.022607
    19  H    0.112917   0.000238
    20  H    0.077517  -0.005624
 Sum of Mulliken charges =  -1.00000   1.00000

 Dipole moment (field-independent basis, Debye):
    X=             -1.7596    Y=              2.0861    Z=             -0.0008  Tot=              2.7291
 Quadrupole moment (field-independent basis, Debye-Ang):
   XX=           -103.4146   YY=            -95.3423   ZZ=            -87.4369
   XY=              7.8332   XZ=             -0.0021   YZ=              0.0023

 Summary of Natural Population Analysis:

                                       Natural Population
                Natural  -----------------------------------------------
    Atom  No    Charge         Core      Valence    Rydberg      Total
 -----------------------------------------------------------------------
      C    1   -0.33191      0.99965     2.32777    0.00449     3.33191
      C    2    0.30525      0.99965     1.67495    0.02015     2.69475
      O    3   -0.26309      0.99988     3.25543    0.00778     4.26309
      C    4   -0.03127      0.99945     2.02258    0.00924     3.03127
      C    5   -0.00113      0.99945     1.99253    0.00914     3.00113
      C    6   -0.13119      0.99950     2.12158    0.01010     3.13119
      C    7   -0.13880      0.99953     2.12851    0.01076     3.13880
      S    8    0.15265      4.99945     2.82403    0.02387     7.84735
      C    9   -0.11114      0.99941     2.10111    0.01061     3.11114
      C   10   -0.04634      0.99950     2.03685    0.00999     3.04634
      C   11   -0.12653      0.99961     2.11655    0.01038     3.12653
      C   12   -0.06443      0.99945     2.05648    0.00849     3.06443
      H   13    0.10092      0.00000     0.39731    0.00177     0.39908
      H   14    0.09981      0.00000     0.39898    0.00121     0.40019
      H   15    0.09980      0.00000     0.39899    0.00121     0.40020
      H   16    0.12352      0.00000     0.37538    0.00110     0.37648
      H   17    0.09586      0.00000     0.40315    0.00099     0.40414
      H   18    0.08821      0.00000     0.41021    0.00158     0.41179
      H   19    0.08860      0.00000     0.40964    0.00176     0.41140
      H   20    0.09119      0.00000     0.40762    0.00118     0.40881
 =======================================================================
   * Total *    0.00000     15.99453    29.85966    0.14581    46.00000

 Normal termination of Gaussian 16 at Wed Dec  9 16:57:57 2020.
