 Gaussian 16, Revision A.03,

 -----------------------------------------------------------
 # opt freq B3LYP/6-31G(d) empiricaldispersion=gd3bj scf=xqc
 -----------------------------------------------------------

 -------------------------------
 CID_134208866_JID_2559_neutraal
 -------------------------------
 Symbolic Z-matrix:
 Charge =  0 Multiplicity = 1

 SCF Done:  E(RB3LYP) =  -506.479100743     A.U. after   13 cycles
 SCF Done:  E(RB3LYP) =  -506.480605129     A.U. after   11 cycles
 SCF Done:  E(RB3LYP) =  -506.480627389     A.U. after   10 cycles
 SCF Done:  E(RB3LYP) =  -506.480869610     A.U. after   10 cycles
 SCF Done:  E(RB3LYP) =  -506.480942630     A.U. after   10 cycles
 SCF Done:  E(RB3LYP) =  -506.480957256     A.U. after    9 cycles
 SCF Done:  E(RB3LYP) =  -506.480958875     A.U. after    8 cycles
 SCF Done:  E(RB3LYP) =  -506.480959189     A.U. after    7 cycles
 SCF Done:  E(RB3LYP) =  -506.480959327     A.U. after    7 cycles
 Optimization completed.
    -- Stationary point found.
 Normal termination of Gaussian 16 at Wed Dec  9 17:34:36 2020.

 --------------------------------------------------------------------
 #N Geom=AllCheck Guess=TCheck SCRF=Check GenChk RB3LYP/6-31G(d) Freq
 --------------------------------------------------------------------

 Structure from the checkpoint file:  "JID_2559.chk"
 -------------------------------
 CID_134208866_JID_2559_neutraal
 -------------------------------
 Charge =  0 Multiplicity = 1

 SCF Done:  E(RB3LYP) =  -506.480959327     A.U. after    1 cycles

  Exact polarizability: 139.840   3.621 112.280  -1.243  -1.800  96.394
 Approx polarizability: 187.865   8.340 157.083  -4.604  -3.050 145.801

                      1                      2                      3
                      A                      A                      A
 Frequencies --     70.3735                93.4183               116.2807
 Red. masses --      2.7308                 2.9295                 2.9700
 Frc consts  --      0.0080                 0.0151                 0.0237
 IR Inten    --      0.2910                 0.6154                 0.3545

                      4                      5                      6
                      A                      A                      A
 Frequencies --    139.3280               193.6522               215.3005
 Red. masses --      2.8404                 1.1963                 2.3183
 Frc consts  --      0.0325                 0.0264                 0.0633
 IR Inten    --      0.6473                 0.3752                 1.3459

                      7                      8                      9
                      A                      A                      A
 Frequencies --    256.4762               268.5097               285.4348
 Red. masses --      1.1237                 2.3880                 1.1648
 Frc consts  --      0.0436                 0.1014                 0.0559
 IR Inten    --      4.0221                 1.8344                 0.3098

                     10                     11                     12
                      A                      A                      A
 Frequencies --    293.9582               308.7365               314.5507
 Red. masses --      2.0535                 1.5368                 2.1397
 Frc consts  --      0.1046                 0.0863                 0.1247
 IR Inten    --      4.3262                 0.5226                16.5462

                     13                     14                     15
                      A                      A                      A
 Frequencies --    339.1043               343.2984               375.6677
 Red. masses --      1.7810                 1.6344                 1.8290
 Frc consts  --      0.1207                 0.1135                 0.1521
 IR Inten    --     25.8639                46.8955                32.7687

                     16                     17                     18
                      A                      A                      A
 Frequencies --    400.8130               406.8095               427.5960
 Red. masses --      2.9892                 2.6134                 3.2976
 Frc consts  --      0.2829                 0.2548                 0.3552
 IR Inten    --      3.5541                13.5440                 3.5518

                     19                     20                     21
                      A                      A                      A
 Frequencies --    473.2910               491.8877               590.0741
 Red. masses --      2.7394                 2.4330                 3.7859
 Frc consts  --      0.3615                 0.3468                 0.7767
 IR Inten    --      4.9042                 1.7156                 1.1701

                     22                     23                     24
                      A                      A                      A
 Frequencies --    656.9851               723.7921               747.3641
 Red. masses --      3.2527                 3.3768                 3.1064
 Frc consts  --      0.8272                 1.0423                 1.0223
 IR Inten    --      0.5967                 4.0673                 1.3833

                     25                     26                     27
                      A                      A                      A
 Frequencies --    828.2730               865.5735               891.7376
 Red. masses --      1.9532                 2.0093                 2.1853
 Frc consts  --      0.7895                 0.8870                 1.0239
 IR Inten    --      4.2508                 3.1232                 4.8428

                     28                     29                     30
                      A                      A                      A
 Frequencies --    907.1974               942.2752               945.0474
 Red. masses --      2.1521                 1.4680                 1.2157
 Frc consts  --      1.0436                 0.7680                 0.6397
 IR Inten    --      3.1949                 2.6321                 3.8064

                     31                     32                     33
                      A                      A                      A
 Frequencies --    958.7187               980.5414              1014.1281
 Red. masses --      1.9311                 1.4659                 1.6663
 Frc consts  --      1.0458                 0.8304                 1.0097
 IR Inten    --      3.5649                 2.6284                 0.0547

                     34                     35                     36
                      A                      A                      A
 Frequencies --   1043.7231              1061.4238              1077.1534
 Red. masses --      1.9171                 1.4265                 1.9655
 Frc consts  --      1.2305                 0.9469                 1.3436
 IR Inten    --      4.3715                12.8498                21.2926

                     37                     38                     39
                      A                      A                      A
 Frequencies --   1089.0523              1092.8745              1120.1689
 Red. masses --      2.3983                 1.7901                 1.9514
 Frc consts  --      1.6759                 1.2597                 1.4426
 IR Inten    --     64.7095                 9.6816                15.8566

                     40                     41                     42
                      A                      A                      A
 Frequencies --   1149.5033              1150.7250              1174.4090
 Red. masses --      2.0537                 1.8227                 1.9593
 Frc consts  --      1.5989                 1.4221                 1.5922
 IR Inten    --      1.4510                 8.9908                 6.7775

                     43                     44                     45
                      A                      A                      A
 Frequencies --   1190.3424              1212.3699              1262.2364
 Red. masses --      2.0311                 1.8525                 1.3286
 Frc consts  --      1.6956                 1.6043                 1.2471
 IR Inten    --      6.6464                 7.4533                 7.6281

                     46                     47                     48
                      A                      A                      A
 Frequencies --   1288.7650              1295.5884              1324.3955
 Red. masses --      1.3421                 1.6933                 1.3388
 Frc consts  --      1.3134                 1.6747                 1.3835
 IR Inten    --      4.7777                 2.6870                 3.7538

                     49                     50                     51
                      A                      A                      A
 Frequencies --   1345.7878              1361.6643              1371.8577
 Red. masses --      1.6301                 1.2727                 1.4718
 Frc consts  --      1.7394                 1.3904                 1.6320
 IR Inten    --      9.0997                 0.4898                 2.9994

                     52                     53                     54
                      A                      A                      A
 Frequencies --   1381.5440              1395.7408              1414.4364
 Red. masses --      1.3937                 1.3013                 1.2974
 Frc consts  --      1.5673                 1.4936                 1.5293
 IR Inten    --      4.0813                 1.3365                 4.9098

                     55                     56                     57
                      A                      A                      A
 Frequencies --   1419.2046              1427.2096              1442.7620
 Red. masses --      1.6610                 1.2720                 1.2785
 Frc consts  --      1.9711                 1.5265                 1.5680
 IR Inten    --      2.2965                 4.4492                 2.4751

                     58                     59                     60
                      A                      A                      A
 Frequencies --   1443.9794              1446.6364              1455.2325
 Red. masses --      1.2696                 1.2676                 1.2558
 Frc consts  --      1.5596                 1.5630                 1.5669
 IR Inten    --     12.2579                11.7141                31.2043

                     61                     62                     63
                      A                      A                      A
 Frequencies --   1506.9880              1511.0084              1521.8913
 Red. masses --      1.0650                 1.0651                 1.0495
 Frc consts  --      1.4251                 1.4328                 1.4321
 IR Inten    --      6.6724                 4.5633                 3.1452

                     64                     65                     66
                      A                      A                      A
 Frequencies --   1522.8187              1526.3421              1531.1667
 Red. masses --      1.0620                 1.0464                 1.0512
 Frc consts  --      1.4510                 1.4364                 1.4521
 IR Inten    --      4.3242                 1.4116                 7.8504

                     67                     68                     69
                      A                      A                      A
 Frequencies --   1534.9974              1540.4009              1551.2461
 Red. masses --      1.0486                 1.0503                 1.0473
 Frc consts  --      1.4557                 1.4684                 1.4848
 IR Inten    --      4.1527                 3.9984                 6.7650

                     70                     71                     72
                      A                      A                      A
 Frequencies --   1753.4474              2993.3837              3007.0925
 Red. masses --      6.8371                 1.0826                 1.0651
 Frc consts  --     12.3852                 5.7154                 5.6746
 IR Inten    --      1.2420                20.5854                28.1383

                     73                     74                     75
                      A                      A                      A
 Frequencies --   3025.7932              3037.3973              3039.4050
 Red. masses --      1.0399                 1.0725                 1.0388
 Frc consts  --      5.6095                 5.8298                 5.6540
 IR Inten    --     49.1409                 3.7046                21.4500

                     76                     77                     78
                      A                      A                      A
 Frequencies --   3042.0625              3044.6552              3045.9103
 Red. masses --      1.0898                 1.0459                 1.0700
 Frc consts  --      5.9421                 5.7125                 5.8490
 IR Inten    --     28.0383                49.3388                 4.7233

                     79                     80                     81
                      A                      A                      A
 Frequencies --   3049.6933              3065.6098              3069.6267
 Red. masses --      1.0573                 1.0864                 1.0996
 Frc consts  --      5.7939                 6.0157                 6.1047
 IR Inten    --     63.8025                43.8705                31.0616

                     82                     83                     84
                      A                      A                      A
 Frequencies --   3097.9269              3102.0984              3107.2729
 Red. masses --      1.1014                 1.1000                 1.1005
 Frc consts  --      6.2277                 6.2365                 6.2605
 IR Inten    --      6.3338                33.4325                78.0822

                     85                     86                     87
                      A                      A                      A
 Frequencies --   3121.8024              3123.2999              3130.2842
 Red. masses --      1.0995                 1.1015                 1.1008
 Frc consts  --      6.3133                 6.3309                 6.3553
 IR Inten    --     19.7115                41.0685                28.9514

                     88                     89                     90
                      A                      A                      A
 Frequencies --   3145.9271              3158.8212              3751.6552
 Red. masses --      1.0988                 1.0886                 1.0654
 Frc consts  --      6.4074                 6.3996                 8.8347
 IR Inten    --     11.5995                30.6080                 5.9923

 - Thermochemistry -
 -------------------
 Temperature   298.150 Kelvin.  Pressure   1.00000 Atm.
 Atom     1 has atomic number  6 and mass  12.00000

 Molecular mass:   168.15142 amu.
 Principal axes and moments of inertia in atomic units:
                           1         2         3
     Eigenvalues --  1514.246852360.502933123.57201
           X            0.99975   0.02232   0.00238
           Y           -0.02227   0.99962  -0.01622
           Z           -0.00275   0.01616   0.99987
 This molecule is an asymmetric top.
 Rotational symmetry number  1.
 Warning -- assumption of classical behavior for rotation
           may cause significant error
 Rotational temperatures (Kelvin)      0.05720     0.03669     0.02773
 Rotational constants (GHZ):           1.19184     0.76456     0.57778
 Zero-point vibrational energy     771382.0 (Joules/Mol)
                                  184.36473 (Kcal/Mol)
 Warning -- explicit consideration of  21 degrees of freedom as
           vibrations may cause significant error
 Vibrational temperatures:    101.25   134.41   167.30   200.46   278.62
          (Kelvin)            309.77   369.01   386.33   410.68   422.94
                              444.20   452.57   487.90   493.93   540.50
                              576.68   585.31   615.22   680.96   707.72
                              848.99   945.26  1041.38  1075.29  1191.70
                             1245.37  1283.01  1305.25  1355.72  1359.71
                             1379.38  1410.78  1459.10  1501.68  1527.15
                             1549.78  1566.90  1572.40  1611.67  1653.88
                             1655.64  1689.71  1712.64  1744.33  1816.08
                             1854.25  1864.06  1905.51  1936.29  1959.13
                             1973.80  1987.73  2008.16  2035.06  2041.92
                             2053.44  2075.81  2077.56  2081.39  2093.75
                             2168.22  2174.00  2189.66  2191.00  2196.07
                             2203.01  2208.52  2216.29  2231.90  2522.82
                             4306.81  4326.54  4353.44  4370.14  4373.03
                             4376.85  4380.58  4382.39  4387.83  4410.73
                             4416.51  4457.23  4463.23  4470.67  4491.58
                             4493.73  4503.78  4526.29  4544.84  5397.80

 Zero-point correction=                           0.293804 (Hartree/Particle)
 Thermal correction to Energy=                    0.307087
 Thermal correction to Enthalpy=                  0.308031
 Thermal correction to Gibbs Free Energy=         0.255707
 Sum of electronic and zero-point Energies=           -506.187155
 Sum of electronic and thermal Energies=              -506.173872
 Sum of electronic and thermal Enthalpies=            -506.172928
 Sum of electronic and thermal Free Energies=         -506.225252

                     E (Thermal)             CV                S
                      KCal/Mol        Cal/Mol-Kelvin    Cal/Mol-Kelvin
 Total                  192.700             52.301            110.125
 Electronic               0.000              0.000              0.000
 Translational            0.889              2.981             41.267
 Rotational               0.889              2.981             30.791
 Vibrational            190.923             46.339             38.067
 Vibration     1          0.598              1.968              4.143
 Vibration     2          0.602              1.954              3.587
 Vibration     3          0.608              1.936              3.161
 Vibration     4          0.615              1.914              2.813
 Vibration     5          0.635              1.849              2.193
 Vibration     6          0.645              1.818              1.998
 Vibration     7          0.666              1.752              1.686
 Vibration     8          0.673              1.731              1.606
 Vibration     9          0.683              1.701              1.501
 Vibration    10          0.689              1.685              1.451
 Vibration    11          0.698              1.657              1.369
 Vibration    12          0.702              1.646              1.338
 Vibration    13          0.719              1.597              1.216
 Vibration    14          0.722              1.589              1.197
 Vibration    15          0.747              1.522              1.057
 Vibration    16          0.767              1.468              0.960
 Vibration    17          0.772              1.455              0.938
 Vibration    18          0.789              1.410              0.867
 Vibration    19          0.830              1.309              0.728
 Vibration    20          0.848              1.268              0.679
 Vibration    21          0.947              1.053              0.467

                           ! Non-Optimized Parameters !
 Normal termination of Gaussian 16 at Wed Dec  9 17:43:28 2020.

 ----------------------------------------------------------------------
 # B3LYP/6-311++G(d,p) empiricaldispersion=gd3bj scf=xqc pop=npa geom=c
 heck
 ----------------------------------------------------------------------

 ---------------------------------------
 CID_134208866_JID_2559_Energie_neutraal
 ---------------------------------------
 Structure from the checkpoint file:  "JID_2559.chk"
 Charge =  0 Multiplicity = 1

 SCF Done:  E(RB3LYP) =  -506.629008303     A.U. after   14 cycles
 Normal termination of Gaussian 16 at Wed Dec  9 17:47:04 2020.

 ----------------------------------------------------------------------
 # B3LYP/6-311++G(d,p) empiricaldispersion=gd3bj scf=xqc pop=npa geom=c
 heck
 ----------------------------------------------------------------------

 -------------------------------------
 CID_134208866_JID_2559_Energie_kation
 -------------------------------------
 Structure from the checkpoint file:  "JID_2559.chk"
 Charge =  1 Multiplicity = 2

 SCF Done:  E(UB3LYP) =  -506.318143215     A.U. after   26 cycles
 Normal termination of Gaussian 16 at Wed Dec  9 17:55:52 2020.
 Gaussian 16:  ES64L-G16RevA.03 25-Dec-2016

 ----------------------------------------------------------------------
 # B3LYP/6-311++G(d,p) empiricaldispersion=gd3bj scf=xqc pop=npa geom=c
 heck
 ----------------------------------------------------------------------

 ------------------------------------
 CID_134208866_JID_2559_Energie_anion
 ------------------------------------
 Structure from the checkpoint file:  "JID_2559.chk"
 Charge = -1 Multiplicity = 2

                         Standard orientation:
 ---------------------------------------------------------------------
 Center     Atomic      Atomic             Coordinates (Angstroms)
 Number     Number       Type             X           Y           Z
 ---------------------------------------------------------------------
      1          6           0       -0.515048   -1.434719    1.706948
      2          6           0       -0.888489   -1.587375    0.225507
      3          6           0       -2.158313   -0.787604   -0.102046
      4          6           0       -1.887935    0.687502   -0.289062
      5          6           0       -0.659486    1.153793   -0.546308
      6          6           0        0.592203    0.322332   -0.708636
      7          6           0        0.219794   -1.184305   -0.767876
      8          8           0        1.345876   -2.057052   -0.684318
      9          6           0        1.733530    0.660470    0.312479
     10          6           0        3.111301    0.486486   -0.345608
     11          6           0        1.621034    2.066756    0.914314
     12          6           0       -3.085314    1.595458   -0.203757
     13          1           0        0.423283   -1.946736    1.952524
     14          1           0       -1.293519   -1.880765    2.336078
     15          1           0       -0.417774   -0.383337    1.993749
     16          1           0       -1.083371   -2.651193    0.040413
     17          1           0       -2.623515   -1.181160   -1.019323
     18          1           0       -2.906888   -0.930851    0.689969
     19          1           0       -0.538574    2.225264   -0.695640
     20          1           0        1.005938    0.578761   -1.696207
     21          1           0       -0.181473   -1.373658   -1.769994
     22          1           0        1.728734   -1.955617    0.200289
     23          1           0        1.666637   -0.042189    1.153315
     24          1           0        3.254090    1.244282   -1.126897
     25          1           0        3.917575    0.610219    0.387336
     26          1           0        3.208419   -0.495908   -0.814079
     27          1           0        0.682030    2.204785    1.459283
     28          1           0        2.448787    2.246339    1.609930
     29          1           0        1.673783    2.837392    0.134958
     30          1           0       -3.856061    1.301739   -0.930154
     31          1           0       -3.554997    1.536341    0.787883
     32          1           0       -2.819774    2.639937   -0.394614
 ---------------------------------------------------------------------

 SCF Done:  E(UB3LYP) =  -506.613460393     A.U. after   32 cycles

 The electronic state is 2-A.
 Alpha  occ. eigenvalues --  -19.02010 -10.11629 -10.07560 -10.07400 -10.07220
 Alpha  occ. eigenvalues --  -10.06976 -10.06557 -10.06062 -10.05691 -10.05548
 Alpha  occ. eigenvalues --  -10.05518 -10.05420  -0.92340  -0.74266  -0.70102
 Alpha  occ. eigenvalues --   -0.66933  -0.63403  -0.58668  -0.58253  -0.57062
 Alpha  occ. eigenvalues --   -0.52661  -0.47679  -0.46587  -0.42469  -0.38229
 Alpha  occ. eigenvalues --   -0.36541  -0.35822  -0.35526  -0.33704  -0.33032
 Alpha  occ. eigenvalues --   -0.32374  -0.30867  -0.29956  -0.29704  -0.28282
 Alpha  occ. eigenvalues --   -0.27757  -0.26957  -0.26745  -0.26066  -0.24441
 Alpha  occ. eigenvalues --   -0.23986  -0.23421  -0.22045  -0.21566  -0.20167
 Alpha  occ. eigenvalues --   -0.16449  -0.13468   0.04583
 Alpha virt. eigenvalues --    0.06675   0.07150   0.07909   0.08819   0.09168
 Alpha virt. eigenvalues --    0.09315   0.10055   0.10581   0.11303   0.11521
 Alpha virt. eigenvalues --    0.11778   0.12616   0.12679   0.13017   0.13671

  Beta  occ. eigenvalues --  -19.01996 -10.11625 -10.07547 -10.07395 -10.07221
  Beta  occ. eigenvalues --  -10.06967 -10.06531 -10.06027 -10.05679 -10.05522
  Beta  occ. eigenvalues --  -10.05499 -10.05379  -0.92312  -0.74244  -0.70074
  Beta  occ. eigenvalues --   -0.66900  -0.63372  -0.58614  -0.58194  -0.57008
  Beta  occ. eigenvalues --   -0.52613  -0.47626  -0.46539  -0.42428  -0.38188
  Beta  occ. eigenvalues --   -0.36493  -0.35794  -0.35487  -0.33673  -0.33005
  Beta  occ. eigenvalues --   -0.32338  -0.30826  -0.29915  -0.29669  -0.28254
  Beta  occ. eigenvalues --   -0.27718  -0.26928  -0.26712  -0.26035  -0.24406
  Beta  occ. eigenvalues --   -0.23956  -0.23381  -0.22013  -0.21539  -0.20136
  Beta  occ. eigenvalues --   -0.16430  -0.13448
  Beta virt. eigenvalues --    0.06755   0.07470   0.07930   0.08335   0.09335
  Beta virt. eigenvalues --    0.09661   0.09874   0.10462   0.10902   0.11750
  Beta virt. eigenvalues --    0.11838   0.12140   0.12890   0.12980   0.13277

 Mulliken charges and spin densities:
               1          2
     1  C    1.409128  -2.121480
     2  C   -1.886928   2.550364
     3  C   -0.084153  -0.817169
     4  C   -1.742345   2.469011
     5  C   -0.591440  -0.236968
     6  C    2.074066  -1.391008
     7  C    0.861128  -1.879712
     8  O   -0.154549   0.023358
     9  C   -1.565569   1.792666
    10  C    0.527564  -1.131159
    11  C    0.555295  -1.288070
    12  C    1.873007  -2.486432
    13  H   -0.148750   0.265456
    14  H   -0.487856   0.650343
    15  H   -0.061114   0.232412
    16  H   -0.175875   0.405248
    17  H   -0.096378   0.262986
    18  H   -0.209114   0.369100
    19  H    0.029671   0.123105
    20  H    0.077796   0.138295
    21  H    0.147207   0.047717
    22  H    0.040334   0.195967
    23  H   -0.187605   0.357459
    24  H   -0.038787   0.163810
    25  H   -0.163334   0.304886
    26  H    0.067023   0.055316
    27  H    0.044201   0.115477
    28  H   -0.190332   0.319421
    29  H   -0.132211   0.273024
    30  H   -0.132537   0.278991
    31  H   -0.181336   0.342487
    32  H   -0.476209   0.615101
 Sum of Mulliken charges =  -1.00000   1.00000

 Dipole moment (field-independent basis, Debye):
    X=              1.9015    Y=             -0.1511    Z=             -2.9558  Tot=              3.5178
 Quadrupole moment (field-independent basis, Debye-Ang):
   XX=           -138.1587   YY=           -125.7040   ZZ=           -116.5726
   XY=              2.3109   XZ=              0.2130   YZ=              1.9375

 Summary of Natural Population Analysis:

                                       Natural Population
                Natural  -----------------------------------------------
    Atom  No    Charge         Core      Valence    Rydberg      Total
 -----------------------------------------------------------------------
      C    1   -0.29073      0.99964     2.28415    0.00693     3.29073
      C    2   -0.11950      0.99958     2.10844    0.01148     3.11950
      C    3   -0.20132      0.99957     2.19170    0.01005     3.20132
      C    4   -0.00297      0.99948     1.99367    0.00982     3.00297
      C    5   -0.10076      0.99944     2.09089    0.01042     3.10076
      C    6   -0.12915      0.99954     2.11750    0.01211     3.12915
      C    7    0.07673      0.99949     1.90970    0.01408     2.92327
      O    8   -0.37225      0.99990     3.36624    0.00612     4.37225
      C    9   -0.11558      0.99959     2.10465    0.01133     3.11558
      C   10   -0.28559      0.99964     2.28075    0.00520     3.28559
      C   11   -0.28493      0.99965     2.27894    0.00634     3.28493
      C   12   -0.29226      0.99962     2.28669    0.00595     3.29226
      H   13    0.09574      0.00000     0.40252    0.00174     0.40426
      H   14    0.10336      0.00000     0.39533    0.00131     0.39664
      H   15    0.10124      0.00000     0.39699    0.00177     0.39876
      H   16    0.10024      0.00000     0.39823    0.00153     0.39976
      H   17    0.10390      0.00000     0.39479    0.00131     0.39610
      H   18    0.10446      0.00000     0.39413    0.00141     0.39554
      H   19    0.09708      0.00000     0.40140    0.00152     0.40292
      H   20    0.10112      0.00000     0.39716    0.00172     0.39888
      H   21    0.08732      0.00000     0.41099    0.00168     0.41268
      H   22    0.22790      0.00000     0.26889    0.00320     0.27210
      H   23    0.09325      0.00000     0.40418    0.00256     0.40675
      H   24    0.09367      0.00000     0.40520    0.00113     0.40633
      H   25    0.09740      0.00000     0.40165    0.00095     0.40260
      H   26    0.10639      0.00000     0.39247    0.00114     0.39361
      H   27    0.10471      0.00000     0.39415    0.00113     0.39529
      H   28    0.09959      0.00000     0.39948    0.00093     0.40041
      H   29    0.09495      0.00000     0.40402    0.00103     0.40505
      H   30    0.10086      0.00000     0.39786    0.00127     0.39914
      H   31    0.10335      0.00000     0.39518    0.00147     0.39665
      H   32    0.10175      0.00000     0.39712    0.00113     0.39825
 =======================================================================
   * Total *   -0.00000     11.99516    34.86507    0.13977    47.00000

 Normal termination of Gaussian 16 at Wed Dec  9 18:05:57 2020.
