 Gaussian 16, Revision A.03,

 -----------------------------------------------------------
 # opt freq B3LYP/6-31G(d) empiricaldispersion=gd3bj scf=xqc
 -----------------------------------------------------------

 -------------------------------
 CID_102950290_JID_8249_neutraal
 -------------------------------
 Symbolic Z-matrix:
 Charge =  0 Multiplicity = 1

 SCF Done:  E(RB3LYP) =  -806.757101197     A.U. after   14 cycles
 SCF Done:  E(RB3LYP) =  -806.762107260     A.U. after   12 cycles
 SCF Done:  E(RB3LYP) =  -806.763982939     A.U. after   12 cycles
 SCF Done:  E(RB3LYP) =  -806.764915417     A.U. after   13 cycles
 SCF Done:  E(RB3LYP) =  -806.765170765     A.U. after   11 cycles
 SCF Done:  E(RB3LYP) =  -806.765237789     A.U. after   11 cycles
 SCF Done:  E(RB3LYP) =  -806.765273499     A.U. after   10 cycles
 SCF Done:  E(RB3LYP) =  -806.765277236     A.U. after    8 cycles
 SCF Done:  E(RB3LYP) =  -806.765279504     A.U. after    8 cycles
 SCF Done:  E(RB3LYP) =  -806.765279531     A.U. after    7 cycles
 SCF Done:  E(RB3LYP) =  -806.765279508     A.U. after    6 cycles
 Optimization completed.
    -- Stationary point found.
 Normal termination of Gaussian 16 at Fri Dec 11 19:41:41 2020.

 --------------------------------------------------------------------
 #N Geom=AllCheck Guess=TCheck SCRF=Check GenChk RB3LYP/6-31G(d) Freq
 --------------------------------------------------------------------

 Structure from the checkpoint file:  "JID_8249.chk"
 -------------------------------
 CID_102950290_JID_8249_neutraal
 -------------------------------
 Charge =  0 Multiplicity = 1

 SCF Done:  E(RB3LYP) =  -806.765279508     A.U. after    1 cycles

  Exact polarizability: 193.700  -0.862 158.087  15.633  -8.871 130.087
 Approx polarizability: 247.867   4.619 246.180  35.734 -19.537 205.932

                      1                      2                      3
                      A                      A                      A
 Frequencies --     22.4448                31.6205                54.3714
 Red. masses --      4.2535                 3.6927                 3.0120
 Frc consts  --      0.0013                 0.0022                 0.0052
 IR Inten    --      0.7363                 0.2635                 0.0515

                      4                      5                      6
                      A                      A                      A
 Frequencies --     67.4530                86.4689               113.7192
 Red. masses --      4.3693                 2.2052                 3.5482
 Frc consts  --      0.0117                 0.0097                 0.0270
 IR Inten    --      2.8006                 0.0657                 0.5978

                      7                      8                      9
                      A                      A                      A
 Frequencies --    149.8248               174.0107               187.9566
 Red. masses --      4.4073                 2.8083                 2.7486
 Frc consts  --      0.0583                 0.0501                 0.0572
 IR Inten    --      2.0273                 3.5760                 0.4319

                     10                     11                     12
                      A                      A                      A
 Frequencies --    202.2055               223.4478               239.3950
 Red. masses --      1.8178                 2.7308                 2.1008
 Frc consts  --      0.0438                 0.0803                 0.0709
 IR Inten    --      1.3075                 0.1393                 0.9411

                     13                     14                     15
                      A                      A                      A
 Frequencies --    265.6939               282.3599               293.7744
 Red. masses --      1.6561                 2.4383                 3.1202
 Frc consts  --      0.0689                 0.1145                 0.1587
 IR Inten    --      2.4735                 0.3709                 7.9716

                     16                     17                     18
                      A                      A                      A
 Frequencies --    307.3949               338.4208               353.3681
 Red. masses --      2.0550                 1.3653                 2.7172
 Frc consts  --      0.1144                 0.0921                 0.1999
 IR Inten    --      0.5445                88.2733                35.5212

                     19                     20                     21
                      A                      A                      A
 Frequencies --    364.3108               409.0380               430.7532
 Red. masses --      2.4259                 2.5281                 2.1732
 Frc consts  --      0.1897                 0.2492                 0.2376
 IR Inten    --      5.6094                 0.5450                 6.2122

                     22                     23                     24
                      A                      A                      A
 Frequencies --    431.2466               485.8142               498.3238
 Red. masses --      2.7193                 2.8484                 4.3588
 Frc consts  --      0.2980                 0.3961                 0.6377
 IR Inten    --      1.1111                 0.6800                 4.7373

                     25                     26                     27
                      A                      A                      A
 Frequencies --    507.9351               552.2693               578.2551
 Red. masses --      3.7295                 4.5722                 4.9738
 Frc consts  --      0.5669                 0.8216                 0.9799
 IR Inten    --      3.2842                 7.9482                 7.0038

                     28                     29                     30
                      A                      A                      A
 Frequencies --    629.9731               670.8124               703.6121
 Red. masses --      2.1869                 5.4508                 6.8617
 Frc consts  --      0.5114                 1.4452                 2.0015
 IR Inten    --      7.2700                23.8355                 4.6371

                     31                     32                     33
                      A                      A                      A
 Frequencies --    756.4958               799.8285               804.5173
 Red. masses --      1.8088                 2.5629                 1.8873
 Frc consts  --      0.6099                 0.9660                 0.7197
 IR Inten    --      2.9611                 5.7967                 2.6162

                     34                     35                     36
                      A                      A                      A
 Frequencies --    817.2210               832.6506               843.5323
 Red. masses --      4.4337                 1.8049                 1.9590
 Frc consts  --      1.7446                 0.7373                 0.8213
 IR Inten    --     18.1160                 2.6654                 6.1231

                     37                     38                     39
                      A                      A                      A
 Frequencies --    881.3526               919.5957               930.6193
 Red. masses --      1.6170                 2.2444                 2.1783
 Frc consts  --      0.7401                 1.1182                 1.1115
 IR Inten    --     18.1833                 4.5726                 1.9699

                     40                     41                     42
                      A                      A                      A
 Frequencies --    960.1617               966.8493               988.3622
 Red. masses --      1.4259                 2.7168                 2.0473
 Frc consts  --      0.7745                 1.4963                 1.1783
 IR Inten    --      1.5842                 9.3396                15.1265

                     43                     44                     45
                      A                      A                      A
 Frequencies --    991.9694              1008.7841              1023.6229
 Red. masses --      1.7690                 8.5591                 1.9584
 Frc consts  --      1.0256                 5.1319                 1.2090
 IR Inten    --      6.1517                 5.6979                 2.4425

                     46                     47                     48
                      A                      A                      A
 Frequencies --   1041.3358              1063.6697              1073.4553
 Red. masses --      1.7152                 2.3611                 1.9465
 Frc consts  --      1.0958                 1.5739                 1.3215
 IR Inten    --      3.8705                15.0307                 3.6001

                     49                     50                     51
                      A                      A                      A
 Frequencies --   1078.0201              1094.8331              1100.4349
 Red. masses --      3.0843                 2.0399                 4.8018
 Frc consts  --      2.1118                 1.4406                 3.4260
 IR Inten    --     39.6747                 6.9984                76.5317

                     52                     53                     54
                      A                      A                      A
 Frequencies --   1106.7290              1119.4806              1162.9153
 Red. masses --      2.1959                 1.2191                 1.7470
 Frc consts  --      1.5847                 0.9001                 1.3920
 IR Inten    --      5.4190                 1.5122                 0.9699

                     55                     56                     57
                      A                      A                      A
 Frequencies --   1185.4024              1190.2903              1195.1394
 Red. masses --      1.2726                 1.5924                 1.5893
 Frc consts  --      1.0536                 1.3292                 1.3375
 IR Inten    --      0.6878                34.3411                 0.8258

                     58                     59                     60
                      A                      A                      A
 Frequencies --   1219.7120              1224.0430              1232.3931
 Red. masses --      1.4170                 1.7223                 1.4988
 Frc consts  --      1.2421                 1.5204                 1.3412
 IR Inten    --      6.2989                15.3265                11.6725

                     61                     62                     63
                      A                      A                      A
 Frequencies --   1281.6548              1288.6925              1292.6312
 Red. masses --      5.0861                 2.0630                 1.3784
 Frc consts  --      4.9224                 2.0186                 1.3570
 IR Inten    --      8.4914                21.4372                21.5862

                     64                     65                     66
                      A                      A                      A
 Frequencies --   1307.9407              1317.6581              1333.2376
 Red. masses --      1.2316                 1.2355                 1.3419
 Frc consts  --      1.2413                 1.2639                 1.4054
 IR Inten    --      3.8573                 7.0496                11.2115

                     67                     68                     69
                      A                      A                      A
 Frequencies --   1346.1139              1350.7230              1374.4744
 Red. masses --      1.3233                 1.2837                 2.0875
 Frc consts  --      1.4128                 1.3798                 2.3235
 IR Inten    --     24.1626                 1.5509                 2.2667

                     70                     71                     72
                      A                      A                      A
 Frequencies --   1379.3101              1385.7498              1395.9849
 Red. masses --      1.4367                 1.4541                 1.4468
 Frc consts  --      1.6104                 1.6452                 1.6612
 IR Inten    --     13.2990                 9.6301                 6.3680

                     73                     74                     75
                      A                      A                      A
 Frequencies --   1399.5191              1402.6382              1413.6206
 Red. masses --      1.4124                 1.5492                 3.2444
 Frc consts  --      1.6300                 1.7957                 3.8199
 IR Inten    --      5.3067                 3.7573               214.6659

                     76                     77                     78
                      A                      A                      A
 Frequencies --   1414.0262              1425.3421              1429.6042
 Red. masses --      1.5411                 1.4394                 1.5411
 Frc consts  --      1.8155                 1.7230                 1.8557
 IR Inten    --     48.9427                 3.5536                 6.3342

                     79                     80                     81
                      A                      A                      A
 Frequencies --   1442.0009              1501.6864              1509.1511
 Red. masses --      1.2477                 1.5361                 1.0838
 Frc consts  --      1.5286                 2.0409                 1.4544
 IR Inten    --      3.9761                26.3529                 1.0739

                     82                     83                     84
                      A                      A                      A
 Frequencies --   1515.0084              1522.9756              1524.0061
 Red. masses --      1.0887                 1.0725                 1.0479
 Frc consts  --      1.4722                 1.4657                 1.4340
 IR Inten    --      2.6033                 9.6732                 7.9972

                     85                     86                     87
                      A                      A                      A
 Frequencies --   1525.8826              1527.0084              1532.8305
 Red. masses --      1.0954                 1.4964                 1.1143
 Frc consts  --      1.5026                 2.0558                 1.5426
 IR Inten    --      5.8203                81.7737                 5.2092

                     88                     89                     90
                      A                      A                      A
 Frequencies --   1533.5194              1534.6262              1544.4847
 Red. masses --      1.1776                 1.0685                 1.0741
 Frc consts  --      1.6317                 1.4826                 1.5096
 IR Inten    --      0.7116                 5.9790                 2.6291

                     91                     92                     93
                      A                      A                      A
 Frequencies --   1610.7048              1633.3548              3003.8851
 Red. masses --      9.1706                 5.9175                 1.0805
 Frc consts  --     14.0178                 9.3014                 5.7446
 IR Inten    --    122.1576               429.1858                 1.1593

                     94                     95                     96
                      A                      A                      A
 Frequencies --   3007.4345              3023.4284              3025.6128
 Red. masses --      1.0799                 1.0677                 1.0808
 Frc consts  --      5.7550                 5.7504                 5.8293
 IR Inten    --     18.5491                20.1280                17.6279

                     97                     98                     99
                      A                      A                      A
 Frequencies --   3031.1679              3036.1028              3036.7719
 Red. masses --      1.0696                 1.0707                 1.0672
 Frc consts  --      5.7902                 5.8148                 5.7988
 IR Inten    --     30.3245                46.0780                33.6617

                    100                    101                    102
                      A                      A                      A
 Frequencies --   3040.8247              3045.2745              3049.0815
 Red. masses --      1.0342                 1.0390                 1.0687
 Frc consts  --      5.6345                 5.6773                 5.8537
 IR Inten    --     35.8780                26.7010                25.1793

                    103                    104                    105
                      A                      A                      A
 Frequencies --   3067.1165              3074.6939              3084.1703
 Red. masses --      1.0991                 1.0929                 1.0942
 Frc consts  --      6.0918                 6.0874                 6.1325
 IR Inten    --     68.9740                38.0422                57.2030

                    106                    107                    108
                      A                      A                      A
 Frequencies --   3099.8711              3105.2401              3109.8518
 Red. masses --      1.0972                 1.1072                 1.1009
 Frc consts  --      6.2118                 6.2902                 6.2731
 IR Inten    --     41.0189                32.4653                45.2437

                    109                    110                    111
                      A                      A                      A
 Frequencies --   3114.1545              3118.2289              3173.5284
 Red. masses --      1.0938                 1.1015                 1.1010
 Frc consts  --      6.2501                 6.3101                 6.5332
 IR Inten    --     28.4599                50.0870                21.6778

                    112                    113                    114
                      A                      A                      A
 Frequencies --   3186.2631              3254.7245              3742.1291
 Red. masses --      1.0909                 1.0908                 1.0664
 Frc consts  --      6.5254                 6.8082                 8.7982
 IR Inten    --     34.5279                 1.8534                15.4046

 - Thermochemistry -
 -------------------
 Temperature   298.150 Kelvin.  Pressure   1.00000 Atm.
 Atom     1 has atomic number  6 and mass  12.00000

 Molecular mass:   250.16813 amu.
 Principal axes and moments of inertia in atomic units:
                           1         2         3
     Eigenvalues --  2232.798669221.733329878.25465
           X            0.99984  -0.01782   0.00193
           Y            0.01785   0.99972  -0.01564
           Z           -0.00165   0.01567   0.99988
 This molecule is an asymmetric top.
 Rotational symmetry number  1.
 Warning -- assumption of classical behavior for rotation
           may cause significant error
 Rotational temperatures (Kelvin)      0.03879     0.00939     0.00877
 Rotational constants (GHZ):           0.80829     0.19571     0.18270
 Zero-point vibrational energy     925284.0 (Joules/Mol)
                                  221.14819 (Kcal/Mol)
 Warning -- explicit consideration of  27 degrees of freedom as
           vibrations may cause significant error
 Vibrational temperatures:     32.29    45.49    78.23    97.05   124.41
          (Kelvin)            163.62   215.56   250.36   270.43   290.93
                              321.49   344.44   382.27   406.25   422.68
                              442.27   486.91   508.42   524.16   588.51
                              619.76   620.47   698.98   716.98   730.81
                              794.59   831.98   906.39   965.15  1012.34
                             1088.43  1150.77  1157.52  1175.80  1198.00
                             1213.65  1268.07  1323.09  1338.95  1381.46
                             1391.08  1422.03  1427.22  1451.42  1472.77
                             1498.25  1530.38  1544.46  1551.03  1575.22
                             1583.28  1592.34  1610.68  1673.18  1705.53
                             1712.56  1719.54  1754.89  1761.12  1773.14
                             1844.02  1854.14  1859.81  1881.83  1895.82
                             1918.23  1936.76  1943.39  1977.56  1984.52
                             1993.78  2008.51  2013.60  2018.08  2033.88
                             2034.47  2050.75  2056.88  2074.72  2160.59
                             2171.33  2179.76  2191.22  2192.70  2195.40
                             2197.02  2205.40  2206.39  2207.98  2222.17
                             2317.44  2350.03  4321.92  4327.03  4350.04
                             4353.18  4361.17  4368.27  4369.24  4375.07
                             4381.47  4386.95  4412.90  4423.80  4437.43
                             4460.02  4467.75  4474.38  4480.57  4486.44
                             4566.00  4584.32  4682.82  5384.09

 Zero-point correction=                           0.352422 (Hartree/Particle)
 Thermal correction to Energy=                    0.370025
 Thermal correction to Enthalpy=                  0.370969
 Thermal correction to Gibbs Free Energy=         0.305900
 Sum of electronic and zero-point Energies=           -806.412857
 Sum of electronic and thermal Energies=              -806.395255
 Sum of electronic and thermal Enthalpies=            -806.394310
 Sum of electronic and thermal Free Energies=         -806.459379

                     E (Thermal)             CV                S
                      KCal/Mol        Cal/Mol-Kelvin    Cal/Mol-Kelvin
 Total                  232.194             67.773            136.949
 Electronic               0.000              0.000              0.000
 Translational            0.889              2.981             42.451
 Rotational               0.889              2.981             33.675
 Vibrational            230.417             61.811             60.823
 Vibration     1          0.593              1.985              6.405
 Vibration     2          0.594              1.983              5.725
 Vibration     3          0.596              1.976              4.652
 Vibration     4          0.598              1.970              4.226
 Vibration     5          0.601              1.959              3.738
 Vibration     6          0.607              1.938              3.204
 Vibration     7          0.618              1.903              2.674
 Vibration     8          0.627              1.874              2.392
 Vibration     9          0.633              1.856              2.248
 Vibration    10          0.639              1.837              2.113
 Vibration    11          0.649              1.805              1.931
 Vibration    12          0.657              1.780              1.807
 Vibration    13          0.672              1.736              1.624
 Vibration    14          0.681              1.706              1.519
 Vibration    15          0.689              1.685              1.452
 Vibration    16          0.697              1.660              1.376
 Vibration    17          0.719              1.599              1.220
 Vibration    18          0.730              1.568              1.151
 Vibration    19          0.738              1.546              1.104
 Vibration    20          0.773              1.451              0.930
 Vibration    21          0.792              1.403              0.856
 Vibration    22          0.792              1.402              0.855
 Vibration    23          0.842              1.282              0.695
 Vibration    24          0.854              1.254              0.662
 Vibration    25          0.863              1.232              0.639
 Vibration    26          0.908              1.135              0.539
 Vibration    27          0.935              1.078              0.489

 Optimization completed.
    -- Stationary point found.
 Normal termination of Gaussian 16 at Fri Dec 11 19:59:25 2020.

 ----------------------------------------------------------------------
 # B3LYP/6-311++G(d,p) empiricaldispersion=gd3bj scf=xqc pop=npa geom=c
 heck
 ----------------------------------------------------------------------

 ---------------------------------------
 CID_102950290_JID_8249_Energie_neutraal
 ---------------------------------------
 Structure from the checkpoint file:  "JID_8249.chk"
 Charge =  0 Multiplicity = 1

 SCF Done:  E(RB3LYP) =  -806.992413882     A.U. after   15 cycles
 Normal termination of Gaussian 16 at Fri Dec 11 20:08:07 2020.

 ----------------------------------------------------------------------
 # B3LYP/6-311++G(d,p) empiricaldispersion=gd3bj scf=xqc pop=npa geom=c
 heck
 ----------------------------------------------------------------------

 -------------------------------------
 CID_102950290_JID_8249_Energie_kation
 -------------------------------------
 Structure from the checkpoint file:  "JID_8249.chk"
 Charge =  1 Multiplicity = 2

 SCF Done:  E(UB3LYP) =  -806.657696012     A.U. after   33 cycles
 SCF Done:  E(UB3LYP) =  -806.657696476     a.u. after    2 cycles
 Normal termination of Gaussian 16 at Fri Dec 11 21:01:07 2020.
 Gaussian 16:  ES64L-G16RevA.03 25-Dec-2016

 ----------------------------------------------------------------------
 # B3LYP/6-311++G(d,p) empiricaldispersion=gd3bj scf=xqc pop=npa geom=c
 heck
 ----------------------------------------------------------------------

 ------------------------------------
 CID_102950290_JID_8249_Energie_anion
 ------------------------------------
 Structure from the checkpoint file:  "JID_8249.chk"
 Charge = -1 Multiplicity = 2

                         Standard orientation:
 ---------------------------------------------------------------------
 Center     Atomic      Atomic             Coordinates (Angstroms)
 Number     Number       Type             X           Y           Z
 ---------------------------------------------------------------------
      1          6           0       -5.103203    1.739478    0.244393
      2          6           0       -4.462078    0.414252   -0.176578
      3          6           0       -3.615486   -0.254508    0.923688
      4          6           0       -3.127208   -1.652305    0.497963
      5          6           0       -2.034240   -1.599399   -0.577955
      6          6           0       -0.839220   -0.740072   -0.131303
      7          6           0       -1.307048    0.662753    0.289083
      8          6           0       -2.401390    0.586419    1.362462
      9          6           0        0.238453   -0.700579   -1.229605
     10          6           0        1.431774    0.145965   -0.832332
     11          6           0        2.454434   -0.396423   -0.056519
     12          6           0        3.496995    0.470410    0.296875
     13          7           0        3.520749    1.747869   -0.096038
     14          6           0        2.492122    2.149004   -0.840327
     15          7           0        1.440171    1.426172   -1.239890
     16          8           0        4.556986    0.117004    1.048637
     17          6           0        4.620402   -1.222823    1.526313
     18          8           0        0.630425   -2.054508   -1.468213
     19          1           0       -5.695945    1.617633    1.159545
     20          1           0       -5.770489    2.119192   -0.537324
     21          1           0       -4.351868    2.512868    0.437096
     22          1           0       -5.253302   -0.289408   -0.469961
     23          1           0       -3.857707    0.577391   -1.077273
     24          1           0       -4.272025   -0.377518    1.797848
     25          1           0       -2.727113   -2.171224    1.380767
     26          1           0       -3.972946   -2.253677    0.139868
     27          1           0       -2.443054   -1.178984   -1.507616
     28          1           0       -1.689617   -2.608823   -0.818614
     29          1           0       -0.377097   -1.223951    0.743506
     30          1           0       -1.674882    1.202129   -0.593815
     31          1           0       -0.464287    1.249645    0.667830
     32          1           0       -2.712215    1.597493    1.648675
     33          1           0       -1.973542    0.130713    2.266900
     34          1           0       -0.196699   -0.250768   -2.133841
     35          1           0        2.413976   -1.437610    0.232879
     36          1           0        2.513740    3.187924   -1.163979
     37          1           0        3.762369   -1.458371    2.167195
     38          1           0        4.663467   -1.940048    0.697842
     39          1           0        5.539563   -1.284113    2.109562
     40          1           0        1.248100   -2.051801   -2.215926
 ---------------------------------------------------------------------

 SCF Done:  E(UB3LYP) =  -806.985889161     A.U. after   33 cycles
 SCF Done:  E(UB3LYP) =  -806.985889161     a.u. after    1 cycles

 The electronic state is 2-A.
 Alpha  occ. eigenvalues --  -19.05811 -19.02128 -14.19253 -14.18703 -10.16073
 Alpha  occ. eigenvalues --  -10.12637 -10.11874 -10.11759 -10.09481 -10.07781
 Alpha  occ. eigenvalues --  -10.07720 -10.07554 -10.07026 -10.06938 -10.06694
 Alpha  occ. eigenvalues --  -10.06279 -10.06222 -10.06135  -0.98186  -0.92495
 Alpha  occ. eigenvalues --   -0.86344  -0.77267  -0.74549  -0.69517  -0.67560
 Alpha  occ. eigenvalues --   -0.64588  -0.64098  -0.62421  -0.58666  -0.54191
 Alpha  occ. eigenvalues --   -0.53101  -0.51693  -0.50301  -0.47537  -0.44403
 Alpha  occ. eigenvalues --   -0.43592  -0.42304  -0.40090  -0.39030  -0.37826
 Alpha  occ. eigenvalues --   -0.36689  -0.35708  -0.35037  -0.34852  -0.34193
 Alpha  occ. eigenvalues --   -0.33785  -0.32334  -0.31544  -0.30928  -0.30545
 Alpha  occ. eigenvalues --   -0.29344  -0.28717  -0.27752  -0.26628  -0.26099
 Alpha  occ. eigenvalues --   -0.24874  -0.24673  -0.24169  -0.23665  -0.23316
 Alpha  occ. eigenvalues --   -0.21259  -0.20595  -0.20122  -0.19072  -0.18401
 Alpha  occ. eigenvalues --   -0.17102  -0.14993  -0.14419   0.04199
 Alpha virt. eigenvalues --    0.05547   0.06410   0.07084   0.07234   0.07836
 Alpha virt. eigenvalues --    0.08576   0.09066   0.09209   0.09867   0.09997
 Alpha virt. eigenvalues --    0.10343   0.10614   0.10852   0.11655   0.12171

  Beta  occ. eigenvalues --  -19.05808 -19.02077 -14.19280 -14.18492 -10.16054
  Beta  occ. eigenvalues --  -10.12597 -10.11812 -10.11767 -10.09233 -10.07776
  Beta  occ. eigenvalues --  -10.07716 -10.07539 -10.07002 -10.06931 -10.06685
  Beta  occ. eigenvalues --  -10.06233 -10.06214 -10.06134  -0.98153  -0.92364
  Beta  occ. eigenvalues --   -0.86132  -0.77004  -0.74523  -0.69448  -0.67360
  Beta  occ. eigenvalues --   -0.64558  -0.64056  -0.62345  -0.58521  -0.54055
  Beta  occ. eigenvalues --   -0.53021  -0.51639  -0.50187  -0.47476  -0.44358
  Beta  occ. eigenvalues --   -0.43497  -0.42220  -0.40024  -0.38989  -0.37714
  Beta  occ. eigenvalues --   -0.36658  -0.35601  -0.34952  -0.34801  -0.34118
  Beta  occ. eigenvalues --   -0.33729  -0.32282  -0.31227  -0.30860  -0.30447
  Beta  occ. eigenvalues --   -0.29217  -0.28687  -0.27705  -0.26589  -0.26078
  Beta  occ. eigenvalues --   -0.24821  -0.24467  -0.24146  -0.23610  -0.23245
  Beta  occ. eigenvalues --   -0.21240  -0.20468  -0.20079  -0.18867  -0.18125
  Beta  occ. eigenvalues --   -0.16428  -0.14622  -0.14301
  Beta virt. eigenvalues --    0.05778   0.06771   0.07303   0.07501   0.07970
  Beta virt. eigenvalues --    0.08465   0.08718   0.09378   0.09389   0.09894
  Beta virt. eigenvalues --    0.09985   0.10450   0.10897   0.11060   0.11731

 Mulliken charges and spin densities:
               1          2
     1  C    0.036208  -0.680039
     2  C   -0.481095   0.145268
     3  C    0.372009   0.181293
     4  C   -0.190543  -0.465157
     5  C   -0.151789  -0.105444
     6  C    0.480758   0.069596
     7  C   -0.665221   0.137812
     8  C   -0.307312  -0.341115
     9  C   -0.077982  -0.882138
    10  C    0.421207  -0.191282
    11  C   -0.469617   0.768096
    12  C   -0.685438  -0.096650
    13  N   -0.204240   0.112637
    14  C   -0.175191   0.212969
    15  N    0.003414   0.024510
    16  O   -0.153029   0.043479
    17  C    0.596478  -0.891547
    18  O   -0.162965   0.004338
    19  H   -0.074045   0.206598
    20  H    0.014996   0.110268
    21  H    0.072909   0.063220
    22  H   -0.007443   0.149696
    23  H    0.151027  -0.028943
    24  H    0.008716   0.189935
    25  H   -0.033727   0.175788
    26  H    0.122419   0.027935
    27  H    0.099612   0.037366
    28  H    0.078584   0.126902
    29  H    0.233916  -0.082770
    30  H    0.139804   0.038664
    31  H    0.254277  -0.052632
    32  H    0.044221   0.116814
    33  H   -0.044271   0.201884
    34  H    0.257079  -0.017166
    35  H    0.086865   0.196416
    36  H    0.152969   0.021694
    37  H   -0.327563   0.490475
    38  H   -0.127838   0.275220
    39  H   -0.240558   0.418297
    40  H   -0.047600   0.287712
 Sum of Mulliken charges =  -1.00000   1.00000

 Dipole moment (field-independent basis, Debye):
    X=             -4.4821    Y=              0.5412    Z=             -2.0328  Tot=              4.9512
 Quadrupole moment (field-independent basis, Debye-Ang):
   XX=           -199.8344   YY=           -148.7650   ZZ=           -140.2211
   XY=              1.2160   XZ=             -1.7883   YZ=              0.7186

 Summary of Natural Population Analysis:

                                       Natural Population
                Natural  -----------------------------------------------
    Atom  No    Charge         Core      Valence    Rydberg      Total
 -----------------------------------------------------------------------
      C    1   -0.28432      0.99967     2.28047    0.00419     3.28432
      C    2   -0.19246      0.99962     2.18368    0.00916     3.19246
      C    3   -0.10888      0.99959     2.09885    0.01044     3.10888
      C    4   -0.18596      0.99961     2.17719    0.00915     3.18596
      C    5   -0.19082      0.99961     2.18218    0.00903     3.19082
      C    6   -0.10769      0.99957     2.09703    0.01109     3.10769
      C    7   -0.19366      0.99961     2.18487    0.00918     3.19366
      C    8   -0.18927      0.99961     2.18011    0.00955     3.18927
      C    9    0.05482      0.99947     1.93127    0.01444     2.94518
      C   10    0.15607      0.99952     1.82890    0.01552     2.84393
      C   11   -0.17993      0.99945     2.17269    0.00780     3.17993
      C   12    0.28070      0.99945     1.70050    0.01935     2.71930
      N   13   -0.23559      0.99966     2.72613    0.00980     3.73559
      C   14    0.15161      0.99967     1.83007    0.01866     2.84839
      N   15   -0.27333      0.99968     2.76384    0.00981     3.77333
      O   16   -0.26505      0.99985     3.25542    0.00978     4.26505
      C   17   -0.10231      0.99960     2.09389    0.00882     3.10231
      O   18   -0.37094      0.99989     3.36486    0.00618     4.37094
      H   19    0.09515      0.00000     0.40366    0.00119     0.40485
      H   20    0.09651      0.00000     0.40270    0.00080     0.40349
      H   21    0.09711      0.00000     0.40196    0.00093     0.40289
      H   22    0.09368      0.00000     0.40531    0.00101     0.40632
      H   23    0.09532      0.00000     0.40347    0.00121     0.40468
      H   24    0.09400      0.00000     0.40441    0.00158     0.40600
      H   25    0.09661      0.00000     0.40235    0.00104     0.40339
      H   26    0.09496      0.00000     0.40414    0.00090     0.40504
      H   27    0.09040      0.00000     0.40840    0.00120     0.40960
      H   28    0.10952      0.00000     0.38948    0.00100     0.39048
      H   29    0.09757      0.00000     0.40042    0.00201     0.40243
      H   30    0.09531      0.00000     0.40351    0.00118     0.40469
      H   31    0.10838      0.00000     0.39064    0.00098     0.39162
      H   32    0.09788      0.00000     0.40126    0.00086     0.40212
      H   33    0.09735      0.00000     0.40158    0.00107     0.40265
      H   34    0.08548      0.00000     0.41247    0.00205     0.41452
      H   35    0.11551      0.00000     0.38250    0.00199     0.38449
      H   36    0.07721      0.00000     0.42173    0.00106     0.42279
      H   37    0.08996      0.00000     0.40819    0.00185     0.41004
      H   38    0.08514      0.00000     0.41354    0.00132     0.41486
      H   39    0.09246      0.00000     0.40642    0.00111     0.40754
      H   40    0.23149      0.00000     0.26512    0.00339     0.26851
 =======================================================================
   * Total *    0.00000     17.99313    49.78520    0.22167    68.00000

 Normal termination of Gaussian 16 at Fri Dec 11 21:28:43 2020.
