 Gaussian 16, Revision A.03,

 -----------------------------------------------------------
 # opt freq B3LYP/6-31G(d) empiricaldispersion=gd3bj scf=xqc
 -----------------------------------------------------------

 ------------------------------
 CID_77060808_JID_7402_neutraal
 ------------------------------
 Symbolic Z-matrix:
 Charge =  0 Multiplicity = 1

 SCF Done:  E(RB3LYP) =  -1121.25165212     A.U. after   16 cycles
 SCF Done:  E(RB3LYP) =  -1121.24491981     A.U. after   14 cycles
 SCF Done:  E(RB3LYP) =  -1121.26240287     A.U. after   13 cycles
 SCF Done:  E(RB3LYP) =  -1121.26256777     A.U. after   14 cycles
 SCF Done:  E(RB3LYP) =  -1121.26469735     A.U. after   13 cycles
 SCF Done:  E(RB3LYP) =  -1121.26478847     A.U. after   13 cycles
 SCF Done:  E(RB3LYP) =  -1121.26690988     A.U. after   13 cycles
 SCF Done:  E(RB3LYP) =  -1121.26418233     A.U. after   15 cycles
 SCF Done:  E(RB3LYP) =  -1121.26856163     A.U. after   13 cycles
 SCF Done:  E(RB3LYP) =  -1121.26996274     A.U. after   13 cycles
 SCF Done:  E(RB3LYP) =  -1121.27152195     A.U. after    9 cycles
 SCF Done:  E(RB3LYP) =  -1121.27152362     A.U. after   10 cycles
 SCF Done:  E(RB3LYP) =  -1121.27152421     A.U. after    8 cycles
 SCF Done:  E(RB3LYP) =  -1121.27152426     A.U. after    7 cycles
 SCF Done:  E(RB3LYP) =  -1121.27152429     A.U. after    7 cycles
 Optimization completed.
    -- Stationary point found.
 Normal termination of Gaussian 16 at Sun Dec 13 20:27:58 2020.

 --------------------------------------------------------------------
 #N Geom=AllCheck Guess=TCheck SCRF=Check GenChk RB3LYP/6-31G(d) Freq
 --------------------------------------------------------------------

 Structure from the checkpoint file:  "JID_7402.chk"
 ------------------------------
 CID_77060808_JID_7402_neutraal
 ------------------------------
 Charge =  0 Multiplicity = 1

 SCF Done:  E(RB3LYP) =  -1121.27152429     A.U. after    1 cycles

  Exact polarizability: 200.047  -3.507 165.293 -31.457   0.701 115.312
 Approx polarizability: 288.623 -14.363 273.538 -66.797  10.275 188.896

                      1                      2                      3
                      A                      A                      A
 Frequencies --     26.3241                40.7191                50.8442
 Red. masses --      5.2699                 1.0240                 6.3471
 Frc consts  --      0.0022                 0.0010                 0.0097
 IR Inten    --      0.2586                 0.3498                 0.3838

                      4                      5                      6
                      A                      A                      A
 Frequencies --     59.9006                67.9527                81.4984
 Red. masses --      4.5047                 5.6819                 5.4572
 Frc consts  --      0.0095                 0.0155                 0.0214
 IR Inten    --      0.3269                 0.8539                 0.5565

                      7                      8                      9
                      A                      A                      A
 Frequencies --    136.5204               146.1580               157.6637
 Red. masses --      4.4399                 3.6153                 5.5080
 Frc consts  --      0.0488                 0.0455                 0.0807
 IR Inten    --      4.6755                 0.7342                 0.3647

                     10                     11                     12
                      A                      A                      A
 Frequencies --    187.9058               194.9888               249.3071
 Red. masses --      1.0743                 5.1437                 3.1826
 Frc consts  --      0.0223                 0.1152                 0.1165
 IR Inten    --      2.4590                 6.2399                10.1877

                     13                     14                     15
                      A                      A                      A
 Frequencies --    268.3759               282.8430               294.1525
 Red. masses --      3.2858                 3.2705                 2.9394
 Frc consts  --      0.1394                 0.1542                 0.1499
 IR Inten    --      4.3468                 4.2946                 5.7000

                     16                     17                     18
                      A                      A                      A
 Frequencies --    308.2813               328.7385               339.7356
 Red. masses --      3.3403                 2.9899                 1.9846
 Frc consts  --      0.1870                 0.1904                 0.1350
 IR Inten    --      2.9957                 7.0104                29.0129

                     19                     20                     21
                      A                      A                      A
 Frequencies --    395.4406               412.1490               418.8533
 Red. masses --      3.1232                 1.3862                 2.4284
 Frc consts  --      0.2878                 0.1387                 0.2510
 IR Inten    --     36.0663                36.0859                 5.8192

                     22                     23                     24
                      A                      A                      A
 Frequencies --    452.7719               471.9663               485.1831
 Red. masses --      3.0504                 3.8388                 3.1925
 Frc consts  --      0.3684                 0.5038                 0.4428
 IR Inten    --      0.6708                10.8815                 5.5541

                     25                     26                     27
                      A                      A                      A
 Frequencies --    523.2203               527.3849               552.2846
 Red. masses --      1.9261                 3.9529                 3.1916
 Frc consts  --      0.3107                 0.6478                 0.5736
 IR Inten    --     28.3932                10.5506                43.5324

                     28                     29                     30
                      A                      A                      A
 Frequencies --    583.9692               600.7990               624.5584
 Red. masses --      3.3563                 4.2112                 4.6809
 Frc consts  --      0.6744                 0.8956                 1.0758
 IR Inten    --     15.8794                 4.9290                16.7479

                     31                     32                     33
                      A                      A                      A
 Frequencies --    654.5809               681.3533               728.4387
 Red. masses --      3.1856                 6.8143                 3.9637
 Frc consts  --      0.8042                 1.8639                 1.2392
 IR Inten    --     49.7577                19.9445                 9.9218

                     34                     35                     36
                      A                      A                      A
 Frequencies --    738.2915               746.7122               788.4939
 Red. masses --      1.5499                 3.9360                 5.6935
 Frc consts  --      0.4977                 1.2930                 2.0856
 IR Inten    --    223.4064                11.4487                 2.0913

                     37                     38                     39
                      A                      A                      A
 Frequencies --    816.7574               833.1861               877.8461
 Red. masses --      3.2883                 1.4505                 4.1082
 Frc consts  --      1.2924                 0.5933                 1.8653
 IR Inten    --      3.3486                16.2689                 2.7903

                     40                     41                     42
                      A                      A                      A
 Frequencies --    907.2082               941.9126               958.3091
 Red. masses --      1.3481                 1.8120                 1.3136
 Frc consts  --      0.6537                 0.9472                 0.7108
 IR Inten    --      5.3867                 1.7223                 0.1886

                     43                     44                     45
                      A                      A                      A
 Frequencies --    965.4071               982.5225              1036.6487
 Red. masses --      3.7347                 2.0234                 1.9494
 Frc consts  --      2.0508                 1.1509                 1.2343
 IR Inten    --     82.1912                 2.7175                 5.7464

                     46                     47                     48
                      A                      A                      A
 Frequencies --   1046.6085              1074.4666              1081.0703
 Red. masses --      1.3821                 1.5017                 1.5057
 Frc consts  --      0.8920                 1.0214                 1.0368
 IR Inten    --      0.3174                 5.2007                 5.8238

                     49                     50                     51
                      A                      A                      A
 Frequencies --   1101.7741              1151.6774              1176.2036
 Red. masses --      1.4754                 2.0901                 1.1723
 Frc consts  --      1.0552                 1.6333                 0.9556
 IR Inten    --    106.6187                 3.9122                51.5905

                     52                     53                     54
                      A                      A                      A
 Frequencies --   1196.6215              1238.6001              1240.5642
 Red. masses --      1.6944                 2.0132                 1.8078
 Frc consts  --      1.4295                 1.8197                 1.6393
 IR Inten    --      1.9529                 8.4341                 1.2685

                     55                     56                     57
                      A                      A                      A
 Frequencies --   1267.4476              1287.4803              1292.9013
 Red. masses --      1.5495                 1.4614                 2.8726
 Frc consts  --      1.4666                 1.4272                 2.8291
 IR Inten    --     59.6796                16.9922                10.2660

                     58                     59                     60
                      A                      A                      A
 Frequencies --   1324.1251              1346.7925              1386.2341
 Red. masses --      1.6073                 5.8001                 1.2268
 Frc consts  --      1.6604                 6.1985                 1.3890
 IR Inten    --      0.9049                 3.2977                 7.0746

                     61                     62                     63
                      A                      A                      A
 Frequencies --   1397.9944              1443.8003              1453.1028
 Red. masses --      2.8766                 1.2468                 1.3849
 Frc consts  --      3.3124                 1.5313                 1.7228
 IR Inten    --    209.3032                 0.0513                 5.2647

                     64                     65                     66
                      A                      A                      A
 Frequencies --   1462.5859              1465.3333              1497.8448
 Red. masses --      1.8249                 2.8325                 1.1138
 Frc consts  --      2.3001                 3.5834                 1.4723
 IR Inten    --      8.4218                40.0066                35.9628

                     67                     68                     69
                      A                      A                      A
 Frequencies --   1517.6291              1519.6637              1522.8860
 Red. masses --      1.0550                 1.0668                 1.0778
 Frc consts  --      1.4317                 1.4516                 1.4727
 IR Inten    --      4.5693                 6.8638                10.8802

                     70                     71                     72
                      A                      A                      A
 Frequencies --   1535.2217              1560.9133              1633.5397
 Red. masses --      1.1211                 3.0433                 5.4627
 Frc consts  --      1.5569                 4.3687                 8.5885
 IR Inten    --     12.7402                45.6254                 9.9222

                     73                     74                     75
                      A                      A                      A
 Frequencies --   1650.6160              1677.0828              1696.0445
 Red. masses --      1.1719                 6.1128                 2.0781
 Frc consts  --      1.8813                10.1297                 3.5221
 IR Inten    --     69.8135                23.3560                 9.2361

                     76                     77                     78
                      A                      A                      A
 Frequencies --   1754.9097              1771.8102              3034.5409
 Red. masses --      2.4882                 3.1379                 1.0419
 Frc consts  --      4.5149                 5.8039                 5.6529
 IR Inten    --    359.0072               201.6669                29.2862

                     79                     80                     81
                      A                      A                      A
 Frequencies --   3043.5923              3093.1834              3101.2049
 Red. masses --      1.0403                 1.0954                 1.0959
 Frc consts  --      5.6779                 6.1748                 6.2101
 IR Inten    --     30.5180                12.8121                21.0483

                     82                     83                     84
                      A                      A                      A
 Frequencies --   3124.4698              3127.6665              3129.3245
 Red. masses --      1.0610                 1.1028                 1.1017
 Frc consts  --      6.1028                 6.3561                 6.3563
 IR Inten    --      4.0817                15.0409                14.3423

                     85                     86                     87
                      A                      A                      A
 Frequencies --   3178.2646              3186.6687              3195.6347
 Red. masses --      1.0870                 1.0906                 1.0945
 Frc consts  --      6.4691                 6.5251                 6.5854
 IR Inten    --     10.5719                13.6976                21.3653

                     88                     89                     90
                      A                      A                      A
 Frequencies --   3199.5768              3370.4861              3517.2831
 Red. masses --      1.1046                 1.0593                 1.0476
 Frc consts  --      6.6627                 7.0904                 7.6358
 IR Inten    --      1.3036                98.8226                13.2551

                     91                     92                     93
                      A                      A                      A
 Frequencies --   3520.5834              3570.1741              3628.3584
 Red. masses --      1.0832                 1.0749                 1.0981
 Frc consts  --      7.9104                 8.0726                 8.5177
 IR Inten    --      6.3883                26.4264                10.4915

 - Thermochemistry -
 -------------------
 Temperature   298.150 Kelvin.  Pressure   1.00000 Atm.
 Atom     1 has atomic number  6 and mass  12.00000

 Molecular mass:   252.10448 amu.
 Principal axes and moments of inertia in atomic units:
                           1         2         3
     Eigenvalues --  2435.187776593.806237169.73785
           X            0.99990   0.00851  -0.01118
           Y           -0.00922   0.99785  -0.06496
           Z            0.01061   0.06505   0.99783
 This molecule is an asymmetric top.
 Rotational symmetry number  1.
 Warning -- assumption of classical behavior for rotation
           may cause significant error
 Rotational temperatures (Kelvin)      0.03557     0.01314     0.01208
 Rotational constants (GHZ):           0.74111     0.27370     0.25172
 Zero-point vibrational energy     710119.5 (Joules/Mol)
                                  169.72264 (Kcal/Mol)
 Warning -- explicit consideration of  29 degrees of freedom as
           vibrations may cause significant error
 Vibrational temperatures:     37.87    58.59    73.15    86.18    97.77
          (Kelvin)            117.26   196.42   210.29   226.84   270.35
                              280.55   358.70   386.13   406.95   423.22
                              443.55   472.98   488.80   568.95   592.99
                              602.64   651.44   679.05   698.07   752.80
                              758.79   794.61   840.20   864.42   898.60
                              941.80   980.32  1048.06  1062.24  1074.35
                             1134.47  1175.13  1198.77  1263.02  1305.27
                             1355.20  1378.79  1389.01  1413.63  1491.51
                             1505.84  1545.92  1555.42  1585.21  1657.01
                             1692.29  1721.67  1782.07  1784.90  1823.57
                             1852.40  1860.20  1905.12  1937.73  1994.48
                             2011.40  2077.31  2090.69  2104.33  2108.29
                             2155.06  2183.53  2186.46  2191.09  2208.84
                             2245.81  2350.30  2374.87  2412.95  2440.23
                             2524.92  2549.24  4366.03  4379.05  4450.40
                             4461.94  4495.42  4500.01  4502.40  4572.81
                             4584.91  4597.81  4603.48  4849.38  5060.59
                             5065.33  5136.68  5220.40

 Zero-point correction=                           0.270470 (Hartree/Particle)
 Thermal correction to Energy=                    0.288477
 Thermal correction to Enthalpy=                  0.289421
 Thermal correction to Gibbs Free Energy=         0.223511
 Sum of electronic and zero-point Energies=          -1121.001054
 Sum of electronic and thermal Energies=             -1120.983047
 Sum of electronic and thermal Enthalpies=           -1120.982103
 Sum of electronic and thermal Free Energies=        -1121.048014

                     E (Thermal)             CV                S
                      KCal/Mol        Cal/Mol-Kelvin    Cal/Mol-Kelvin
 Total                  181.022             67.057            138.721
 Electronic               0.000              0.000              0.000
 Translational            0.889              2.981             42.474
 Rotational               0.889              2.981             33.109
 Vibrational            179.245             61.095             63.137
 Vibration     1          0.593              1.985              6.089
 Vibration     2          0.594              1.981              5.224
 Vibration     3          0.595              1.977              4.784
 Vibration     4          0.597              1.973              4.460
 Vibration     5          0.598              1.969              4.212
 Vibration     6          0.600              1.962              3.854
 Vibration     7          0.614              1.917              2.852
 Vibration     8          0.617              1.907              2.722
 Vibration     9          0.621              1.894              2.578
 Vibration    10          0.633              1.856              2.248
 Vibration    11          0.636              1.847              2.180
 Vibration    12          0.662              1.764              1.735
 Vibration    13          0.673              1.731              1.607
 Vibration    14          0.682              1.705              1.516
 Vibration    15          0.689              1.685              1.450
 Vibration    16          0.698              1.658              1.372
 Vibration    17          0.712              1.618              1.266
 Vibration    18          0.720              1.596              1.213
 Vibration    19          0.762              1.480              0.980
 Vibration    20          0.776              1.444              0.919
 Vibration    21          0.782              1.429              0.896
 Vibration    22          0.811              1.355              0.787
 Vibration    23          0.829              1.312              0.732
 Vibration    24          0.841              1.283              0.696
 Vibration    25          0.878              1.199              0.603
 Vibration    26          0.882              1.189              0.593
 Vibration    27          0.908              1.135              0.539
 Vibration    28          0.941              1.066              0.478
 Vibration    29          0.959              1.030              0.448

                           ! Non-Optimized Parameters !
 Normal termination of Gaussian 16 at Sun Dec 13 20:40:18 2020.

 ----------------------------------------------------------------------
 # B3LYP/6-311++G(d,p) empiricaldispersion=gd3bj scf=xqc pop=npa geom=c
 heck
 ----------------------------------------------------------------------

 --------------------------------------
 CID_77060808_JID_7402_Energie_neutraal
 --------------------------------------
 Structure from the checkpoint file:  "JID_7402.chk"
 Charge =  0 Multiplicity = 1

 SCF Done:  E(RB3LYP) =  -1121.51295684     A.U. after   16 cycles
 Normal termination of Gaussian 16 at Sun Dec 13 20:46:46 2020.

 ----------------------------------------------------------------------
 # B3LYP/6-311++G(d,p) empiricaldispersion=gd3bj scf=xqc pop=npa geom=c
 heck
 ----------------------------------------------------------------------

 ------------------------------------
 CID_77060808_JID_7402_Energie_kation
 ------------------------------------
 Structure from the checkpoint file:  "JID_7402.chk"
 Charge =  1 Multiplicity = 2

 SCF Done:  E(UB3LYP) =  -1121.23381692     A.U. after   26 cycles
 Normal termination of Gaussian 16 at Sun Dec 13 21:02:22 2020.
 Gaussian 16:  ES64L-G16RevA.03 25-Dec-2016

 ----------------------------------------------------------------------
 # B3LYP/6-311++G(d,p) empiricaldispersion=gd3bj scf=xqc pop=npa geom=c
 heck
 ----------------------------------------------------------------------

 -----------------------------------
 CID_77060808_JID_7402_Energie_anion
 -----------------------------------
 Structure from the checkpoint file:  "JID_7402.chk"
 Charge = -1 Multiplicity = 2

                         Standard orientation:
 ---------------------------------------------------------------------
 Center     Atomic      Atomic             Coordinates (Angstroms)
 Number     Number       Type             X           Y           Z
 ---------------------------------------------------------------------
      1          6           0       -4.340534   -1.614408    0.995143
      2          6           0       -3.403232   -0.591978    0.400943
      3          6           0       -2.275099   -0.986896   -0.323110
      4          6           0       -1.378897   -0.047522   -0.836368
      5          6           0       -1.605233    1.330361   -0.683022
      6          6           0       -2.751835    1.716270    0.017083
      7          6           0       -3.629594    0.779175    0.558575
      8          6           0       -0.641279    2.344165   -1.240766
      9          7           0       -0.231242   -0.492044   -1.556723
     10          6           0        0.853273   -1.173124   -1.079594
     11          8           0        1.798779   -1.448919   -1.814930
     12          6           0        0.878660   -1.540770    0.396394
     13         16           0        1.249463   -0.102237    1.477261
     14          6           0        2.657473    0.744608    0.704748
     15          7           0        3.749106    0.274970    0.247816
     16          7           0        3.907408   -1.137760    0.242008
     17          7           0        2.440802    2.128209    0.660437
     18          1           0       -4.303207   -2.559794    0.444303
     19          1           0       -4.078481   -1.832972    2.038668
     20          1           0       -5.376025   -1.258454    0.988558
     21          1           0       -2.090054   -2.041647   -0.508986
     22          1           0       -2.953339    2.776385    0.148053
     23          1           0       -4.506653    1.117950    1.104367
     24          1           0        0.365868    2.209742   -0.828511
     25          1           0       -0.556989    2.272261   -2.333565
     26          1           0       -0.974258    3.359930   -1.007763
     27          1           0       -0.087775   -0.135823   -2.495432
     28          1           0       -0.094269   -1.883462    0.752606
     29          1           0        1.624313   -2.318155    0.545739
     30          1           0        3.361148   -1.493479   -0.551695
     31          1           0        4.882550   -1.280195   -0.014827
     32          1           0        1.843238    2.485170    1.397630
     33          1           0        3.317569    2.636770    0.589214
 ---------------------------------------------------------------------

 SCF Done:  E(UB3LYP) =  -1121.50454547     A.U. after   33 cycles
 SCF Done:  E(UB3LYP) =  -1121.50454547     a.u. after    1 cycles

 The electronic state is 2-A.
 Alpha  occ. eigenvalues --  -88.74872 -18.98905 -14.24195 -14.22131 -14.21783
 Alpha  occ. eigenvalues --  -14.21454 -10.17040 -10.15548 -10.10743 -10.10458
 Alpha  occ. eigenvalues --  -10.08243 -10.08072 -10.07294 -10.07080 -10.06859
 Alpha  occ. eigenvalues --  -10.06457 -10.06456  -7.83490  -5.79902  -5.79511
 Alpha  occ. eigenvalues --   -5.78827  -0.94252  -0.87923  -0.83617  -0.80979
 Alpha  occ. eigenvalues --   -0.75294  -0.69775  -0.68746  -0.67750  -0.64186
 Alpha  occ. eigenvalues --   -0.62341  -0.58647  -0.56056  -0.52513  -0.48851
 Alpha  occ. eigenvalues --   -0.48157  -0.46237  -0.42397  -0.41496  -0.40558
 Alpha  occ. eigenvalues --   -0.38878  -0.37919  -0.37708  -0.35437  -0.34258
 Alpha  occ. eigenvalues --   -0.33472  -0.32666  -0.32139  -0.31829  -0.31254
 Alpha  occ. eigenvalues --   -0.30660  -0.30113  -0.29604  -0.28188  -0.27508
 Alpha  occ. eigenvalues --   -0.26154  -0.25271  -0.24748  -0.24564  -0.21449
 Alpha  occ. eigenvalues --   -0.18474  -0.17049  -0.15542  -0.14650  -0.14281
 Alpha  occ. eigenvalues --   -0.13061  -0.10784   0.04354
 Alpha virt. eigenvalues --    0.06235   0.06849   0.07624   0.08000   0.08141
 Alpha virt. eigenvalues --    0.08681   0.08751   0.09288   0.09839   0.10232
 Alpha virt. eigenvalues --    0.10940   0.11290   0.11490   0.12464   0.12559

  Beta  occ. eigenvalues --  -88.74842 -18.98759 -14.24215 -14.22076 -14.21782
  Beta  occ. eigenvalues --  -14.21453 -10.16880 -10.15546 -10.10661 -10.10422
  Beta  occ. eigenvalues --  -10.08261 -10.08075 -10.07266 -10.07037 -10.06831
  Beta  occ. eigenvalues --  -10.06447 -10.06364  -7.83454  -5.79862  -5.79476
  Beta  occ. eigenvalues --   -5.78800  -0.93987  -0.87908  -0.83512  -0.80909
  Beta  occ. eigenvalues --   -0.75208  -0.69629  -0.68694  -0.67693  -0.64031
  Beta  occ. eigenvalues --   -0.62295  -0.58461  -0.55978  -0.52343  -0.48784
  Beta  occ. eigenvalues --   -0.48025  -0.46161  -0.42310  -0.41431  -0.40500
  Beta  occ. eigenvalues --   -0.38766  -0.37834  -0.37601  -0.35386  -0.34046
  Beta  occ. eigenvalues --   -0.33396  -0.32604  -0.32040  -0.31659  -0.31140
  Beta  occ. eigenvalues --   -0.30603  -0.30067  -0.29348  -0.28134  -0.27444
  Beta  occ. eigenvalues --   -0.26025  -0.25167  -0.24618  -0.24380  -0.21369
  Beta  occ. eigenvalues --   -0.18067  -0.16918  -0.15495  -0.14416  -0.14115
  Beta  occ. eigenvalues --   -0.12790  -0.10763
  Beta virt. eigenvalues --    0.06606   0.07180   0.07656   0.07936   0.08412
  Beta virt. eigenvalues --    0.08498   0.08885   0.09131   0.09494   0.10045
  Beta virt. eigenvalues --    0.10303   0.11314   0.11570   0.12016   0.12541

 Mulliken charges and spin densities:
               1          2
     1  C    1.501431  -2.079359
     2  C    0.119329   0.343898
     3  C   -0.765080   0.508909
     4  C   -0.516721   0.556171
     5  C    0.092854   0.658590
     6  C   -0.146402  -0.306993
     7  C   -0.367912  -0.202004
     8  C    0.326431  -0.943353
     9  N   -0.159317  -0.014613
    10  C   -0.288091   0.073729
    11  O   -0.350223   0.046943
    12  C   -0.479249   0.306713
    13  S    0.786329  -0.702734
    14  C   -0.527346  -0.006022
    15  N   -0.062577  -0.013821
    16  N   -0.439614  -0.011015
    17  N   -0.152799  -0.029476
    18  H   -0.004182   0.140890
    19  H    0.060293   0.108875
    20  H   -0.313080   0.456330
    21  H    0.090103   0.063843
    22  H   -0.321581   0.464769
    23  H   -0.431185   0.580040
    24  H    0.416724  -0.174136
    25  H    0.090132   0.043596
    26  H   -0.157369   0.300773
    27  H    0.299686   0.007873
    28  H    0.113144   0.092035
    29  H    0.274021   0.016563
    30  H    0.272573  -0.006847
    31  H    0.252721   0.001875
    32  H   -0.215896   0.456240
    33  H    0.002851   0.261718
 Sum of Mulliken charges =  -1.00000   1.00000

 Dipole moment (field-independent basis, Debye):
    X=              1.9082    Y=             -2.9170    Z=             -2.6317  Tot=              4.3676
 Quadrupole moment (field-independent basis, Debye-Ang):
   XX=           -186.6600   YY=           -144.1272   ZZ=           -138.0922
   XY=             -0.7857   XZ=              3.9798   YZ=             -5.4658

 Summary of Natural Population Analysis:

                                       Natural Population
                Natural  -----------------------------------------------
    Atom  No    Charge         Core      Valence    Rydberg      Total
 -----------------------------------------------------------------------
      C    1   -0.28970      0.99964     2.28517    0.00489     3.28970
      C    2   -0.02152      0.99952     2.01253    0.00947     3.02152
      C    3   -0.10105      0.99947     2.09271    0.00887     3.10105
      C    4    0.08075      0.99941     1.90792    0.01192     2.91925
      C    5   -0.01719      0.99947     2.00835    0.00937     3.01719
      C    6   -0.08967      0.99952     2.08025    0.00990     3.08967
      C    7   -0.08479      0.99951     2.07548    0.00979     3.08479
      C    8   -0.29944      0.99963     2.29363    0.00618     3.29944
      N    9   -0.31742      0.99964     2.80842    0.00937     3.81742
      C   10    0.35807      0.99966     1.62017    0.02210     2.64193
      O   11   -0.32114      0.99987     3.31517    0.00611     4.32114
      C   12   -0.28702      0.99954     2.27770    0.00977     3.28702
      S   13    0.10850      4.99956     2.87365    0.01829     7.89150
      C   14    0.13202      0.99959     1.84402    0.02436     2.86798
      N   15   -0.19665      0.99957     2.68206    0.01502     3.69665
      N   16   -0.33717      0.99975     2.82650    0.01091     3.83717
      N   17   -0.40335      0.99971     2.89141    0.01223     3.90335
      H   18    0.09922      0.00000     0.39982    0.00096     0.40078
      H   19    0.10319      0.00000     0.39567    0.00114     0.39681
      H   20    0.10447      0.00000     0.39395    0.00158     0.39553
      H   21    0.09819      0.00000     0.40032    0.00149     0.40181
      H   22    0.09858      0.00000     0.40031    0.00111     0.40142
      H   23    0.09826      0.00000     0.40063    0.00111     0.40174
      H   24    0.11964      0.00000     0.37829    0.00207     0.38036
      H   25    0.09616      0.00000     0.40293    0.00091     0.40384
      H   26    0.10192      0.00000     0.39712    0.00097     0.39808
      H   27    0.19608      0.00000     0.30163    0.00229     0.30392
      H   28    0.11862      0.00000     0.38003    0.00136     0.38138
      H   29    0.11532      0.00000     0.38324    0.00144     0.38468
      H   30    0.18922      0.00000     0.30834    0.00243     0.31078
      H   31    0.16886      0.00000     0.32960    0.00154     0.33114
      H   32    0.19160      0.00000     0.30444    0.00397     0.30840
      H   33    0.18745      0.00000     0.30932    0.00323     0.31255
 =======================================================================
   * Total *   -0.00000     20.99305    45.78079    0.22617    67.00000

 Normal termination of Gaussian 16 at Sun Dec 13 21:21:41 2020.
