 Gaussian 16, Revision A.03,

 -----------------------------------------------------------
 # opt freq B3LYP/6-31G(d) empiricaldispersion=gd3bj scf=xqc
 -----------------------------------------------------------

 ------------------------------
 CID_62161180_JID_9958_neutraal
 ------------------------------
 Symbolic Z-matrix:
 Charge =  0 Multiplicity = 1

 SCF Done:  E(RB3LYP) =  -812.798112117     A.U. after   14 cycles
 SCF Done:  E(RB3LYP) =  -812.802361039     A.U. after   13 cycles
 SCF Done:  E(RB3LYP) =  -812.801594708     A.U. after   13 cycles
 SCF Done:  E(RB3LYP) =  -812.803026375     A.U. after   13 cycles
 SCF Done:  E(RB3LYP) =  -812.803766245     A.U. after   12 cycles
 SCF Done:  E(RB3LYP) =  -812.804385877     A.U. after   12 cycles
 SCF Done:  E(RB3LYP) =  -812.804297400     A.U. after   13 cycles
 SCF Done:  E(RB3LYP) =  -812.804614556     A.U. after   12 cycles
 SCF Done:  E(RB3LYP) =  -812.804637604     A.U. after   11 cycles
 SCF Done:  E(RB3LYP) =  -812.804602943     A.U. after   12 cycles
 SCF Done:  E(RB3LYP) =  -812.804703322     A.U. after    9 cycles
 SCF Done:  E(RB3LYP) =  -812.804703807     A.U. after    9 cycles
 SCF Done:  E(RB3LYP) =  -812.804703941     A.U. after    8 cycles
 SCF Done:  E(RB3LYP) =  -812.804703999     A.U. after    6 cycles
 SCF Done:  E(RB3LYP) =  -812.804704025     A.U. after    7 cycles
 Optimization completed.
    -- Stationary point found.
 Normal termination of Gaussian 16 at Sat Dec 12 10:54:59 2020.

 --------------------------------------------------------------------
 #N Geom=AllCheck Guess=TCheck SCRF=Check GenChk RB3LYP/6-31G(d) Freq
 --------------------------------------------------------------------

 Structure from the checkpoint file:  "JID_9958.chk"
 ------------------------------
 CID_62161180_JID_9958_neutraal
 ------------------------------
 Charge =  0 Multiplicity = 1

 SCF Done:  E(RB3LYP) =  -812.804704025     A.U. after    1 cycles

  Exact polarizability: 189.008 -19.215 178.097 -17.899  -7.800 161.488
 Approx polarizability: 250.749 -29.393 275.479 -34.028 -30.454 255.441

                      1                      2                      3
                      A                      A                      A
 Frequencies --     16.7144                31.5168                36.9223
 Red. masses --      4.0407                 1.0787                 2.4872
 Frc consts  --      0.0007                 0.0006                 0.0020
 IR Inten    --      0.2289                 0.8753                 2.9850

                      4                      5                      6
                      A                      A                      A
 Frequencies --     43.0041                44.1956                78.7125
 Red. masses --      3.4029                 4.1671                 7.5319
 Frc consts  --      0.0037                 0.0048                 0.0275
 IR Inten    --      0.4628                 0.3979                 3.1381

                      7                      8                      9
                      A                      A                      A
 Frequencies --     98.9305               114.2427               136.5364
 Red. masses --      3.2581                 3.1882                 3.3361
 Frc consts  --      0.0188                 0.0245                 0.0366
 IR Inten    --      1.2307                 0.7126                 0.8860

                     10                     11                     12
                      A                      A                      A
 Frequencies --    163.4666               171.4508               196.7623
 Red. masses --      2.4310                 1.0973                 3.6168
 Frc consts  --      0.0383                 0.0190                 0.0825
 IR Inten    --      0.2456                 0.1376                 2.4929

                     13                     14                     15
                      A                      A                      A
 Frequencies --    233.0242               240.3566               245.2833
 Red. masses --      3.0785                 1.2311                 3.4158
 Frc consts  --      0.0985                 0.0419                 0.1211
 IR Inten    --      1.3063                 0.4123                 1.5118

                     16                     17                     18
                      A                      A                      A
 Frequencies --    276.2622               305.2691               318.2190
 Red. masses --      1.9402                 2.7397                 2.8187
 Frc consts  --      0.0872                 0.1504                 0.1682
 IR Inten    --      0.7797                 0.5409                 0.4353

                     19                     20                     21
                      A                      A                      A
 Frequencies --    341.2701               356.2350               388.5290
 Red. masses --      3.6662                 2.7023                 4.0268
 Frc consts  --      0.2516                 0.2021                 0.3581
 IR Inten    --      1.5139                 5.0618                 0.2430

                     22                     23                     24
                      A                      A                      A
 Frequencies --    416.0786               443.6819               455.1303
 Red. masses --      3.6043                 3.3919                 1.9173
 Frc consts  --      0.3676                 0.3934                 0.2340
 IR Inten    --      0.2728                 3.9376                 1.1570

                     25                     26                     27
                      A                      A                      A
 Frequencies --    487.5139               501.3015               517.7881
 Red. masses --      4.1940                 2.2192                 3.1935
 Frc consts  --      0.5873                 0.3286                 0.5045
 IR Inten    --      1.9533                 6.2278                 1.9106

                     28                     29                     30
                      A                      A                      A
 Frequencies --    527.8760               553.1483               587.0283
 Red. masses --      3.2114                 4.9020                 2.9377
 Frc consts  --      0.5272                 0.8837                 0.5964
 IR Inten    --      2.5973                 4.7109                 9.6075

                     31                     32                     33
                      A                      A                      A
 Frequencies --    604.6297               690.0957               731.2970
 Red. masses --      3.0774                 5.1046                 4.2045
 Frc consts  --      0.6628                 1.4323                 1.3248
 IR Inten    --     13.5877                 1.5861                 3.9841

                     34                     35                     36
                      A                      A                      A
 Frequencies --    747.9578               785.7641               802.5587
 Red. masses --      3.8393                 2.6716                 2.6058
 Frc consts  --      1.2655                 0.9719                 0.9889
 IR Inten    --      0.3352                 3.0634                 2.6295

                     37                     38                     39
                      A                      A                      A
 Frequencies --    840.0845               848.7372               870.3316
 Red. masses --      1.8174                 2.0607                 1.8160
 Frc consts  --      0.7557                 0.8746                 0.8105
 IR Inten    --      7.6043                11.7847                 2.6522

                     40                     41                     42
                      A                      A                      A
 Frequencies --    878.2011               904.8251               919.4537
 Red. masses --      1.7950                 1.8338                 2.2156
 Frc consts  --      0.8156                 0.8846                 1.1036
 IR Inten    --      0.9387                 4.4212                 0.4466

                     43                     44                     45
                      A                      A                      A
 Frequencies --    925.0062               948.7222               956.1703
 Red. masses --      1.5167                 2.0311                 1.5026
 Frc consts  --      0.7646                 1.0771                 0.8094
 IR Inten    --      0.6657                 2.6147                 1.6051

                     46                     47                     48
                      A                      A                      A
 Frequencies --    962.2710               981.0495               995.7371
 Red. masses --      2.1804                 1.9149                 1.6755
 Frc consts  --      1.1895                 1.0859                 0.9788
 IR Inten    --      4.8478                 1.1440                 1.1031

                     49                     50                     51
                      A                      A                      A
 Frequencies --   1002.2440              1038.3086              1054.9532
 Red. masses --      1.4470                 1.5184                 6.8567
 Frc consts  --      0.8564                 0.9645                 4.4961
 IR Inten    --      1.5294                 2.8947                69.4105

                     52                     53                     54
                      A                      A                      A
 Frequencies --   1064.5712              1077.2935              1098.2429
 Red. masses --      1.7609                 1.5255                 1.9565
 Frc consts  --      1.1758                 1.0431                 1.3904
 IR Inten    --      4.0266                12.0557                25.2800

                     55                     56                     57
                      A                      A                      A
 Frequencies --   1103.0664              1113.5576              1130.6964
 Red. masses --      2.4478                 1.2551                 2.2660
 Frc consts  --      1.7548                 0.9170                 1.7069
 IR Inten    --      8.9834                 2.0941                33.2760

                     58                     59                     60
                      A                      A                      A
 Frequencies --   1166.0514              1177.6269              1182.2817
 Red. masses --      1.8409                 1.4704                 1.9880
 Frc consts  --      1.4747                 1.2014                 1.6373
 IR Inten    --     22.7596                 1.1008                 1.7882

                     61                     62                     63
                      A                      A                      A
 Frequencies --   1187.3761              1190.2663              1215.6096
 Red. masses --      1.2601                 1.9784                 1.4236
 Frc consts  --      1.0467                 1.6514                 1.2395
 IR Inten    --      1.8318                 7.1639                 4.1402

                     64                     65                     66
                      A                      A                      A
 Frequencies --   1244.1698              1257.2914              1269.3853
 Red. masses --      1.4582                 2.1932                 1.9548
 Frc consts  --      1.3299                 2.0427                 1.8558
 IR Inten    --     11.6618                43.5220                73.4996

                     67                     68                     69
                      A                      A                      A
 Frequencies --   1285.2193              1296.4469              1307.7858
 Red. masses --      4.1702                 1.4361                 1.3105
 Frc consts  --      4.0585                 1.4221                 1.3206
 IR Inten    --     88.0207                 7.3237                 7.4323

                     70                     71                     72
                      A                      A                      A
 Frequencies --   1313.6534              1320.6720              1324.2552
 Red. masses --      1.4728                 1.3671                 1.4679
 Frc consts  --      1.4975                 1.4049                 1.5167
 IR Inten    --      6.7935                 2.0028                18.3304

                     73                     74                     75
                      A                      A                      A
 Frequencies --   1337.4156              1355.0275              1357.6414
 Red. masses --      1.2892                 1.2722                 4.4010
 Frc consts  --      1.3587                 1.3763                 4.7794
 IR Inten    --      1.8411                 0.8650                 8.3150

                     76                     77                     78
                      A                      A                      A
 Frequencies --   1384.4871              1393.3587              1396.6001
 Red. masses --      1.3259                 1.4051                 1.3825
 Frc consts  --      1.4974                 1.6072                 1.5888
 IR Inten    --      0.4338                 6.5636                 2.3470

                     79                     80                     81
                      A                      A                      A
 Frequencies --   1409.9699              1426.9856              1439.3962
 Red. masses --      1.4848                 1.5560                 1.2457
 Frc consts  --      1.7391                 1.8668                 1.5206
 IR Inten    --      2.4784                 2.8621                 2.0086

                     82                     83                     84
                      A                      A                      A
 Frequencies --   1443.7378              1456.1042              1495.6427
 Red. masses --      1.2485                 2.8818                 1.1861
 Frc consts  --      1.5332                 3.5999                 1.5632
 IR Inten    --      0.1880                 4.0321                 7.9885

                     85                     86                     87
                      A                      A                      A
 Frequencies --   1505.4996              1512.8193              1515.0723
 Red. masses --      1.1134                 1.0897                 1.0513
 Frc consts  --      1.4868                 1.4693                 1.4219
 IR Inten    --     10.3540                 1.4201                 5.1634

                     88                     89                     90
                      A                      A                      A
 Frequencies --   1516.4207              1517.7863              1523.8706
 Red. masses --      1.0857                 1.0490                 1.0942
 Frc consts  --      1.4710                 1.4238                 1.4971
 IR Inten    --      6.5851                 4.0714                 0.3605

                     91                     92                     93
                      A                      A                      A
 Frequencies --   1525.5985              1527.6565              1531.3052
 Red. masses --      1.1257                 1.0460                 1.0602
 Frc consts  --      1.5436                 1.4382                 1.4648
 IR Inten    --     10.3914                 4.7994                 3.2905

                     94                     95                     96
                      A                      A                      A
 Frequencies --   1534.6437              1539.3850              1554.7006
 Red. masses --      1.0583                 1.0887                 2.5569
 Frc consts  --      1.4685                 1.5200                 3.6413
 IR Inten    --     14.0619                 6.3679                69.2490

                     97                     98                     99
                      A                      A                      A
 Frequencies --   1636.8290              1669.4198              1790.8724
 Red. masses --      6.5671                 5.8228                11.0415
 Frc consts  --     10.3665                 9.5613                20.8646
 IR Inten    --      0.7267                 2.1827               174.2470

                    100                    101                    102
                      A                      A                      A
 Frequencies --   2998.1110              3019.7069              3024.7531
 Red. masses --      1.0819                 1.0651                 1.0334
 Frc consts  --      5.7298                 5.7223                 5.5708
 IR Inten    --     15.3535                22.8613                59.1208

                    103                    104                    105
                      A                      A                      A
 Frequencies --   3027.7684              3030.8357              3038.3528
 Red. masses --      1.0635                 1.0629                 1.0475
 Frc consts  --      5.7442                 5.7525                 5.6972
 IR Inten    --     28.6866                22.3663                46.8601

                    106                    107                    108
                      A                      A                      A
 Frequencies --   3039.7371              3043.1432              3058.5585
 Red. masses --      1.0725                 1.0401                 1.0652
 Frc consts  --      5.8387                 5.6752                 5.8712
 IR Inten    --     20.2384                33.6084                12.1269

                    109                    110                    111
                      A                      A                      A
 Frequencies --   3066.9985              3076.1665              3084.1866
 Red. masses --      1.0972                 1.0953                 1.1051
 Frc consts  --      6.0809                 6.1067                 6.1936
 IR Inten    --     54.1590                44.9602                29.3653

                    112                    113                    114
                      A                      A                      A
 Frequencies --   3086.2497              3090.1601              3098.7827
 Red. masses --      1.0651                 1.0960                 1.0970
 Frc consts  --      5.9772                 6.1664                 6.2066
 IR Inten    --     24.1341                 2.1613                19.3230

                    115                    116                    117
                      A                      A                      A
 Frequencies --   3103.7292              3106.4873              3107.2763
 Red. masses --      1.1022                 1.1037                 1.1024
 Frc consts  --      6.2559                 6.2755                 6.2712
 IR Inten    --     34.0493                54.3924                40.0214

                    118                    119                    120
                      A                      A                      A
 Frequencies --   3129.3415              3150.3220              3151.3757
 Red. masses --      1.1019                 1.1012                 1.1012
 Frc consts  --      6.3578                 6.4390                 6.4437
 IR Inten    --     14.2017                19.3166                18.3035

                    121                    122                    123
                      A                      A                      A
 Frequencies --   3181.9478              3185.1765              3205.8995
 Red. masses --      1.0881                 1.0902                 1.0939
 Frc consts  --      6.4911                 6.5169                 6.6242
 IR Inten    --     14.1212                 5.1368                12.3907

 - Thermochemistry -
 -------------------
 Temperature   298.150 Kelvin.  Pressure   1.00000 Atm.
 Atom     1 has atomic number  6 and mass  12.00000

 Molecular mass:   260.17763 amu.
 Principal axes and moments of inertia in atomic units:
                           1         2         3
     Eigenvalues --  3629.716366687.986217574.51629
           X            0.99981  -0.01963   0.00187
           Y            0.01943   0.99703   0.07448
           Z           -0.00333  -0.07443   0.99722
 This molecule is an asymmetric top.
 Rotational symmetry number  1.
 Warning -- assumption of classical behavior for rotation
           may cause significant error
 Rotational temperatures (Kelvin)      0.02386     0.01295     0.01143
 Rotational constants (GHZ):           0.49721     0.26985     0.23826
 Zero-point vibrational energy     996152.4 (Joules/Mol)
                                  238.08614 (Kcal/Mol)
 Warning -- explicit consideration of  31 degrees of freedom as
           vibrations may cause significant error
 Vibrational temperatures:     24.05    45.35    53.12    61.87    63.59
          (Kelvin)            113.25   142.34   164.37   196.45   235.19
                              246.68   283.10   335.27   345.82   352.91
                              397.48   439.21   457.85   491.01   512.54
                              559.01   598.64   638.36   654.83   701.42
                              721.26   744.98   759.50   795.86   844.60
                              869.93   992.89  1052.17  1076.14  1130.54
                             1154.70  1208.69  1221.14  1252.21  1263.54
                             1301.84  1322.89  1330.88  1365.00  1375.72
                             1384.49  1411.51  1432.64  1442.01  1493.89
                             1517.84  1531.68  1549.99  1580.13  1587.07
                             1602.16  1626.82  1677.69  1694.34  1701.04
                             1708.37  1712.53  1748.99  1790.08  1808.96
                             1826.36  1849.14  1865.30  1881.61  1890.05
                             1900.15  1905.31  1924.24  1949.58  1953.34
                             1991.97  2004.73  2009.40  2028.63  2053.11
                             2070.97  2077.22  2095.01  2151.90  2166.08
                             2176.61  2179.85  2181.79  2183.76  2192.51
                             2195.00  2197.96  2203.21  2208.01  2214.83
                             2236.87  2355.03  2401.92  2576.67  4313.61
                             4344.68  4351.95  4356.28  4360.70  4371.51
                             4373.50  4378.40  4400.58  4412.73  4425.92
                             4437.46  4440.42  4446.05  4458.46  4465.57
                             4469.54  4470.68  4502.42  4532.61  4534.13
                             4578.11  4582.76  4612.57

 Zero-point correction=                           0.379414 (Hartree/Particle)
 Thermal correction to Energy=                    0.398981
 Thermal correction to Enthalpy=                  0.399925
 Thermal correction to Gibbs Free Energy=         0.329184
 Sum of electronic and zero-point Energies=           -812.425290
 Sum of electronic and thermal Energies=              -812.405723
 Sum of electronic and thermal Enthalpies=            -812.404779
 Sum of electronic and thermal Free Energies=         -812.475520

                     E (Thermal)             CV                S
                      KCal/Mol        Cal/Mol-Kelvin    Cal/Mol-Kelvin
 Total                  250.364             73.547            148.886
 Electronic               0.000              0.000              0.000
 Translational            0.889              2.981             42.568
 Rotational               0.889              2.981             33.574
 Vibrational            248.587             67.585             72.744
 Vibration     1          0.593              1.986              6.991
 Vibration     2          0.594              1.983              5.732
 Vibration     3          0.594              1.982              5.418
 Vibration     4          0.595              1.980              5.116
 Vibration     5          0.595              1.980              5.062
 Vibration     6          0.600              1.963              3.923
 Vibration     7          0.604              1.950              3.475
 Vibration     8          0.607              1.938              3.196
 Vibration     9          0.614              1.917              2.852
 Vibration    10          0.623              1.887              2.509
 Vibration    11          0.626              1.878              2.420
 Vibration    12          0.636              1.844              2.163
 Vibration    13          0.654              1.790              1.856
 Vibration    14          0.657              1.779              1.800
 Vibration    15          0.660              1.771              1.764
 Vibration    16          0.678              1.717              1.557
 Vibration    17          0.696              1.664              1.388
 Vibration    18          0.705              1.639              1.319
 Vibration    19          0.721              1.593              1.206
 Vibration    20          0.732              1.562              1.138
 Vibration    21          0.757              1.495              1.006
 Vibration    22          0.779              1.435              0.905
 Vibration    23          0.803              1.375              0.815
 Vibration    24          0.813              1.350              0.780
 Vibration    25          0.843              1.278              0.690
 Vibration    26          0.857              1.247              0.655
 Vibration    27          0.873              1.211              0.615
 Vibration    28          0.883              1.188              0.592
 Vibration    29          0.909              1.133              0.538
 Vibration    30          0.944              1.059              0.473
 Vibration    31          0.963              1.022              0.442

 Optimization completed.
    -- Stationary point found.
 Normal termination of Gaussian 16 at Sat Dec 12 11:19:02 2020.

 ----------------------------------------------------------------------
 # B3LYP/6-311++G(d,p) empiricaldispersion=gd3bj scf=xqc pop=npa geom=c
 heck
 ----------------------------------------------------------------------

 --------------------------------------
 CID_62161180_JID_9958_Energie_neutraal
 --------------------------------------
 Structure from the checkpoint file:  "JID_9958.chk"
 Charge =  0 Multiplicity = 1

 SCF Done:  E(RB3LYP) =  -813.024137667     A.U. after   14 cycles
 Normal termination of Gaussian 16 at Sat Dec 12 11:29:39 2020.

 ----------------------------------------------------------------------
 # B3LYP/6-311++G(d,p) empiricaldispersion=gd3bj scf=xqc pop=npa geom=c
 heck
 ----------------------------------------------------------------------

 ------------------------------------
 CID_62161180_JID_9958_Energie_kation
 ------------------------------------
 Structure from the checkpoint file:  "JID_9958.chk"
 Charge =  1 Multiplicity = 2

 SCF Done:  E(UB3LYP) =  -812.730277576     A.U. after   24 cycles
 Normal termination of Gaussian 16 at Sat Dec 12 11:54:39 2020.
 Gaussian 16:  ES64L-G16RevA.03 25-Dec-2016

 ----------------------------------------------------------------------
 # B3LYP/6-311++G(d,p) empiricaldispersion=gd3bj scf=xqc pop=npa geom=c
 heck
 ----------------------------------------------------------------------

 -----------------------------------
 CID_62161180_JID_9958_Energie_anion
 -----------------------------------
 Structure from the checkpoint file:  "JID_9958.chk"
 Charge = -1 Multiplicity = 2

                         Standard orientation:
 ---------------------------------------------------------------------
 Center     Atomic      Atomic             Coordinates (Angstroms)
 Number     Number       Type             X           Y           Z
 ---------------------------------------------------------------------
      1          6           0       -4.233644    1.347202   -0.372904
      2          6           0       -3.466433    0.023432   -0.333638
      3          6           0       -2.961248   -0.377679   -1.728459
      4          6           0       -2.168697   -1.689926   -1.695821
      5          6           0       -0.999516   -1.609538   -0.708215
      6          6           0       -1.505719   -1.224850    0.704009
      7          6           0       -2.290850    0.095616    0.654302
      8          6           0       -0.347551   -1.251322    1.696359
      9          8           0       -0.036294   -2.288824    2.255201
     10          6           0        0.482489    0.016422    1.924479
     11          6           0        1.420636    0.235757    0.754516
     12          6           0        1.312507    1.354029   -0.080841
     13          6           0        2.156216    1.498522   -1.184183
     14          6           0        3.113724    0.528563   -1.462951
     15          6           0        3.248794   -0.600955   -0.643429
     16          6           0        2.390554   -0.728147    0.450199
     17          6           0        4.299661   -1.645257   -0.931879
     18          8           0        0.330406    2.302019    0.151664
     19          6           0        0.794373    3.458167    0.844953
     20          1           0       -3.581397    2.162387   -0.710896
     21          1           0       -5.085718    1.292860   -1.060738
     22          1           0       -4.616848    1.615540    0.618792
     23          1           0       -4.153572   -0.764726    0.013089
     24          1           0       -3.808052   -0.460939   -2.422038
     25          1           0       -2.315886    0.426096   -2.113775
     26          1           0       -1.792883   -1.932530   -2.697570
     27          1           0       -2.836935   -2.512028   -1.401914
     28          1           0       -0.280165   -0.859174   -1.056136
     29          1           0       -0.467218   -2.565747   -0.653444
     30          1           0       -2.176123   -2.029167    1.035452
     31          1           0       -1.628159    0.914525    0.349063
     32          1           0       -2.666409    0.347464    1.655849
     33          1           0        1.052719   -0.144407    2.843975
     34          1           0       -0.161806    0.888398    2.048969
     35          1           0        2.034960    2.366507   -1.825549
     36          1           0        3.758940    0.644133   -2.330374
     37          1           0        2.455901   -1.609147    1.084271
     38          1           0        4.380500   -1.845131   -2.006081
     39          1           0        5.289862   -1.318889   -0.587962
     40          1           0        4.071637   -2.589178   -0.427505
     41          1           0        1.177956    3.195526    1.840000
     42          1           0        1.588215    3.966472    0.282479
     43          1           0       -0.064187    4.125372    0.948130
 ---------------------------------------------------------------------

 SCF Done:  E(UB3LYP) =  -813.012292483     A.U. after   33 cycles
 SCF Done:  E(UB3LYP) =  -813.013654730     a.u. after    8 cycles

 The electronic state is 2-A.
 Alpha  occ. eigenvalues --  -19.03424 -18.99089 -10.13381 -10.11645 -10.11038
 Alpha  occ. eigenvalues --  -10.08129 -10.07724 -10.07501 -10.07467 -10.07442
 Alpha  occ. eigenvalues --  -10.07374 -10.07358 -10.06920 -10.06884 -10.06772
 Alpha  occ. eigenvalues --  -10.06634 -10.06518 -10.06474 -10.06416  -0.94950
 Alpha  occ. eigenvalues --   -0.92554  -0.75657  -0.74635  -0.68903  -0.67479
 Alpha  occ. eigenvalues --   -0.66420  -0.65330  -0.60853  -0.59978  -0.58531
 Alpha  occ. eigenvalues --   -0.55947  -0.53219  -0.50632  -0.49898  -0.46992
 Alpha  occ. eigenvalues --   -0.46419  -0.42459  -0.41449  -0.39385  -0.37870
 Alpha  occ. eigenvalues --   -0.36493  -0.36464  -0.35663  -0.35138  -0.34227
 Alpha  occ. eigenvalues --   -0.33556  -0.33264  -0.33008  -0.32622  -0.32135
 Alpha  occ. eigenvalues --   -0.31316  -0.30554  -0.29597  -0.29285  -0.27998
 Alpha  occ. eigenvalues --   -0.27536  -0.27458  -0.26744  -0.25190  -0.25005
 Alpha  occ. eigenvalues --   -0.24671  -0.24397  -0.23334  -0.22851  -0.22431
 Alpha  occ. eigenvalues --   -0.21911  -0.20615  -0.17455  -0.15329  -0.13798
 Alpha  occ. eigenvalues --   -0.12371   0.04452
 Alpha virt. eigenvalues --    0.06225   0.06532   0.06960   0.07830   0.08043
 Alpha virt. eigenvalues --    0.08477   0.08591   0.09081   0.09520   0.09688
 Alpha virt. eigenvalues --    0.10165   0.10597   0.10831   0.11286   0.11840

  Beta  occ. eigenvalues --  -19.03428 -18.98946 -10.13200 -10.11611 -10.10969
  Beta  occ. eigenvalues --  -10.08127 -10.07701 -10.07495 -10.07460 -10.07387
  Beta  occ. eigenvalues --  -10.07357 -10.07341 -10.06909 -10.06888 -10.06749
  Beta  occ. eigenvalues --  -10.06653 -10.06473 -10.06432 -10.06409  -0.94925
  Beta  occ. eigenvalues --   -0.92262  -0.75552  -0.74608  -0.68763  -0.67434
  Beta  occ. eigenvalues --   -0.66350  -0.65276  -0.60760  -0.59883  -0.58503
  Beta  occ. eigenvalues --   -0.55848  -0.53134  -0.50538  -0.49857  -0.46867
  Beta  occ. eigenvalues --   -0.46396  -0.42271  -0.41345  -0.39335  -0.37828
  Beta  occ. eigenvalues --   -0.36443  -0.36358  -0.35618  -0.35085  -0.34140
  Beta  occ. eigenvalues --   -0.33428  -0.33203  -0.32919  -0.32555  -0.32038
  Beta  occ. eigenvalues --   -0.31164  -0.30514  -0.29572  -0.29240  -0.27906
  Beta  occ. eigenvalues --   -0.27459  -0.27285  -0.26634  -0.25124  -0.24891
  Beta  occ. eigenvalues --   -0.24635  -0.24266  -0.23108  -0.22730  -0.22391
  Beta  occ. eigenvalues --   -0.21832  -0.20510  -0.17421  -0.15018  -0.13626
  Beta  occ. eigenvalues --   -0.12110
  Beta virt. eigenvalues --    0.06190   0.06718   0.07326   0.07851   0.07949
  Beta virt. eigenvalues --    0.08411   0.08645   0.08768   0.09309   0.09888
  Beta virt. eigenvalues --    0.10122   0.10456   0.10616   0.11064   0.11437

 Mulliken charges and spin densities:
               1          2
     1  C   -0.305205  -0.392880
     2  C    0.202424   0.072704
     3  C   -0.188736  -0.101613
     4  C   -0.700376   0.062926
     5  C   -0.331130   0.101154
     6  C    0.615707   0.048604
     7  C   -0.964684   0.152125
     8  C   -0.506877   0.029631
     9  O   -0.261769   0.053054
    10  C   -0.322585  -0.032611
    11  C    0.732165   0.135604
    12  C   -0.767305   0.362992
    13  C    0.012353  -0.124570
    14  C   -0.240782   0.096535
    15  C    0.282613  -0.226352
    16  C   -0.547704   0.099556
    17  C    0.235442  -0.821601
    18  O   -0.094719   0.007347
    19  C    1.311201  -1.605755
    20  H    0.029147   0.121407
    21  H    0.036811   0.091527
    22  H   -0.006616   0.137590
    23  H    0.130171   0.018634
    24  H    0.122068   0.023691
    25  H    0.093672   0.058783
    26  H    0.118559   0.042339
    27  H    0.102195   0.017049
    28  H    0.316199  -0.155817
    29  H    0.189871   0.005847
    30  H    0.218463   0.006255
    31  H    0.834641  -0.547882
    32  H    0.101955   0.053925
    33  H   -0.068494   0.293636
    34  H    0.054174   0.092694
    35  H   -0.306047   0.471273
    36  H   -0.313072   0.472055
    37  H    0.195466   0.001039
    38  H   -0.033490   0.174516
    39  H    0.144959   0.010299
    40  H    0.085349   0.045830
    41  H   -0.239049   0.400793
    42  H   -0.407802   0.543305
    43  H   -0.559163   0.704364
 Sum of Mulliken charges =  -1.00000   1.00000

 Dipole moment (field-independent basis, Debye):
    X=             -2.8772    Y=             -5.2360    Z=             -2.3568  Tot=              6.4225
 Quadrupole moment (field-independent basis, Debye-Ang):
   XX=           -162.0324   YY=           -181.8913   ZZ=           -157.8454
   XY=             -1.3679   XZ=              4.3791   YZ=              2.5438

 Summary of Natural Population Analysis:

                                       Natural Population
                Natural  -----------------------------------------------
    Atom  No    Charge         Core      Valence    Rydberg      Total
 -----------------------------------------------------------------------
      C    1   -0.28122      0.99965     2.27681    0.00476     3.28122
      C    2   -0.10963      0.99960     2.10043    0.00959     3.10963
      C    3   -0.18839      0.99961     2.18138    0.00740     3.18839
      C    4   -0.18616      0.99963     2.17896    0.00757     3.18616
      C    5   -0.18373      0.99961     2.17726    0.00686     3.18373
      C    6   -0.15037      0.99955     2.14001    0.01082     3.15037
      C    7   -0.19834      0.99960     2.18858    0.01016     3.19834
      C    8    0.32906      0.99963     1.64869    0.02262     2.67094
      O    9   -0.28690      0.99987     3.28053    0.00650     4.28690
      C   10   -0.24636      0.99956     2.23672    0.01008     3.24636
      C   11   -0.01689      0.99944     2.00722    0.01023     3.01689
      C   12    0.15184      0.99929     1.83440    0.01447     2.84816
      C   13   -0.11546      0.99951     2.10603    0.00992     3.11546
      C   14   -0.08875      0.99952     2.07980    0.00943     3.08875
      C   15   -0.01956      0.99952     2.01099    0.00905     3.01956
      C   16   -0.09630      0.99947     2.08866    0.00817     3.09630
      C   17   -0.28989      0.99964     2.28559    0.00466     3.28989
      O   18   -0.29873      0.99987     3.28812    0.01075     4.29873
      C   19   -0.09260      0.99959     2.08414    0.00887     3.09260
      H   20    0.10098      0.00000     0.39802    0.00100     0.39902
      H   21    0.09455      0.00000     0.40461    0.00084     0.40545
      H   22    0.09820      0.00000     0.40092    0.00087     0.40180
      H   23    0.08716      0.00000     0.41101    0.00183     0.41284
      H   24    0.09429      0.00000     0.40471    0.00100     0.40571
      H   25    0.09707      0.00000     0.40155    0.00139     0.40293
      H   26    0.09714      0.00000     0.40192    0.00094     0.40286
      H   27    0.08978      0.00000     0.40895    0.00127     0.41022
      H   28    0.10339      0.00000     0.39463    0.00198     0.39661
      H   29    0.10202      0.00000     0.39708    0.00090     0.39798
      H   30    0.10118      0.00000     0.39707    0.00174     0.39882
      H   31    0.11132      0.00000     0.38624    0.00244     0.38868
      H   32    0.09722      0.00000     0.40175    0.00103     0.40278
      H   33    0.11392      0.00000     0.38475    0.00133     0.38608
      H   34    0.11522      0.00000     0.38303    0.00175     0.38478
      H   35    0.10482      0.00000     0.39403    0.00115     0.39518
      H   36    0.09666      0.00000     0.40236    0.00098     0.40334
      H   37    0.10286      0.00000     0.39566    0.00148     0.39714
      H   38    0.10172      0.00000     0.39722    0.00106     0.39828
      H   39    0.10048      0.00000     0.39854    0.00098     0.39952
      H   40    0.10062      0.00000     0.39860    0.00078     0.39938
      H   41    0.08217      0.00000     0.41607    0.00175     0.41783
      H   42    0.08307      0.00000     0.41503    0.00190     0.41693
      H   43    0.09252      0.00000     0.40517    0.00231     0.40748
 =======================================================================
   * Total *    0.00000     18.99215    51.79325    0.21460    71.00000

 Normal termination of Gaussian 16 at Sat Dec 12 15:14:22 2020.
