 Gaussian 16, Revision A.03,

 -----------------------------------------------------------
 # opt freq B3LYP/6-31G(d) empiricaldispersion=gd3bj scf=xqc
 -----------------------------------------------------------

 -------------------------------
 CID_117220131_JID_5808_neutraal
 -------------------------------
 Symbolic Z-matrix:
 Charge =  0 Multiplicity = 1

 SCF Done:  E(RB3LYP) =  -1068.69748347     A.U. after   14 cycles
 SCF Done:  E(RB3LYP) =  -1068.70346402     A.U. after   12 cycles
 SCF Done:  E(RB3LYP) =  -1068.70428791     A.U. after   12 cycles
 SCF Done:  E(RB3LYP) =  -1068.70446269     A.U. after   12 cycles
 SCF Done:  E(RB3LYP) =  -1068.70451237     A.U. after   11 cycles
 SCF Done:  E(RB3LYP) =  -1068.70452915     A.U. after   10 cycles
 SCF Done:  E(RB3LYP) =  -1068.70453744     A.U. after    9 cycles
 SCF Done:  E(RB3LYP) =  -1068.70453964     A.U. after    9 cycles
 SCF Done:  E(RB3LYP) =  -1068.70454140     A.U. after    9 cycles
 SCF Done:  E(RB3LYP) =  -1068.70454402     A.U. after   10 cycles
 SCF Done:  E(RB3LYP) =  -1068.70454571     A.U. after   10 cycles
 SCF Done:  E(RB3LYP) =  -1068.70454650     A.U. after   10 cycles
 SCF Done:  E(RB3LYP) =  -1068.70454681     A.U. after    9 cycles
 SCF Done:  E(RB3LYP) =  -1068.70454690     A.U. after    8 cycles
 SCF Done:  E(RB3LYP) =  -1068.70454692     A.U. after    7 cycles
 Optimization completed.
    -- Stationary point found.
 Normal termination of Gaussian 16 at Thu Dec 10 17:10:31 2020.

 --------------------------------------------------------------------
 #N Geom=AllCheck Guess=TCheck SCRF=Check GenChk RB3LYP/6-31G(d) Freq
 --------------------------------------------------------------------

 Structure from the checkpoint file:  "JID_5808.chk"
 -------------------------------
 CID_117220131_JID_5808_neutraal
 -------------------------------
 Charge =  0 Multiplicity = 1

 SCF Done:  E(RB3LYP) =  -1068.70454692     A.U. after    1 cycles

  Exact polarizability: 179.424   2.981 140.448 -15.886   3.148  94.088
 Approx polarizability: 258.105  10.155 227.815 -41.162  14.972 150.806

                      1                      2                      3
                      A                      A                      A
 Frequencies --     14.2733                25.0555                54.1498
 Red. masses --      2.9171                 4.1596                 4.4553
 Frc consts  --      0.0004                 0.0015                 0.0077
 IR Inten    --      2.7264                 1.6258                 0.9210

                      4                      5                      6
                      A                      A                      A
 Frequencies --     76.5880                98.8918               149.5928
 Red. masses --      5.0104                 2.6337                 3.3155
 Frc consts  --      0.0173                 0.0152                 0.0437
 IR Inten    --      2.5669                 1.9443                 1.3373

                      7                      8                      9
                      A                      A                      A
 Frequencies --    154.7984               172.6495               195.9615
 Red. masses --      2.7561                 1.1170                 3.6682
 Frc consts  --      0.0389                 0.0196                 0.0830
 IR Inten    --      4.4023                 0.1230                 0.9848

                     10                     11                     12
                      A                      A                      A
 Frequencies --    215.2745               232.2811               276.6415
 Red. masses --      1.6516                 4.6268                 2.8131
 Frc consts  --      0.0451                 0.1471                 0.1268
 IR Inten    --      0.9316                 3.2158                 4.2925

                     13                     14                     15
                      A                      A                      A
 Frequencies --    293.6727               320.3631               330.2198
 Red. masses --      3.8713                 3.7738                 2.4883
 Frc consts  --      0.1967                 0.2282                 0.1599
 IR Inten    --      1.4316                10.1532                 3.9331

                     16                     17                     18
                      A                      A                      A
 Frequencies --    366.1100               384.0307               391.6914
 Red. masses --      2.4311                 3.4585                 1.5923
 Frc consts  --      0.1920                 0.3005                 0.1439
 IR Inten    --     20.9381                18.8715                14.4139

                     19                     20                     21
                      A                      A                      A
 Frequencies --    434.7902               451.2367               489.7982
 Red. masses --      3.6103                 3.6659                 4.3502
 Frc consts  --      0.4021                 0.4398                 0.6149
 IR Inten    --     25.6979                 8.4755                 9.5749

                     22                     23                     24
                      A                      A                      A
 Frequencies --    519.6625               537.2659               567.7790
 Red. masses --      4.0819                 5.1835                 4.7757
 Frc consts  --      0.6495                 0.8816                 0.9071
 IR Inten    --     66.4669                 2.1019                 1.1237

                     25                     26                     27
                      A                      A                      A
 Frequencies --    613.7018               654.8024               655.9347
 Red. masses --      5.1401                 1.4811                 3.5110
 Frc consts  --      1.1406                 0.3742                 0.8900
 IR Inten    --      4.0017               328.1840                28.0244

                     28                     29                     30
                      A                      A                      A
 Frequencies --    740.8260               756.5038               759.5708
 Red. masses --      4.2176                 2.8170                 3.4493
 Frc consts  --      1.3638                 0.9498                 1.1725
 IR Inten    --      8.0613                 4.2226                27.0257

                     31                     32                     33
                      A                      A                      A
 Frequencies --    803.3192               812.2157               831.5868
 Red. masses --      1.6680                 2.2998                 1.9887
 Frc consts  --      0.6342                 0.8939                 0.8103
 IR Inten    --     30.3393                24.5969                35.6468

                     34                     35                     36
                      A                      A                      A
 Frequencies --    900.4022               923.4486               936.4227
 Red. masses --      1.5946                 1.6491                 1.3619
 Frc consts  --      0.7617                 0.8286                 0.7036
 IR Inten    --      1.0912                30.5593                 4.0897

                     37                     38                     39
                      A                      A                      A
 Frequencies --    961.7135               996.4119              1054.7841
 Red. masses --      3.5573                 1.7130                 4.4263
 Frc consts  --      1.9385                 1.0020                 2.9015
 IR Inten    --      4.5899                 2.4061                86.3380

                     40                     41                     42
                      A                      A                      A
 Frequencies --   1067.3721              1089.2541              1098.4731
 Red. masses --      1.6131                 2.1025                 1.7769
 Frc consts  --      1.0828                 1.4698                 1.2632
 IR Inten    --     19.5239                 0.7885                18.0329

                     43                     44                     45
                      A                      A                      A
 Frequencies --   1108.9517              1170.3725              1181.3595
 Red. masses --      3.3198                 1.2851                 1.7378
 Frc consts  --      2.4054                 1.0371                 1.4290
 IR Inten    --    146.8235                21.1324                63.0684

                     46                     47                     48
                      A                      A                      A
 Frequencies --   1186.7992              1191.7745              1223.5162
 Red. masses --      1.2600                 1.2562                 1.4741
 Frc consts  --      1.0456                 1.0512                 1.3001
 IR Inten    --      2.4641                 3.0871                 3.4009

                     49                     50                     51
                      A                      A                      A
 Frequencies --   1265.4691              1275.2473              1279.5860
 Red. masses --      1.7535                 2.7101                 1.3588
 Frc consts  --      1.6545                 2.5967                 1.3108
 IR Inten    --      5.5780               169.9878                 6.0370

                     52                     53                     54
                      A                      A                      A
 Frequencies --   1310.0860              1329.5426              1336.9263
 Red. masses --      2.1711                 2.0272                 1.7332
 Frc consts  --      2.1954                 2.1113                 1.8252
 IR Inten    --     79.2781                16.3770                11.4251

                     55                     56                     57
                      A                      A                      A
 Frequencies --   1346.6169              1389.4240              1438.3338
 Red. masses --      2.6176                 3.7781                 1.2226
 Frc consts  --      2.7967                 4.2973                 1.4902
 IR Inten    --    115.8316                11.1553                 4.4050

                     58                     59                     60
                      A                      A                      A
 Frequencies --   1474.3363              1484.7982              1486.6893
 Red. masses --      2.1465                 1.1316                 1.1603
 Frc consts  --      2.7490                 1.4699                 1.5110
 IR Inten    --     12.7047                 3.5160                15.8938

                     61                     62                     63
                      A                      A                      A
 Frequencies --   1503.7896              1517.4930              1526.7186
 Red. masses --      1.3871                 1.0517                 1.0396
 Frc consts  --      1.8481                 1.4269                 1.4277
 IR Inten    --      0.9812                 6.0438                 5.7015

                     64                     65                     66
                      A                      A                      A
 Frequencies --   1533.2053              1533.4967              1565.2449
 Red. masses --      1.0474                 1.0513                 3.0762
 Frc consts  --      1.4506                 1.4566                 4.4404
 IR Inten    --      4.1696                 6.3411               144.3121

                     67                     68                     69
                      A                      A                      A
 Frequencies --   1636.6306              1654.0265              1688.4582
 Red. masses --      5.7263                 1.7710                 2.2825
 Frc consts  --      9.0371                 2.8546                 3.8338
 IR Inten    --     10.7025                14.3979               121.5257

                     70                     71                     72
                      A                      A                      A
 Frequencies --   3033.5374              3068.1484              3080.4618
 Red. masses --      1.0321                 1.0356                 1.0621
 Frc consts  --      5.5960                 5.7440                 5.9378
 IR Inten    --     53.7318                15.8091                 9.3785

                     73                     74                     75
                      A                      A                      A
 Frequencies --   3092.6859              3097.6328              3132.9124
 Red. masses --      1.0612                 1.1071                 1.1008
 Frc consts  --      5.9800                 6.2588                 6.3656
 IR Inten    --      2.8843                30.2807                18.6767

                     76                     77                     78
                      A                      A                      A
 Frequencies --   3144.9770              3147.0018              3152.7729
 Red. masses --      1.1043                 1.1031                 1.1024
 Frc consts  --      6.4351                 6.4365                 6.4564
 IR Inten    --      0.7624                 2.0860                34.0359

                     79                     80                     81
                      A                      A                      A
 Frequencies --   3161.6084              3176.8294              3193.6482
 Red. masses --      1.1045                 1.0868                 1.0944
 Frc consts  --      6.5046                 6.4621                 6.5764
 IR Inten    --     11.2494                13.9341                18.6680

                     82                     83                     84
                      A                      A                      A
 Frequencies --   3221.0896              3551.3221              3657.3161
 Red. masses --      1.0913                 1.0471                 1.0988
 Frc consts  --      6.6711                 7.7803                 8.6595
 IR Inten    --      0.8235                25.5327                19.1194

 - Thermochemistry -
 -------------------
 Temperature   298.150 Kelvin.  Pressure   1.00000 Atm.
 Atom     1 has atomic number  6 and mass  12.00000

 Molecular mass:   229.07727 amu.
 Principal axes and moments of inertia in atomic units:
                           1         2         3
     Eigenvalues --  1802.936785798.860856740.95827
           X            0.99963  -0.02683   0.00481
           Y            0.02696   0.99925  -0.02772
           Z           -0.00406   0.02784   0.99960
 This molecule is an asymmetric top.
 Rotational symmetry number  1.
 Warning -- assumption of classical behavior for rotation
           may cause significant error
 Rotational temperatures (Kelvin)      0.04804     0.01494     0.01285
 Rotational constants (GHZ):           1.00100     0.31122     0.26773
 Zero-point vibrational energy     645746.3 (Joules/Mol)
                                  154.33708 (Kcal/Mol)
 Warning -- explicit consideration of  25 degrees of freedom as
           vibrations may cause significant error
 Vibrational temperatures:     20.54    36.05    77.91   110.19   142.28
          (Kelvin)            215.23   222.72   248.40   281.94   309.73
                              334.20   398.03   422.53   460.93   475.11
                              526.75   552.53   563.56   625.57   649.23
                              704.71   747.68   773.01   816.91   882.98
                              942.11   943.74  1065.88  1088.44  1092.85
                             1155.80  1168.60  1196.47  1295.48  1328.64
                             1347.30  1383.69  1433.61  1517.60  1535.71
                             1567.19  1580.46  1595.53  1683.91  1699.71
                             1707.54  1714.70  1760.37  1820.73  1834.80
                             1841.04  1884.92  1912.92  1923.54  1937.48
                             1999.07  2069.44  2121.24  2136.29  2139.01
                             2163.62  2183.33  2196.61  2205.94  2206.36
                             2252.04  2354.75  2379.78  2429.31  4364.58
                             4414.38  4432.10  4449.69  4456.80  4507.56
                             4524.92  4527.83  4536.14  4548.85  4570.75
                             4594.95  4634.43  5109.56  5262.06

 Zero-point correction=                           0.245952 (Hartree/Particle)
 Thermal correction to Energy=                    0.261940
 Thermal correction to Enthalpy=                  0.262884
 Thermal correction to Gibbs Free Energy=         0.200734
 Sum of electronic and zero-point Energies=          -1068.458595
 Sum of electronic and thermal Energies=             -1068.442607
 Sum of electronic and thermal Enthalpies=           -1068.441662
 Sum of electronic and thermal Free Energies=        -1068.503813

                     E (Thermal)             CV                S
                      KCal/Mol        Cal/Mol-Kelvin    Cal/Mol-Kelvin
 Total                  164.370             59.300            130.808
 Electronic               0.000              0.000              0.000
 Translational            0.889              2.981             42.189
 Rotational               0.889              2.981             32.622
 Vibrational            162.593             53.339             55.997
 Vibration     1          0.593              1.986              7.304
 Vibration     2          0.593              1.985              6.187
 Vibration     3          0.596              1.976              4.660
 Vibration     4          0.599              1.965              3.976
 Vibration     5          0.604              1.950              3.476
 Vibration     6          0.618              1.903              2.677
 Vibration     7          0.620              1.897              2.612
 Vibration     8          0.626              1.876              2.406
 Vibration     9          0.636              1.846              2.171
 Vibration    10          0.645              1.818              1.998
 Vibration    11          0.653              1.792              1.861
 Vibration    12          0.678              1.717              1.554
 Vibration    13          0.688              1.686              1.453
 Vibration    14          0.706              1.635              1.308
 Vibration    15          0.713              1.615              1.259
 Vibration    16          0.739              1.542              1.096
 Vibration    17          0.753              1.504              1.023
 Vibration    18          0.759              1.488              0.994
 Vibration    19          0.795              1.394              0.843
 Vibration    20          0.810              1.358              0.792
 Vibration    21          0.846              1.273              0.684
 Vibration    22          0.875              1.206              0.611
 Vibration    23          0.892              1.168              0.571
 Vibration    24          0.924              1.101              0.509
 Vibration    25          0.973              1.003              0.427

                           ! Non-Optimized Parameters !
 Normal termination of Gaussian 16 at Thu Dec 10 17:20:16 2020.

 ----------------------------------------------------------------------
 # B3LYP/6-311++G(d,p) empiricaldispersion=gd3bj scf=xqc pop=npa geom=c
 heck
 ----------------------------------------------------------------------

 ---------------------------------------
 CID_117220131_JID_5808_Energie_neutraal
 ---------------------------------------
 Structure from the checkpoint file:  "JID_5808.chk"
 Charge =  0 Multiplicity = 1

 SCF Done:  E(RB3LYP) =  -1068.92875384     A.U. after   16 cycles
 Normal termination of Gaussian 16 at Thu Dec 10 17:25:05 2020.

 ----------------------------------------------------------------------
 # B3LYP/6-311++G(d,p) empiricaldispersion=gd3bj scf=xqc pop=npa geom=c
 heck
 ----------------------------------------------------------------------

 -------------------------------------
 CID_117220131_JID_5808_Energie_kation
 -------------------------------------
 Structure from the checkpoint file:  "JID_5808.chk"
 Charge =  1 Multiplicity = 2

 SCF Done:  E(UB3LYP) =  -1068.64167690     A.U. after   23 cycles
 Normal termination of Gaussian 16 at Thu Dec 10 17:34:19 2020.
 Gaussian 16:  ES64L-G16RevA.03 25-Dec-2016

 ----------------------------------------------------------------------
 # B3LYP/6-311++G(d,p) empiricaldispersion=gd3bj scf=xqc pop=npa geom=c
 heck
 ----------------------------------------------------------------------

 ------------------------------------
 CID_117220131_JID_5808_Energie_anion
 ------------------------------------
 Structure from the checkpoint file:  "JID_5808.chk"
 Charge = -1 Multiplicity = 2

                         Standard orientation:
 ---------------------------------------------------------------------
 Center     Atomic      Atomic             Coordinates (Angstroms)
 Number     Number       Type             X           Y           Z
 ---------------------------------------------------------------------
      1          6           0       -2.884343    1.948398   -0.842040
      2          6           0       -2.328004    0.601720   -1.286602
      3         16           0       -2.475356   -0.687819   -0.014283
      4          8           0       -3.850201   -0.670053    0.517572
      5          8           0       -1.915408   -1.928360   -0.581887
      6          6           0       -1.360618   -0.138580    1.337536
      7          6           0        0.010565    0.250154    0.871894
      8          6           0        0.874184   -0.693364    0.294098
      9          6           0        2.127627   -0.312851   -0.159246
     10          6           0        2.572767    1.022275   -0.053792
     11          6           0        1.703447    1.961976    0.515981
     12          6           0        0.444592    1.576712    0.970659
     13          7           0        3.859528    1.337490   -0.472999
     14          8           0        2.976936   -1.219391   -0.768093
     15          6           0        3.692116   -2.045209    0.154705
     16          1           0       -3.912090    1.842351   -0.485226
     17          1           0       -2.876529    2.646970   -1.684960
     18          1           0       -2.278730    2.385652   -0.042496
     19          1           0       -2.885552    0.181544   -2.129657
     20          1           0       -1.270295    0.643747   -1.557435
     21          1           0       -1.875433    0.681286    1.843618
     22          1           0       -1.363318   -1.009179    2.002603
     23          1           0        0.553770   -1.721321    0.160294
     24          1           0        2.024113    2.996215    0.611594
     25          1           0       -0.207701    2.322803    1.417453
     26          1           0        4.004172    2.301865   -0.742641
     27          1           0        4.227957    0.678219   -1.148334
     28          1           0        4.311798   -1.438326    0.827007
     29          1           0        3.003048   -2.654566    0.752147
     30          1           0        4.329185   -2.699552   -0.444352
 ---------------------------------------------------------------------

 SCF Done:  E(UB3LYP) =  -1068.92056949     A.U. after   33 cycles
 SCF Done:  E(UB3LYP) =  -1068.92056949     a.u. after    1 cycles

 The electronic state is 2-A.
 Alpha  occ. eigenvalues --  -88.94919 -19.05272 -19.02301 -19.02179 -14.21941
 Alpha  occ. eigenvalues --  -10.13314 -10.13056 -10.12564 -10.12243 -10.12200
 Alpha  occ. eigenvalues --  -10.09418 -10.08999 -10.08470 -10.08214 -10.07633
 Alpha  occ. eigenvalues --   -8.01485  -5.97745  -5.97617  -5.97580  -1.01296
 Alpha  occ. eigenvalues --   -0.96796  -0.91032  -0.82376  -0.76400  -0.72030
 Alpha  occ. eigenvalues --   -0.68997  -0.66160  -0.62527  -0.60090  -0.58306
 Alpha  occ. eigenvalues --   -0.52764  -0.51090  -0.48657  -0.43943  -0.43261
 Alpha  occ. eigenvalues --   -0.41321  -0.41107  -0.40748  -0.37773  -0.37515
 Alpha  occ. eigenvalues --   -0.36859  -0.36461  -0.35385  -0.34863  -0.33948
 Alpha  occ. eigenvalues --   -0.33060  -0.31789  -0.30708  -0.29659  -0.29154
 Alpha  occ. eigenvalues --   -0.28509  -0.27303  -0.25596  -0.24278  -0.23175
 Alpha  occ. eigenvalues --   -0.22518  -0.21276  -0.19914  -0.19245  -0.15820
 Alpha  occ. eigenvalues --   -0.11563   0.04007
 Alpha virt. eigenvalues --    0.05967   0.06557   0.07083   0.07307   0.08476
 Alpha virt. eigenvalues --    0.08594   0.08869   0.09752   0.10138   0.10243
 Alpha virt. eigenvalues --    0.11249   0.11638   0.11769   0.12698   0.13000

  Beta  occ. eigenvalues --  -88.94917 -19.05270 -19.02297 -19.02178 -14.21877
  Beta  occ. eigenvalues --  -10.13291 -10.13054 -10.12553 -10.12231 -10.12191
  Beta  occ. eigenvalues --  -10.09421 -10.08969 -10.08450 -10.08181 -10.07599
  Beta  occ. eigenvalues --   -8.01482  -5.97743  -5.97614  -5.97578  -1.01288
  Beta  occ. eigenvalues --   -0.96789  -0.91025  -0.82305  -0.76360  -0.72001
  Beta  occ. eigenvalues --   -0.68961  -0.66111  -0.62470  -0.60041  -0.58250
  Beta  occ. eigenvalues --   -0.52690  -0.51054  -0.48626  -0.43902  -0.43205
  Beta  occ. eigenvalues --   -0.41291  -0.41059  -0.40724  -0.37746  -0.37489
  Beta  occ. eigenvalues --   -0.36828  -0.36423  -0.35356  -0.34827  -0.33896
  Beta  occ. eigenvalues --   -0.33019  -0.31759  -0.30668  -0.29621  -0.29099
  Beta  occ. eigenvalues --   -0.28485  -0.27269  -0.25564  -0.24259  -0.23161
  Beta  occ. eigenvalues --   -0.22466  -0.21269  -0.19892  -0.19223  -0.15720
  Beta  occ. eigenvalues --   -0.11498
  Beta virt. eigenvalues --    0.06243   0.06585   0.07078   0.07733   0.08005
  Beta virt. eigenvalues --    0.08583   0.08814   0.09380   0.09994   0.10322
  Beta virt. eigenvalues --    0.10611   0.11508   0.11904   0.12105   0.12798

 Mulliken charges and spin densities:
               1          2
     1  C    0.388585  -0.915217
     2  C   -0.775965   0.259009
     3  S    0.588454  -0.193280
     4  O   -0.174561   0.008016
     5  O   -0.176734   0.010968
     6  C    0.192439  -1.325651
     7  C    1.073454   0.200160
     8  C   -1.188461   0.912142
     9  C   -0.861816   0.343751
    10  C    1.668949  -1.659491
    11  C    0.246824  -0.481872
    12  C   -0.181744  -0.181365
    13  N   -0.366718   0.055861
    14  O   -0.179789   0.001559
    15  C    0.246802  -0.579302
    16  H    0.075363   0.090128
    17  H   -0.362402   0.523974
    18  H   -0.062791   0.219647
    19  H    0.173097   0.066007
    20  H    0.164856   0.087302
    21  H    0.100004   0.186134
    22  H    0.233141  -0.008159
    23  H    0.176680   0.060509
    24  H   -1.013805   1.205306
    25  H   -0.378096   0.533158
    26  H   -0.383496   0.653527
    27  H   -0.097982   0.368492
    28  H   -0.082076   0.239978
    29  H    0.052401   0.072396
    30  H   -0.094611   0.246311
 Sum of Mulliken charges =  -1.00000   1.00000

 Dipole moment (field-independent basis, Debye):
    X=             -3.6206    Y=             -5.5188    Z=              1.9931  Tot=              6.8948
 Quadrupole moment (field-independent basis, Debye-Ang):
   XX=           -181.8840   YY=           -157.2629   ZZ=           -124.1353
   XY=            -19.8385   XZ=              6.9907   YZ=             -0.7428

 Summary of Natural Population Analysis:

                                       Natural Population
                Natural  -----------------------------------------------
    Atom  No    Charge         Core      Valence    Rydberg      Total
 -----------------------------------------------------------------------
      C    1   -0.29776      0.99965     2.29180    0.00631     3.29776
      C    2   -0.29132      0.99960     2.28027    0.01145     3.29132
      S    3    1.01462      4.99928     1.89283    0.09328     6.98538
      O    4   -0.47420      0.99991     3.46843    0.00586     4.47420
      O    5   -0.47174      0.99991     3.46613    0.00570     4.47174
      C    6   -0.28717      0.99954     2.27467    0.01296     3.28717
      C    7   -0.06700      0.99951     2.05645    0.01105     3.06700
      C    8   -0.10487      0.99946     2.09584    0.00957     3.10487
      C    9    0.13240      0.99933     1.85322    0.01504     2.86760
      C   10    0.07716      0.99945     1.91076    0.01262     2.92284
      C   11   -0.11451      0.99952     2.10390    0.01108     3.11451
      C   12   -0.09004      0.99952     2.07975    0.01078     3.09004
      N   13   -0.39219      0.99971     2.88191    0.01056     3.89219
      O   14   -0.29464      0.99987     3.28485    0.00992     4.29464
      C   15   -0.09452      0.99959     2.08714    0.00779     3.09452
      H   16    0.10749      0.00000     0.39140    0.00111     0.39251
      H   17    0.10846      0.00000     0.39036    0.00117     0.39154
      H   18    0.10427      0.00000     0.39418    0.00155     0.39573
      H   19    0.11463      0.00000     0.38425    0.00113     0.38537
      H   20    0.12147      0.00000     0.37725    0.00127     0.37853
      H   21    0.11790      0.00000     0.38097    0.00113     0.38210
      H   22    0.11827      0.00000     0.38060    0.00113     0.38173
      H   23    0.11342      0.00000     0.38533    0.00125     0.38658
      H   24    0.10708      0.00000     0.39011    0.00280     0.39292
      H   25    0.10123      0.00000     0.39714    0.00164     0.39877
      H   26    0.19346      0.00000     0.29628    0.01026     0.30654
      H   27    0.19264      0.00000     0.30433    0.00303     0.30736
      H   28    0.08552      0.00000     0.41305    0.00142     0.41448
      H   29    0.08073      0.00000     0.41793    0.00134     0.41927
      H   30    0.08920      0.00000     0.40948    0.00132     0.41080
 =======================================================================
   * Total *   -0.00000     18.99385    41.74064    0.26552    61.00000

 Normal termination of Gaussian 16 at Thu Dec 10 17:53:05 2020.
