 Gaussian 16, Revision A.03,

 -----------------------------------------------------------
 # opt freq B3LYP/6-31G(d) empiricaldispersion=gd3bj scf=xqc
 -----------------------------------------------------------

 -------------------------------
 CID_131039753_JID_2317_neutraal
 -------------------------------
 Symbolic Z-matrix:
 Charge =  0 Multiplicity = 1

 SCF Done:  E(RB3LYP) =  -537.316743918     A.U. after   14 cycles
 SCF Done:  E(RB3LYP) =  -537.324903842     A.U. after   12 cycles
 SCF Done:  E(RB3LYP) =  -537.323869439     A.U. after   12 cycles
 SCF Done:  E(RB3LYP) =  -537.326396680     A.U. after   12 cycles
 SCF Done:  E(RB3LYP) =  -537.326910373     A.U. after   12 cycles
 SCF Done:  E(RB3LYP) =  -537.327342517     A.U. after   12 cycles
 SCF Done:  E(RB3LYP) =  -537.327818854     A.U. after   11 cycles
 SCF Done:  E(RB3LYP) =  -537.328043212     A.U. after   11 cycles
 SCF Done:  E(RB3LYP) =  -537.328134860     A.U. after   10 cycles
 SCF Done:  E(RB3LYP) =  -537.328206430     A.U. after   11 cycles
 SCF Done:  E(RB3LYP) =  -537.329049587     A.U. after    8 cycles
 SCF Done:  E(RB3LYP) =  -537.329050307     A.U. after    8 cycles
 SCF Done:  E(RB3LYP) =  -537.329050933     A.U. after    8 cycles
 SCF Done:  E(RB3LYP) =  -537.329051037     A.U. after    7 cycles
 SCF Done:  E(RB3LYP) =  -537.329051082     A.U. after    7 cycles
 Optimization completed.
    -- Stationary point found.
 Normal termination of Gaussian 16 at Wed Dec  9 17:12:46 2020.

 --------------------------------------------------------------------
 #N Geom=AllCheck Guess=TCheck SCRF=Check GenChk RB3LYP/6-31G(d) Freq
 --------------------------------------------------------------------

 Structure from the checkpoint file:  "JID_2317.chk"
 -------------------------------
 CID_131039753_JID_2317_neutraal
 -------------------------------
 Charge =  0 Multiplicity = 1

 SCF Done:  E(RB3LYP) =  -537.329051082     A.U. after    1 cycles

  Exact polarizability: 130.541   8.763 111.409   0.973  -2.254  82.883
 Approx polarizability: 167.106  14.423 161.176   0.572  -3.369 122.716

                      1                      2                      3
                      A                      A                      A
 Frequencies --     40.7408                53.3083                84.2003
 Red. masses --      3.7486                 3.0763                 3.7747
 Frc consts  --      0.0037                 0.0052                 0.0158
 IR Inten    --      0.4009                 0.4388                 1.2785

                      4                      5                      6
                      A                      A                      A
 Frequencies --    106.5195               134.9280               165.7637
 Red. masses --      3.2494                 2.6880                 2.8426
 Frc consts  --      0.0217                 0.0288                 0.0460
 IR Inten    --      1.7252                 1.6485                 0.3477

                      7                      8                      9
                      A                      A                      A
 Frequencies --    203.5278               211.6718               268.0516
 Red. masses --      2.5221                 2.9667                 1.0549
 Frc consts  --      0.0616                 0.0783                 0.0447
 IR Inten    --      0.3603                 0.8147                 0.7541

                     10                     11                     12
                      A                      A                      A
 Frequencies --    311.9498               323.5357               354.9181
 Red. masses --      2.4581                 2.8551                 3.0331
 Frc consts  --      0.1409                 0.1761                 0.2251
 IR Inten    --      1.1544                 7.9956                 3.1516

                     13                     14                     15
                      A                      A                      A
 Frequencies --    372.9381               417.0519               432.1991
 Red. masses --      2.2819                 2.5803                 2.5988
 Frc consts  --      0.1870                 0.2644                 0.2860
 IR Inten    --      0.5261                 3.0662                 5.6154

                     16                     17                     18
                      A                      A                      A
 Frequencies --    502.7382               552.9658               616.1939
 Red. masses --      2.8763                 2.2033                 1.9156
 Frc consts  --      0.4283                 0.3969                 0.4285
 IR Inten    --      4.2278                 8.5331                35.5942

                     19                     20                     21
                      A                      A                      A
 Frequencies --    647.3893               705.5903               742.6855
 Red. masses --      1.5166                 1.5632                 1.7114
 Frc consts  --      0.3745                 0.4585                 0.5562
 IR Inten    --     37.4545                29.7409                34.0913

                     22                     23                     24
                      A                      A                      A
 Frequencies --    776.6615               804.6386               823.3876
 Red. masses --      1.9482                 4.8384                 1.4287
 Frc consts  --      0.6924                 1.8457                 0.5707
 IR Inten    --     21.9434                56.8690                 0.6824

                     25                     26                     27
                      A                      A                      A
 Frequencies --    873.7419               887.0952               923.3009
 Red. masses --      2.2303                 1.8734                 1.8406
 Frc consts  --      1.0032                 0.8686                 0.9245
 IR Inten    --      8.5692                 2.2653                 8.9606

                     28                     29                     30
                      A                      A                      A
 Frequencies --    934.3103               945.5668               949.8219
 Red. masses --      1.8641                 2.1383                 1.3513
 Frc consts  --      0.9587                 1.1264                 0.7183
 IR Inten    --      3.2353                 0.6307                33.3651

                     31                     32                     33
                      A                      A                      A
 Frequencies --    956.0719               998.1886              1006.6918
 Red. masses --      2.0502                 1.7736                 2.3199
 Frc consts  --      1.1041                 1.0412                 1.3852
 IR Inten    --      2.6443                 6.4466                 4.0410

                     34                     35                     36
                      A                      A                      A
 Frequencies --   1034.0156              1045.6613              1074.3295
 Red. masses --      1.1513                 1.9906                 1.3147
 Frc consts  --      0.7253                 1.2824                 0.8940
 IR Inten    --     10.9903                 4.8262                 1.3396

                     37                     38                     39
                      A                      A                      A
 Frequencies --   1129.5129              1172.9190              1182.7289
 Red. masses --      2.4269                 2.2572                 1.8616
 Frc consts  --      1.8243                 1.8296                 1.5343
 IR Inten    --     20.3586                25.1408                 4.0967

                     40                     41                     42
                      A                      A                      A
 Frequencies --   1209.8741              1220.8459              1235.3136
 Red. masses --      2.2021                 1.4231                 2.1667
 Frc consts  --      1.8992                 1.2497                 1.9480
 IR Inten    --     12.8341                 5.3971                66.9857

                     43                     44                     45
                      A                      A                      A
 Frequencies --   1274.7638              1277.1365              1291.1524
 Red. masses --      1.2583                 1.3578                 1.4253
 Frc consts  --      1.2047                 1.3049                 1.3999
 IR Inten    --      5.8267                54.3352                 0.3508

                     46                     47                     48
                      A                      A                      A
 Frequencies --   1308.0592              1320.3682              1328.2428
 Red. masses --      1.8667                 1.6069                 1.3067
 Frc consts  --      1.8818                 1.6505                 1.3582
 IR Inten    --      2.5099                47.9953                 4.7902

                     49                     50                     51
                      A                      A                      A
 Frequencies --   1372.5510              1423.8125              1438.6714
 Red. masses --      1.3859                 2.8029                 1.2663
 Frc consts  --      1.5383                 3.3478                 1.5442
 IR Inten    --    105.9141               242.3160                32.8393

                     52                     53                     54
                      A                      A                      A
 Frequencies --   1474.2892              1480.1463              1482.4386
 Red. masses --      1.1924                 1.2529                 1.6373
 Frc consts  --      1.5269                 1.6172                 2.1200
 IR Inten    --      1.3786                 8.5892                47.2013

                     55                     56                     57
                      A                      A                      A
 Frequencies --   1501.5426              1513.1721              1522.1197
 Red. masses --      1.0884                 1.0827                 1.0697
 Frc consts  --      1.4459                 1.4606                 1.4602
 IR Inten    --      1.1077                 1.7473                 2.6709

                     58                     59                     60
                      A                      A                      A
 Frequencies --   1522.6127              1537.8326              1539.8311
 Red. masses --      1.0958                 1.0591                 1.1310
 Frc consts  --      1.4968                 1.4757                 1.5800
 IR Inten    --      9.5837                 5.4857                 2.0014

                     61                     62                     63
                      A                      A                      A
 Frequencies --   1736.0615              1798.4233              3025.3020
 Red. masses --      4.5326                 6.0916                 1.0746
 Frc consts  --      8.0488                11.6082                 5.7949
 IR Inten    --      3.2667               471.7917                44.8630

                     64                     65                     66
                      A                      A                      A
 Frequencies --   3056.2872              3063.4299              3074.4461
 Red. masses --      1.0377                 1.0573                 1.0575
 Frc consts  --      5.7107                 5.8460                 5.8895
 IR Inten    --     17.2565                44.4839                26.7912

                     67                     68                     69
                      A                      A                      A
 Frequencies --   3086.1090              3115.4611              3120.3269
 Red. masses --      1.0620                 1.1074                 1.1026
 Frc consts  --      5.9592                 6.3327                 6.3253
 IR Inten    --     27.1094                19.7911                23.5096

                     70                     71                     72
                      A                      A                      A
 Frequencies --   3125.7678              3142.0042              3148.1466
 Red. masses --      1.1094                 1.1079                 1.0996
 Frc consts  --      6.3866                 6.4442                 6.4207
 IR Inten    --     12.1367                50.0631                20.7524

                     73                     74                     75
                      A                      A                      A
 Frequencies --   3155.8875              3156.9774              3169.8458
 Red. masses --      1.0640                 1.0814                 1.0926
 Frc consts  --      6.2437                 6.3503                 6.4682
 IR Inten    --     12.7832                 3.6797                 8.1087

                     76                     77                     78
                      A                      A                      A
 Frequencies --   3239.6569              3568.1471              3588.8522
 Red. masses --      1.1152                 1.0749                 1.0753
 Frc consts  --      6.8961                 8.0628                 8.1602
 IR Inten    --     16.8369                17.6673                21.7054

 - Thermochemistry -
 -------------------
 Temperature   298.150 Kelvin.  Pressure   1.00000 Atm.
 Atom     1 has atomic number  6 and mass  12.00000

 Molecular mass:   168.12626 amu.
 Principal axes and moments of inertia in atomic units:
                           1         2         3
     Eigenvalues --  1586.092552606.437513675.35450
           X            0.99994   0.01014   0.00443
           Y           -0.01014   0.99995   0.00015
           Z           -0.00443  -0.00019   0.99999
 This molecule is an asymmetric top.
 Rotational symmetry number  1.
 Warning -- assumption of classical behavior for rotation
           may cause significant error
 Rotational temperatures (Kelvin)      0.05461     0.03323     0.02357
 Rotational constants (GHZ):           1.13785     0.69242     0.49104
 Zero-point vibrational energy     648456.3 (Joules/Mol)
                                  154.98477 (Kcal/Mol)
 Warning -- explicit consideration of  18 degrees of freedom as
           vibrations may cause significant error
 Vibrational temperatures:     58.62    76.70   121.15   153.26   194.13
          (Kelvin)            238.50   292.83   304.55   385.67   448.83
                              465.50   510.65   536.57   600.04   621.84
                              723.33   795.59   886.57   931.45  1015.19
                             1068.56  1117.44  1157.70  1184.67  1257.12
                             1276.33  1328.42  1344.26  1360.46  1366.58
                             1375.57  1436.17  1448.40  1487.72  1504.47
                             1545.72  1625.12  1687.57  1701.68  1740.74
                             1756.52  1777.34  1834.10  1837.51  1857.68
                             1882.01  1899.72  1911.05  1974.79  2048.55
                             2069.93  2121.17  2129.60  2132.90  2160.38
                             2177.12  2189.99  2190.70  2212.60  2215.47
                             2497.81  2587.53  4352.73  4397.32  4407.59
                             4423.44  4440.22  4482.45  4489.45  4497.28
                             4520.64  4529.48  4540.62  4542.19  4560.70
                             4661.14  5133.77  5163.56

 Zero-point correction=                           0.246984 (Hartree/Particle)
 Thermal correction to Energy=                    0.259783
 Thermal correction to Enthalpy=                  0.260727
 Thermal correction to Gibbs Free Energy=         0.207434
 Sum of electronic and zero-point Energies=           -537.082067
 Sum of electronic and thermal Energies=              -537.069268
 Sum of electronic and thermal Enthalpies=            -537.068324
 Sum of electronic and thermal Free Energies=         -537.121617

                     E (Thermal)             CV                S
                      KCal/Mol        Cal/Mol-Kelvin    Cal/Mol-Kelvin
 Total                  163.016             48.231            112.164
 Electronic               0.000              0.000              0.000
 Translational            0.889              2.981             41.267
 Rotational               0.889              2.981             31.097
 Vibrational            161.239             42.269             39.800
 Vibration     1          0.594              1.981              5.223
 Vibration     2          0.596              1.976              4.691
 Vibration     3          0.601              1.960              3.791
 Vibration     4          0.605              1.944              3.331
 Vibration     5          0.613              1.918              2.875
 Vibration     6          0.624              1.885              2.483
 Vibration     7          0.639              1.835              2.101
 Vibration     8          0.643              1.823              2.029
 Vibration     9          0.673              1.732              1.609
 Vibration    10          0.700              1.651              1.352
 Vibration    11          0.708              1.628              1.292
 Vibration    12          0.731              1.565              1.144
 Vibration    13          0.744              1.528              1.068
 Vibration    14          0.780              1.433              0.902
 Vibration    15          0.793              1.400              0.851
 Vibration    16          0.858              1.244              0.651
 Vibration    17          0.908              1.133              0.538
 Vibration    18          0.976              0.998              0.423

 Optimization completed.
    -- Stationary point found.
 Normal termination of Gaussian 16 at Wed Dec  9 17:20:13 2020.

 ----------------------------------------------------------------------
 # B3LYP/6-311++G(d,p) empiricaldispersion=gd3bj scf=xqc pop=npa geom=c
 heck
 ----------------------------------------------------------------------

 ---------------------------------------
 CID_131039753_JID_2317_Energie_neutraal
 ---------------------------------------
 Structure from the checkpoint file:  "JID_2317.chk"
 Charge =  0 Multiplicity = 1

 SCF Done:  E(RB3LYP) =  -537.490556292     A.U. after   14 cycles
 Normal termination of Gaussian 16 at Wed Dec  9 17:24:05 2020.

 ----------------------------------------------------------------------
 # B3LYP/6-311++G(d,p) empiricaldispersion=gd3bj scf=xqc pop=npa geom=c
 heck
 ----------------------------------------------------------------------

 -------------------------------------
 CID_131039753_JID_2317_Energie_kation
 -------------------------------------
 Structure from the checkpoint file:  "JID_2317.chk"
 Charge =  1 Multiplicity = 2

 SCF Done:  E(UB3LYP) =  -537.171548810     A.U. after   29 cycles
 Normal termination of Gaussian 16 at Wed Dec  9 17:33:50 2020.
 Gaussian 16:  ES64L-G16RevA.03 25-Dec-2016

 ----------------------------------------------------------------------
 # B3LYP/6-311++G(d,p) empiricaldispersion=gd3bj scf=xqc pop=npa geom=c
 heck
 ----------------------------------------------------------------------

 ------------------------------------
 CID_131039753_JID_2317_Energie_anion
 ------------------------------------
 Structure from the checkpoint file:  "JID_2317.chk"
 Charge = -1 Multiplicity = 2

                         Standard orientation:
 ---------------------------------------------------------------------
 Center     Atomic      Atomic             Coordinates (Angstroms)
 Number     Number       Type             X           Y           Z
 ---------------------------------------------------------------------
      1          6           0        1.097027   -0.086039    1.638920
      2          6           0        1.369041   -0.068847    0.132769
      3          6           0        1.149473   -1.466019   -0.534266
      4          6           0        2.658675   -1.758299   -0.346571
      5          6           0        2.884810   -0.235830   -0.172469
      6          7           0        0.801835    1.117784   -0.534825
      7          6           0       -0.344403    1.810337   -0.138072
      8          8           0       -0.353006    3.032105   -0.036757
      9          7           0       -1.473661    1.052364    0.130909
     10          6           0       -1.887339   -0.122083   -0.638929
     11          6           0       -2.454835   -1.197608    0.244843
     12          6           0       -3.663427   -1.735616    0.087955
     13          1           0        0.025070   -0.120044    1.847845
     14          1           0        1.568533   -0.956868    2.106906
     15          1           0        1.506053    0.817155    2.105616
     16          1           0        0.430543   -2.144086   -0.064019
     17          1           0        0.900737   -1.350442   -1.593024
     18          1           0        3.178233   -2.245519   -1.175343
     19          1           0        2.866470   -2.316815    0.570508
     20          1           0        3.145037    0.236576   -1.126058
     21          1           0        3.581884    0.105451    0.599721
     22          1           0        1.515129    1.814310   -0.721245
     23          1           0       -2.234722    1.660014    0.409957
     24          1           0       -2.626902    0.160184   -1.402242
     25          1           0       -1.010148   -0.487836   -1.173844
     26          1           0       -1.809995   -1.527412    1.058362
     27          1           0       -4.033041   -2.519661    0.742654
     28          1           0       -4.330177   -1.412859   -0.709418
 ---------------------------------------------------------------------

 SCF Done:  E(UB3LYP) =  -537.475320383     A.U. after   33 cycles
 SCF Done:  E(UB3LYP) =  -537.475320383     a.u. after    1 cycles

 The electronic state is 2-A.
 Alpha  occ. eigenvalues --  -18.99124 -14.23777 -14.23035 -10.20001 -10.12596
 Alpha  occ. eigenvalues --  -10.11910 -10.08617 -10.07619 -10.07525 -10.07051
 Alpha  occ. eigenvalues --  -10.07028 -10.06392  -0.95497  -0.83886  -0.81672
 Alpha  occ. eigenvalues --   -0.74271  -0.69525  -0.62741  -0.60021  -0.57382
 Alpha  occ. eigenvalues --   -0.54592  -0.50079  -0.47569  -0.45514  -0.42029
 Alpha  occ. eigenvalues --   -0.41534  -0.39113  -0.38042  -0.35899  -0.35342
 Alpha  occ. eigenvalues --   -0.34082  -0.32888  -0.32086  -0.30552  -0.30113
 Alpha  occ. eigenvalues --   -0.29321  -0.28414  -0.26662  -0.24614  -0.24212
 Alpha  occ. eigenvalues --   -0.22639  -0.21591  -0.18877  -0.18132  -0.16201
 Alpha  occ. eigenvalues --   -0.15292   0.04479
 Alpha virt. eigenvalues --    0.06287   0.07192   0.07891   0.08197   0.08531
 Alpha virt. eigenvalues --    0.09094   0.09569   0.10420   0.10686   0.10980
 Alpha virt. eigenvalues --    0.11430   0.11859   0.12515   0.13591   0.13868

  Beta  occ. eigenvalues --  -18.99121 -14.23770 -14.23028 -10.20001 -10.12596
  Beta  occ. eigenvalues --  -10.11897 -10.08608 -10.07584 -10.07500 -10.07023
  Beta  occ. eigenvalues --  -10.07003 -10.06365  -0.95491  -0.83876  -0.81658
  Beta  occ. eigenvalues --   -0.74249  -0.69498  -0.62701  -0.59983  -0.57328
  Beta  occ. eigenvalues --   -0.54545  -0.50042  -0.47496  -0.45452  -0.41989
  Beta  occ. eigenvalues --   -0.41499  -0.39083  -0.38004  -0.35863  -0.35304
  Beta  occ. eigenvalues --   -0.34060  -0.32868  -0.32058  -0.30524  -0.30083
  Beta  occ. eigenvalues --   -0.29285  -0.28386  -0.26622  -0.24578  -0.24168
  Beta  occ. eigenvalues --   -0.22604  -0.21559  -0.18861  -0.18113  -0.16182
  Beta  occ. eigenvalues --   -0.15281
  Beta virt. eigenvalues --    0.06767   0.07315   0.08029   0.08246   0.08530
  Beta virt. eigenvalues --    0.09162   0.09635   0.09898   0.10797   0.11229
  Beta virt. eigenvalues --    0.11313   0.11959   0.12126   0.12920   0.13951

 Mulliken charges and spin densities:
               1          2
     1  C    1.299942  -1.912783
     2  C   -1.073302   1.210695
     3  C   -0.881959   0.732999
     4  C    2.445978  -3.028298
     5  C   -0.975642   0.685803
     6  N   -0.188385   0.061345
     7  C    0.459381  -0.312109
     8  O   -0.365161   0.009416
     9  N   -0.168511   0.009376
    10  C    0.819692  -1.370180
    11  C   -1.286568   1.689514
    12  C    1.359333  -2.012918
    13  H    0.315756  -0.161501
    14  H   -0.436616   0.594806
    15  H    0.026313   0.139507
    16  H   -0.001995   0.136252
    17  H   -0.093031   0.259962
    18  H   -0.352697   0.505210
    19  H   -0.173784   0.330652
    20  H   -0.124090   0.247167
    21  H   -0.334542   0.496755
    22  H    0.211210   0.090670
    23  H    0.283829   0.022444
    24  H   -0.267333   0.475763
    25  H   -0.142395   0.306206
    26  H   -0.584510   0.763058
    27  H   -0.448385   0.589497
    28  H   -0.322527   0.440693
 Sum of Mulliken charges =  -1.00000   1.00000

 Dipole moment (field-independent basis, Debye):
    X=             -0.1928    Y=              3.5596    Z=             -0.7272  Tot=              3.6382
 Quadrupole moment (field-independent basis, Debye-Ang):
   XX=           -142.9122   YY=           -131.6941   ZZ=           -111.0788
   XY=             -1.8880   XZ=             -0.2843   YZ=              2.5753

 Summary of Natural Population Analysis:

                                       Natural Population
                Natural  -----------------------------------------------
    Atom  No    Charge         Core      Valence    Rydberg      Total
 -----------------------------------------------------------------------
      C    1   -0.29409      0.99960     2.28782    0.00667     3.29409
      C    2    0.05612      0.99954     1.92834    0.01599     2.94388
      C    3   -0.19389      0.99959     2.18488    0.00942     3.19389
      C    4   -0.18935      0.99965     2.18088    0.00883     3.18935
      C    5   -0.18538      0.99960     2.17630    0.00948     3.18538
      N    6   -0.34247      0.99965     2.83277    0.01006     3.84247
      C    7    0.41300      0.99970     1.56429    0.02302     2.58700
      O    8   -0.33629      0.99988     3.33119    0.00523     4.33629
      N    9   -0.33169      0.99967     2.82297    0.00905     3.83169
      C   10   -0.10895      0.99958     2.09784    0.01153     3.10895
      C   11   -0.09063      0.99956     2.08011    0.01095     3.09063
      C   12   -0.18330      0.99956     2.17636    0.00738     3.18330
      H   13    0.10613      0.00000     0.39201    0.00186     0.39387
      H   14    0.10544      0.00000     0.39313    0.00143     0.39456
      H   15    0.10125      0.00000     0.39771    0.00104     0.39875
      H   16    0.10152      0.00000     0.39669    0.00178     0.39848
      H   17    0.10209      0.00000     0.39612    0.00180     0.39791
      H   18    0.09953      0.00000     0.39883    0.00164     0.40047
      H   19    0.09886      0.00000     0.39902    0.00212     0.40114
      H   20    0.09916      0.00000     0.39938    0.00146     0.40084
      H   21    0.10009      0.00000     0.39860    0.00131     0.39991
      H   22    0.19276      0.00000     0.30497    0.00227     0.30724
      H   23    0.19228      0.00000     0.30580    0.00192     0.30772
      H   24    0.09202      0.00000     0.40672    0.00126     0.40798
      H   25    0.11050      0.00000     0.38651    0.00298     0.38950
      H   26    0.09678      0.00000     0.40148    0.00174     0.40322
      H   27    0.09790      0.00000     0.40052    0.00158     0.40210
      H   28    0.09059      0.00000     0.40783    0.00158     0.40941
 =======================================================================
   * Total *    0.00000     11.99556    33.84907    0.15537    46.00000

 Normal termination of Gaussian 16 at Wed Dec  9 17:45:39 2020.
