 Gaussian 16, Revision A.03,

 -----------------------------------------------------------
 # opt freq B3LYP/6-31G(d) empiricaldispersion=gd3bj scf=xqc
 -----------------------------------------------------------

 -------------------------------
 CID_148982550_JID_5292_neutraal
 -------------------------------
 Symbolic Z-matrix:
 Charge =  0 Multiplicity = 1

 SCF Done:  E(RB3LYP) =  -711.117044721     A.U. after   14 cycles
 SCF Done:  E(RB3LYP) =  -711.120768354     A.U. after   12 cycles
 SCF Done:  E(RB3LYP) =  -711.118121734     A.U. after   13 cycles
 SCF Done:  E(RB3LYP) =  -711.121814742     A.U. after   11 cycles
 SCF Done:  E(RB3LYP) =  -711.122183606     A.U. after   11 cycles
 SCF Done:  E(RB3LYP) =  -711.122279063     A.U. after   12 cycles
 SCF Done:  E(RB3LYP) =  -711.122462815     A.U. after   10 cycles
 SCF Done:  E(RB3LYP) =  -711.122528649     A.U. after   10 cycles
 SCF Done:  E(RB3LYP) =  -711.122566471     A.U. after   10 cycles
 SCF Done:  E(RB3LYP) =  -711.122598537     A.U. after   10 cycles
 SCF Done:  E(RB3LYP) =  -711.122603134     A.U. after   10 cycles
 SCF Done:  E(RB3LYP) =  -711.122605576     A.U. after    9 cycles
 SCF Done:  E(RB3LYP) =  -711.122606208     A.U. after    8 cycles
 SCF Done:  E(RB3LYP) =  -711.122606289     A.U. after    7 cycles
 Optimization completed.
    -- Stationary point found.
 Normal termination of Gaussian 16 at Thu Dec 10 15:27:35 2020.

 --------------------------------------------------------------------
 #N Geom=AllCheck Guess=TCheck SCRF=Check GenChk RB3LYP/6-31G(d) Freq
 --------------------------------------------------------------------

 Structure from the checkpoint file:  "JID_5292.chk"
 -------------------------------
 CID_148982550_JID_5292_neutraal
 -------------------------------
 Charge =  0 Multiplicity = 1

 SCF Done:  E(RB3LYP) =  -711.122606289     A.U. after    1 cycles

  Exact polarizability: 127.752   2.028 132.588   1.150   0.624 111.413
 Approx polarizability: 160.659  -3.921 182.470  -0.138  -2.711 177.540

                      1                      2                      3
                      A                      A                      A
 Frequencies --     33.5322                45.9349                63.8320
 Red. masses --      3.9939                 5.0554                 4.5728
 Frc consts  --      0.0026                 0.0063                 0.0110
 IR Inten    --      0.5484                 7.8896                 2.7016

                      4                      5                      6
                      A                      A                      A
 Frequencies --    109.1675               151.7310               172.1393
 Red. masses --      3.7886                 2.6878                 6.2929
 Frc consts  --      0.0266                 0.0365                 0.1099
 IR Inten    --      1.6329                 0.8047                 7.2999

                      7                      8                      9
                      A                      A                      A
 Frequencies --    205.8654               233.5598               244.5757
 Red. masses --      4.0086                 1.1878                 2.0210
 Frc consts  --      0.1001                 0.0382                 0.0712
 IR Inten    --      3.1628                 0.5507                 0.6833

                     10                     11                     12
                      A                      A                      A
 Frequencies --    266.7080               295.5329               301.0514
 Red. masses --      1.3327                 2.1131                 2.3740
 Frc consts  --      0.0559                 0.1087                 0.1268
 IR Inten    --      0.7142                 1.4979                 0.7301

                     13                     14                     15
                      A                      A                      A
 Frequencies --    335.1583               348.9332               388.4160
 Red. masses --      2.7202                 2.3228                 2.2609
 Frc consts  --      0.1800                 0.1666                 0.2010
 IR Inten    --      2.1815                 1.6987                 3.9693

                     16                     17                     18
                      A                      A                      A
 Frequencies --    407.4594               436.6376               456.7977
 Red. masses --      1.2511                 2.7122                 2.6453
 Frc consts  --      0.1224                 0.3047                 0.3252
 IR Inten    --    331.8355                 1.2664                 2.0581

                     19                     20                     21
                      A                      A                      A
 Frequencies --    465.3442               477.8775               517.4714
 Red. masses --      2.7683                 2.2070                 1.4410
 Frc consts  --      0.3532                 0.2970                 0.2273
 IR Inten    --      3.8230                 2.4809                10.3805

                     22                     23                     24
                      A                      A                      A
 Frequencies --    541.9466               576.1477               638.4774
 Red. masses --      2.6042                 2.6956                 3.3533
 Frc consts  --      0.4506                 0.5272                 0.8054
 IR Inten    --     11.3862                 2.8221                 3.8334

                     25                     26                     27
                      A                      A                      A
 Frequencies --    648.1519               733.8799               761.1162
 Red. masses --      4.6614                 3.2206                 7.4380
 Frc consts  --      1.1538                 1.0220                 2.5387
 IR Inten    --     10.3254                 0.9617                29.8564

                     28                     29                     30
                      A                      A                      A
 Frequencies --    779.7078               808.4503               831.7906
 Red. masses --      4.4060                 3.2590                 2.5735
 Frc consts  --      1.5782                 1.2550                 1.0491
 IR Inten    --      2.1771                17.5628                 7.7485

                     31                     32                     33
                      A                      A                      A
 Frequencies --    862.3983               874.7410               894.4547
 Red. masses --      2.7876                 1.9340                 2.9050
 Frc consts  --      1.2215                 0.8719                 1.3694
 IR Inten    --      6.1587                10.4806                37.8332

                     34                     35                     36
                      A                      A                      A
 Frequencies --    917.7057               934.0653               960.6901
 Red. masses --      2.0485                 1.7425                 1.5382
 Frc consts  --      1.0165                 0.8957                 0.8364
 IR Inten    --      5.9547                 1.7148                 4.4444

                     37                     38                     39
                      A                      A                      A
 Frequencies --    975.3276               988.9119              1027.4536
 Red. masses --      1.9571                 1.9444                 1.3505
 Frc consts  --      1.0969                 1.1203                 0.8400
 IR Inten    --      2.7810                 8.2201                 0.7459

                     40                     41                     42
                      A                      A                      A
 Frequencies --   1059.7286              1078.9064              1083.9523
 Red. masses --      2.6868                 1.8312                 1.6840
 Frc consts  --      1.7778                 1.2559                 1.1658
 IR Inten    --     29.6875                 1.7396                10.9247

                     43                     44                     45
                      A                      A                      A
 Frequencies --   1104.0770              1111.2648              1127.5279
 Red. masses --      2.1317                 2.1181                 2.3282
 Frc consts  --      1.5310                 1.5411                 1.7439
 IR Inten    --     27.6783                33.6661                75.7462

                     46                     47                     48
                      A                      A                      A
 Frequencies --   1138.6421              1149.0236              1178.6209
 Red. masses --      1.9038                 2.1454                 2.3720
 Frc consts  --      1.4542                 1.6689                 1.9414
 IR Inten    --     58.2516                 7.8130                24.3333

                     49                     50                     51
                      A                      A                      A
 Frequencies --   1205.4327              1230.3991              1253.6688
 Red. masses --      2.0997                 1.8453                 1.8977
 Frc consts  --      1.7976                 1.6460                 1.7573
 IR Inten    --     23.3974                 8.1435                19.8832

                     52                     53                     54
                      A                      A                      A
 Frequencies --   1276.2041              1289.1601              1295.0927
 Red. masses --      1.7344                 1.6196                 1.8743
 Frc consts  --      1.6644                 1.5859                 1.8522
 IR Inten    --     18.7017                10.4870                28.8046

                     55                     56                     57
                      A                      A                      A
 Frequencies --   1324.3332              1349.1875              1353.1494
 Red. masses --      1.6043                 1.3299                 1.4592
 Frc consts  --      1.6578                 1.4263                 1.5742
 IR Inten    --     27.2120                 7.8795                36.3415

                     58                     59                     60
                      A                      A                      A
 Frequencies --   1366.8080              1378.7592              1391.8347
 Red. masses --      1.3895                 2.1098                 1.3785
 Frc consts  --      1.5294                 2.3630                 1.5734
 IR Inten    --     67.3638               246.2074                 4.0766

                     61                     62                     63
                      A                      A                      A
 Frequencies --   1406.0714              1417.1953              1427.0986
 Red. masses --      1.3870                 1.3788                 1.3419
 Frc consts  --      1.6157                 1.6316                 1.6102
 IR Inten    --     39.9603                 5.3163                12.7594

                     64                     65                     66
                      A                      A                      A
 Frequencies --   1436.6030              1440.1696              1445.5823
 Red. masses --      1.4696                 1.3533                 1.3434
 Frc consts  --      1.7870                 1.6538                 1.6540
 IR Inten    --      8.6074                 0.7079                 9.7770

                     67                     68                     69
                      A                      A                      A
 Frequencies --   1475.8649              1502.3640              1508.5376
 Red. masses --      1.3240                 1.0931                 1.0525
 Frc consts  --      1.6991                 1.4537                 1.4112
 IR Inten    --     38.7980                 4.0764                 0.4486

                     70                     71                     72
                      A                      A                      A
 Frequencies --   1515.5979              1518.5256              1525.8762
 Red. masses --      1.0551                 1.0863                 1.0718
 Frc consts  --      1.4279                 1.4759                 1.4702
 IR Inten    --      3.1575                 5.3231                 1.2990

                     73                     74                     75
                      A                      A                      A
 Frequencies --   1527.8491              1530.5388              1536.5892
 Red. masses --      1.0906                 1.0928                 1.0566
 Frc consts  --      1.4999                 1.5083                 1.4699
 IR Inten    --      5.4331                 8.1481                 2.6030

                     76                     77                     78
                      A                      A                      A
 Frequencies --   1640.6726              1820.8582              2908.6102
 Red. masses --      1.2361                 9.0490                 1.0804
 Frc consts  --      1.9604                17.6768                 5.3853
 IR Inten    --    124.5370               343.5466                52.4735

                     79                     80                     81
                      A                      A                      A
 Frequencies --   3013.7814              3032.9510              3042.8630
 Red. masses --      1.0680                 1.0690                 1.0626
 Frc consts  --      5.7152                 5.7935                 5.7969
 IR Inten    --     37.0501                18.7858                22.4563

                     82                     83                     84
                      A                      A                      A
 Frequencies --   3047.2206              3053.5970              3057.4492
 Red. masses --      1.0360                 1.0383                 1.0714
 Frc consts  --      5.6679                 5.7040                 5.9010
 IR Inten    --     27.8364                28.0071                55.8862

                     85                     86                     87
                      A                      A                      A
 Frequencies --   3076.3755              3094.1052              3094.8605
 Red. masses --      1.0936                 1.0865                 1.0950
 Frc consts  --      6.0981                 6.1284                 6.1793
 IR Inten    --     45.6930                36.7139                23.0551

                     88                     89                     90
                      A                      A                      A
 Frequencies --   3106.1354              3115.9566              3123.4345
 Red. masses --      1.0964                 1.1020                 1.1019
 Frc consts  --      6.2322                 6.3042                 6.3338
 IR Inten    --     11.8741                 5.0995                52.5584

                     91                     92                     93
                      A                      A                      A
 Frequencies --   3124.9350              3128.4640              3133.6383
 Red. masses --      1.1016                 1.1006                 1.0900
 Frc consts  --      6.3380                 6.3467                 6.3064
 IR Inten    --     10.5277                40.3572                11.6334

                     94                     95                     96
                      A                      A                      A
 Frequencies --   3146.1054              3603.3367              3725.9862
 Red. masses --      1.0934                 1.0457                 1.1037
 Frc consts  --      6.3762                 7.9998                 9.0282
 IR Inten    --     12.4472                44.0646                39.7534

 - Thermochemistry -
 -------------------
 Temperature   298.150 Kelvin.  Pressure   1.00000 Atm.
 Atom     1 has atomic number  6 and mass  12.00000

 Molecular mass:   213.13649 amu.
 Principal axes and moments of inertia in atomic units:
                           1         2         3
     Eigenvalues --  2225.854003356.769594377.99591
           X            0.99911   0.04166   0.00703
           Y           -0.04172   0.99909   0.00890
           Z           -0.00665  -0.00918   0.99994
 This molecule is an asymmetric top.
 Rotational symmetry number  1.
 Warning -- assumption of classical behavior for rotation
           may cause significant error
 Rotational temperatures (Kelvin)      0.03891     0.02580     0.01978
 Rotational constants (GHZ):           0.81081     0.53764     0.41223
 Zero-point vibrational energy     788128.0 (Joules/Mol)
                                  188.36712 (Kcal/Mol)
 Warning -- explicit consideration of  23 degrees of freedom as
           vibrations may cause significant error
 Vibrational temperatures:     48.25    66.09    91.84   157.07   218.31
          (Kelvin)            247.67   296.19   336.04   351.89   383.73
                              425.21   433.15   482.22   502.04   558.84
                              586.24   628.22   657.23   669.53   687.56
                              744.53   779.74   828.95   918.63   932.55
                             1055.89  1095.08  1121.83  1163.18  1196.76
                             1240.80  1258.56  1286.92  1320.37  1343.91
                             1382.22  1403.28  1422.82  1478.28  1524.71
                             1552.31  1559.57  1588.52  1598.86  1622.26
                             1638.25  1653.19  1695.77  1734.35  1770.27
                             1803.75  1836.17  1854.81  1863.35  1905.42
                             1941.18  1946.88  1966.53  1983.73  2002.54
                             2023.02  2039.03  2053.28  2066.95  2072.08
                             2079.87  2123.44  2161.57  2170.45  2180.61
                             2184.82  2195.40  2198.23  2202.10  2210.81
                             2360.56  2619.81  4184.84  4336.16  4363.74
                             4378.00  4384.27  4393.45  4398.99  4426.22
                             4451.73  4452.81  4469.04  4483.17  4493.93
                             4496.08  4501.16  4508.61  4526.54  5184.40
                             5360.86

 Zero-point correction=                           0.300182 (Hartree/Particle)
 Thermal correction to Energy=                    0.314887
 Thermal correction to Enthalpy=                  0.315831
 Thermal correction to Gibbs Free Energy=         0.258614
 Sum of electronic and zero-point Energies=           -710.822424
 Sum of electronic and thermal Energies=              -710.807719
 Sum of electronic and thermal Enthalpies=            -710.806775
 Sum of electronic and thermal Free Energies=         -710.863992

                     E (Thermal)             CV                S
                      KCal/Mol        Cal/Mol-Kelvin    Cal/Mol-Kelvin
 Total                  197.595             57.880            120.424
 Electronic               0.000              0.000              0.000
 Translational            0.889              2.981             41.974
 Rotational               0.889              2.981             31.859
 Vibrational            195.817             51.918             46.591
 Vibration     1          0.594              1.983              5.609
 Vibration     2          0.595              1.979              4.985
 Vibration     3          0.597              1.972              4.335
 Vibration     4          0.606              1.942              3.284
 Vibration     5          0.619              1.901              2.650
 Vibration     6          0.626              1.877              2.412
 Vibration     7          0.640              1.832              2.080
 Vibration     8          0.654              1.790              1.851
 Vibration     9          0.660              1.772              1.769
 Vibration    10          0.672              1.734              1.617
 Vibration    11          0.690              1.682              1.442
 Vibration    12          0.693              1.672              1.411
 Vibration    13          0.716              1.605              1.235
 Vibration    14          0.726              1.577              1.171
 Vibration    15          0.757              1.495              1.006
 Vibration    16          0.772              1.454              0.936
 Vibration    17          0.797              1.390              0.837
 Vibration    18          0.815              1.346              0.775
 Vibration    19          0.823              1.327              0.751
 Vibration    20          0.834              1.299              0.716
 Vibration    21          0.872              1.211              0.616
 Vibration    22          0.897              1.157              0.561
 Vibration    23          0.933              1.083              0.493

                           ! Non-Optimized Parameters !
 Normal termination of Gaussian 16 at Thu Dec 10 15:40:08 2020.

 ----------------------------------------------------------------------
 # B3LYP/6-311++G(d,p) empiricaldispersion=gd3bj scf=xqc pop=npa geom=c
 heck
 ----------------------------------------------------------------------

 ---------------------------------------
 CID_148982550_JID_5292_Energie_neutraal
 ---------------------------------------
 Structure from the checkpoint file:  "JID_5292.chk"
 Charge =  0 Multiplicity = 1

 SCF Done:  E(RB3LYP) =  -711.331480319     A.U. after   14 cycles
 Normal termination of Gaussian 16 at Thu Dec 10 15:45:18 2020.

 ----------------------------------------------------------------------
 # B3LYP/6-311++G(d,p) empiricaldispersion=gd3bj scf=xqc pop=npa geom=c
 heck
 ----------------------------------------------------------------------

 -------------------------------------
 CID_148982550_JID_5292_Energie_kation
 -------------------------------------
 Structure from the checkpoint file:  "JID_5292.chk"
 Charge =  1 Multiplicity = 2

 SCF Done:  E(UB3LYP) =  -711.008911523     A.U. after   30 cycles
 Normal termination of Gaussian 16 at Thu Dec 10 16:03:26 2020.
 Gaussian 16:  ES64L-G16RevA.03 25-Dec-2016

 ----------------------------------------------------------------------
 # B3LYP/6-311++G(d,p) empiricaldispersion=gd3bj scf=xqc pop=npa geom=c
 heck
 ----------------------------------------------------------------------

 ------------------------------------
 CID_148982550_JID_5292_Energie_anion
 ------------------------------------
 Structure from the checkpoint file:  "JID_5292.chk"
 Charge = -1 Multiplicity = 2

                         Standard orientation:
 ---------------------------------------------------------------------
 Center     Atomic      Atomic             Coordinates (Angstroms)
 Number     Number       Type             X           Y           Z
 ---------------------------------------------------------------------
      1          6           0       -3.586025   -0.292454    0.796520
      2          6           0       -2.297977   -0.374462   -0.018449
      3          6           0       -1.993238    0.939238   -0.794755
      4          6           0       -0.477936    1.060736   -0.642574
      5          6           0        0.243533    2.391830   -0.819334
      6          6           0        1.736984    2.175624   -0.496937
      7          6           0        1.974952    1.542030    0.889568
      8          6           0        1.090034    0.334619    1.277183
      9          6           0       -0.336166    0.582490    0.797500
     10          8           0       -1.184196   -0.545285    0.913298
     11          8           0        1.613648   -0.979283    0.966009
     12          6           0        1.877946   -1.428197   -0.278387
     13          8           0        1.882405   -0.785073   -1.313319
     14          7           0        2.218471   -2.754153   -0.207728
     15          6           0       -2.290392   -1.597276   -0.936592
     16          1           0       -3.746510   -1.218165    1.359237
     17          1           0       -4.450723   -0.130822    0.142102
     18          1           0       -3.533636    0.537501    1.509026
     19          1           0       -2.328148    0.883636   -1.835074
     20          1           0       -2.501001    1.790287   -0.321881
     21          1           0        0.002719    0.328155   -1.293639
     22          1           0       -0.191825    3.148418   -0.148370
     23          1           0        0.134465    2.772709   -1.841728
     24          1           0        2.272230    3.132567   -0.534015
     25          1           0        2.166422    1.526584   -1.262264
     26          1           0        3.025129    1.251744    1.003591
     27          1           0        1.782767    2.304526    1.657313
     28          1           0        1.076752    0.267381    2.368078
     29          1           0       -0.704594    1.398805    1.451257
     30          1           0        1.932473   -3.276681    0.607219
     31          1           0        2.247596   -3.243076   -1.089494
     32          1           0       -2.327846   -2.513049   -0.337377
     33          1           0       -3.154226   -1.588315   -1.611166
     34          1           0       -1.376487   -1.621077   -1.539071
 ---------------------------------------------------------------------

 SCF Done:  E(UB3LYP) =  -711.317123940     A.U. after   33 cycles
 SCF Done:  E(UB3LYP) =  -711.317123940     a.u. after    1 cycles

 The electronic state is 2-A.
 Alpha  occ. eigenvalues --  -19.05694 -19.01579 -18.99473 -14.22716 -10.22111
 Alpha  occ. eigenvalues --  -10.13607 -10.12946 -10.11658 -10.07593 -10.06911
 Alpha  occ. eigenvalues --  -10.06876 -10.06420 -10.06358 -10.06138 -10.05742
 Alpha  occ. eigenvalues --   -1.00295  -0.93667  -0.91613  -0.80676  -0.73356
 Alpha  occ. eigenvalues --   -0.70311  -0.66465  -0.64418  -0.59346  -0.58281
 Alpha  occ. eigenvalues --   -0.55512  -0.50491  -0.49068  -0.45874  -0.45409
 Alpha  occ. eigenvalues --   -0.43024  -0.41437  -0.39030  -0.37567  -0.37095
 Alpha  occ. eigenvalues --   -0.36586  -0.35183  -0.34781  -0.33561  -0.32184
 Alpha  occ. eigenvalues --   -0.31305  -0.30579  -0.29826  -0.28733  -0.27951
 Alpha  occ. eigenvalues --   -0.27527  -0.27033  -0.25794  -0.25433  -0.23673
 Alpha  occ. eigenvalues --   -0.23506  -0.22878  -0.21298  -0.20174  -0.19011
 Alpha  occ. eigenvalues --   -0.18089  -0.17293  -0.15223   0.04386
 Alpha virt. eigenvalues --    0.06121   0.06676   0.07688   0.08520   0.09173
 Alpha virt. eigenvalues --    0.09498   0.09733   0.10164   0.10914   0.11415
 Alpha virt. eigenvalues --    0.11930   0.12353   0.12705   0.12902   0.13187

  Beta  occ. eigenvalues --  -19.05682 -19.01573 -18.99466 -14.22654 -10.22108
  Beta  occ. eigenvalues --  -10.13593 -10.12944 -10.11648 -10.07577 -10.06896
  Beta  occ. eigenvalues --  -10.06862 -10.06414 -10.06355 -10.06115 -10.05721
  Beta  occ. eigenvalues --   -1.00275  -0.93659  -0.91596  -0.80592  -0.73329
  Beta  occ. eigenvalues --   -0.70291  -0.66439  -0.64388  -0.59306  -0.58245
  Beta  occ. eigenvalues --   -0.55468  -0.50461  -0.49009  -0.45833  -0.45342
  Beta  occ. eigenvalues --   -0.42981  -0.41390  -0.39001  -0.37545  -0.37050
  Beta  occ. eigenvalues --   -0.36554  -0.35159  -0.34760  -0.33534  -0.32159
  Beta  occ. eigenvalues --   -0.31277  -0.30556  -0.29799  -0.28704  -0.27929
  Beta  occ. eigenvalues --   -0.27503  -0.27009  -0.25770  -0.25409  -0.23649
  Beta  occ. eigenvalues --   -0.23488  -0.22846  -0.21278  -0.20154  -0.18993
  Beta  occ. eigenvalues --   -0.18041  -0.17263  -0.15209
  Beta virt. eigenvalues --    0.06521   0.07167   0.07630   0.08058   0.09044
  Beta virt. eigenvalues --    0.09444   0.09899   0.10105   0.10731   0.11200
  Beta virt. eigenvalues --    0.11815   0.12125   0.12690   0.12967   0.13046

 Mulliken charges and spin densities:
               1          2
     1  C    0.546555  -1.009844
     2  C   -1.181654   1.781588
     3  C    1.347607  -2.437128
     4  C   -0.405139   1.559414
     5  C   -0.460652  -0.261502
     6  C   -0.508078   0.185842
     7  C    0.994367  -1.435936
     8  C   -0.027078   0.154097
     9  C   -0.019892  -1.146750
    10  O    0.057414   0.001174
    11  O    0.010601  -0.034471
    12  C    0.857667  -1.002421
    13  O   -0.268277  -0.003569
    14  N   -0.508721   0.240923
    15  C   -0.153580  -0.327683
    16  H   -0.029890   0.181600
    17  H   -0.033067   0.165019
    18  H   -0.233445   0.386936
    19  H    0.012809   0.158506
    20  H   -0.074680   0.243181
    21  H    0.242048   0.025993
    22  H   -0.174904   0.311424
    23  H    0.036661   0.122166
    24  H   -0.086712   0.261114
    25  H    0.228209  -0.047863
    26  H    0.033643   0.144624
    27  H   -0.080734   0.225872
    28  H   -0.348735   0.600107
    29  H   -0.089970   0.268327
    30  H   -0.208663   0.477772
    31  H   -0.258615   0.540563
    32  H   -0.023333   0.178628
    33  H   -0.094045   0.228705
    34  H   -0.097715   0.263591
 Sum of Mulliken charges =  -1.00000   1.00000

 Dipole moment (field-independent basis, Debye):
    X=             -0.2062    Y=              2.8478    Z=             -1.3153  Tot=              3.1437
 Quadrupole moment (field-independent basis, Debye-Ang):
   XX=           -143.6052   YY=           -150.5316   ZZ=           -128.7621
   XY=              7.0696   XZ=              2.4987   YZ=             -5.9256

 Summary of Natural Population Analysis:

                                       Natural Population
                Natural  -----------------------------------------------
    Atom  No    Charge         Core      Valence    Rydberg      Total
 -----------------------------------------------------------------------
      C    1   -0.28931      0.99960     2.28374    0.00597     3.28931
      C    2    0.13319      0.99955     1.85094    0.01632     2.86681
      C    3   -0.19493      0.99957     2.18675    0.00860     3.19493
      C    4   -0.13406      0.99955     2.12388    0.01064     3.13406
      C    5   -0.18483      0.99961     2.17662    0.00860     3.18483
      C    6   -0.19334      0.99962     2.18536    0.00836     3.19334
      C    7   -0.20053      0.99960     2.19252    0.00841     3.20053
      C    8    0.06684      0.99946     1.91821    0.01549     2.93316
      C    9    0.06172      0.99946     1.92287    0.01595     2.93828
      O   10   -0.31033      0.99987     3.30103    0.00942     4.31033
      O   11   -0.28956      0.99985     3.27985    0.00986     4.28956
      C   12    0.46093      0.99972     1.51320    0.02614     2.53907
      O   13   -0.33810      0.99987     3.33263    0.00561     4.33810
      N   14   -0.40571      0.99971     2.89802    0.00797     3.90571
      C   15   -0.29216      0.99959     2.28563    0.00694     3.29216
      H   16    0.10211      0.00000     0.39679    0.00110     0.39789
      H   17    0.09831      0.00000     0.40069    0.00100     0.40169
      H   18    0.10267      0.00000     0.39616    0.00117     0.39733
      H   19    0.10372      0.00000     0.39538    0.00090     0.39628
      H   20    0.09859      0.00000     0.40009    0.00132     0.40141
      H   21    0.11684      0.00000     0.38055    0.00261     0.38316
      H   22    0.09346      0.00000     0.40520    0.00134     0.40654
      H   23    0.09858      0.00000     0.40056    0.00085     0.40142
      H   24    0.09489      0.00000     0.40425    0.00085     0.40511
      H   25    0.11054      0.00000     0.38800    0.00146     0.38946
      H   26    0.10583      0.00000     0.39324    0.00092     0.39417
      H   27    0.10176      0.00000     0.39673    0.00152     0.39824
      H   28    0.09766      0.00000     0.40082    0.00152     0.40234
      H   29    0.08259      0.00000     0.41515    0.00227     0.41741
      H   30    0.19923      0.00000     0.29667    0.00410     0.30077
      H   31    0.19747      0.00000     0.29878    0.00376     0.30253
      H   32    0.10463      0.00000     0.39425    0.00111     0.39537
      H   33    0.09673      0.00000     0.40235    0.00093     0.40327
      H   34    0.10457      0.00000     0.39400    0.00143     0.39543
 =======================================================================
   * Total *    0.00000     14.99464    42.81092    0.19445    58.00000

 Normal termination of Gaussian 16 at Thu Dec 10 16:20:30 2020.
