 Gaussian 16, Revision A.03,

 -----------------------------------------------------------
 # opt freq B3LYP/6-31G(d) empiricaldispersion=gd3bj scf=xqc
 -----------------------------------------------------------

 -------------------------------
 CID_105254830_JID_3917_neutraal
 -------------------------------
 Symbolic Z-matrix:
 Charge =  0 Multiplicity = 1

 SCF Done:  E(RB3LYP) =  -587.561525929     A.U. after   14 cycles
 SCF Done:  E(RB3LYP) =  -587.569666145     A.U. after   13 cycles
 SCF Done:  E(RB3LYP) =  -587.571285648     A.U. after   12 cycles
 SCF Done:  E(RB3LYP) =  -587.571526487     A.U. after   11 cycles
 SCF Done:  E(RB3LYP) =  -587.571619541     A.U. after   11 cycles
 SCF Done:  E(RB3LYP) =  -587.571705528     A.U. after   11 cycles
 SCF Done:  E(RB3LYP) =  -587.572135314     A.U. after   12 cycles
 SCF Done:  E(RB3LYP) =  -587.569451375     A.U. after   13 cycles
 SCF Done:  E(RB3LYP) =  -587.573858490     A.U. after   12 cycles
 SCF Done:  E(RB3LYP) =  -587.574314306     A.U. after   14 cycles
 SCF Done:  E(RB3LYP) =  -587.576955152     A.U. after    8 cycles
 SCF Done:  E(RB3LYP) =  -587.576955248     A.U. after    7 cycles
 SCF Done:  E(RB3LYP) =  -587.576955345     A.U. after    7 cycles
 SCF Done:  E(RB3LYP) =  -587.576955404     A.U. after    7 cycles
 SCF Done:  E(RB3LYP) =  -587.576955428     A.U. after    7 cycles
 Optimization completed.
    -- Stationary point found.

 1\1\GINC-NODE310\FOpt\RB3LYP\6-31G(d)\C8H15N5\VSC10255\14-Dec-2020\0\\
 # opt freq B3LYP/6-31G(d) empiricaldispersion=gd3bj scf=xqc\\CID_10525
 4830_JID_3917_neutraal\\0,1\C,-0.0801808628,0.7372323258,0.0874083629\
 C,-0.8469482832,-0.5196640394,-0.2516197222\C,0.5925334034,-0.61030021
 75,0.1865036212\C,1.675222565,-0.9897348205,-0.8035799335\C,3.02543270
 02,-0.3073588651,-0.5383259377\C,3.5720830253,-0.5142648218,0.87959455
 57\C,3.73015762,-1.9690968452,1.247486534\N,4.1484764019,-2.8961404049
 ,0.3710229442\N,4.2286278331,-4.0019710404,1.1086925581\N,3.8999413159

 Normal termination of Gaussian 16 at Mon Dec 14 13:15:56 2020.

 --------------------------------------------------------------------
 #N Geom=AllCheck Guess=TCheck SCRF=Check GenChk RB3LYP/6-31G(d) Freq
 --------------------------------------------------------------------

 Structure from the checkpoint file:  "JID_3917.chk"
 -------------------------------
 CID_105254830_JID_3917_neutraal
 -------------------------------
 Charge =  0 Multiplicity = 1

 SCF Done:  E(RB3LYP) =  -587.576955428     A.U. after    1 cycles

  Exact polarizability: 115.897   7.156 109.564   2.257  -3.136 101.085
 Approx polarizability: 148.717  21.163 161.466   4.951  -6.643 169.102

                      1                      2                      3
                      A                      A                      A
 Frequencies --     28.2574                34.1517                50.8880
 Red. masses --      5.3506                 4.0855                 3.3416
 Frc consts  --      0.0025                 0.0028                 0.0051
 IR Inten    --      0.2511                 0.0430                 0.2255

                      4                      5                      6
                      A                      A                      A
 Frequencies --     90.2094               113.3134               141.3781
 Red. masses --      3.2882                 3.6787                 3.3764
 Frc consts  --      0.0158                 0.0278                 0.0398
 IR Inten    --      1.4860                 0.2321                 2.1072

                      7                      8                      9
                      A                      A                      A
 Frequencies --    182.4504               207.8241               238.4496
 Red. masses --      2.9843                 3.3891                 2.3624
 Frc consts  --      0.0585                 0.0862                 0.0791
 IR Inten    --     10.3560                 2.0106                 2.1875

                     10                     11                     12
                      A                      A                      A
 Frequencies --    289.4816               308.7982               368.5017
 Red. masses --      2.3884                 1.5862                 2.9647
 Frc consts  --      0.1179                 0.0891                 0.2372
 IR Inten    --     15.4414                40.0040                11.2575

                     13                     14                     15
                      A                      A                      A
 Frequencies --    388.6864               455.3928               494.6575
 Red. masses --      1.9227                 4.4016                 1.6999
 Frc consts  --      0.1711                 0.5378                 0.2451
 IR Inten    --      1.1959                 0.7337                45.1525

                     16                     17                     18
                      A                      A                      A
 Frequencies --    514.1736               559.1952               670.7448
 Red. masses --      3.1535                 3.1180                 2.5651
 Frc consts  --      0.4912                 0.5745                 0.6799
 IR Inten    --     10.0952                 7.7819                 1.8797

                     19                     20                     21
                      A                      A                      A
 Frequencies --    720.9835               759.9334               770.0711
 Red. masses --      2.6504                 3.0355                 1.7944
 Frc consts  --      0.8117                 1.0328                 0.6270
 IR Inten    --     41.8928                 1.5562                 7.7764

                     22                     23                     24
                      A                      A                      A
 Frequencies --    793.5354               829.3522               842.7015
 Red. masses --      1.2318                 1.6229                 1.4395
 Frc consts  --      0.4570                 0.6577                 0.6023
 IR Inten    --      8.8047                41.3918                12.8201

                     25                     26                     27
                      A                      A                      A
 Frequencies --    867.9664               879.8389               915.2117
 Red. masses --      1.4014                 1.6723                 2.3581
 Frc consts  --      0.6220                 0.7627                 1.1638
 IR Inten    --     19.1603                18.5526                10.5012

                     28                     29                     30
                      A                      A                      A
 Frequencies --    948.1743               962.4161               998.0063
 Red. masses --      2.9678                 1.8543                 6.2051
 Frc consts  --      1.5720                 1.0119                 3.6414
 IR Inten    --     14.8928               115.1874                22.5087

                     31                     32                     33
                      A                      A                      A
 Frequencies --   1006.4672              1030.8560              1054.1028
 Red. masses --      2.0679                 2.4930                 1.7477
 Frc consts  --      1.2342                 1.5609                 1.1441
 IR Inten    --      8.0299                12.2986                12.8811

                     34                     35                     36
                      A                      A                      A
 Frequencies --   1067.4807              1081.0895              1101.7288
 Red. masses --      1.6769                 1.3873                 2.0268
 Frc consts  --      1.1259                 0.9553                 1.4495
 IR Inten    --      5.9462                 2.0760                10.1643

                     37                     38                     39
                      A                      A                      A
 Frequencies --   1120.3480              1148.2379              1159.9803
 Red. masses --      2.3622                 1.1371                 2.2473
 Frc consts  --      1.7469                 0.8833                 1.7816
 IR Inten    --      6.9766                 0.9647                 9.5852

                     40                     41                     42
                      A                      A                      A
 Frequencies --   1162.6866              1189.3851              1201.3971
 Red. masses --      1.7450                 2.0598                 2.9648
 Frc consts  --      1.3898                 1.7168                 2.5212
 IR Inten    --      4.6462                20.1716                 2.1066

                     43                     44                     45
                      A                      A                      A
 Frequencies --   1211.2557              1216.3973              1239.1387
 Red. masses --      1.5559                 2.1629                 1.8154
 Frc consts  --      1.3449                 1.8855                 1.6424
 IR Inten    --      0.3892                 2.9852                 3.4724

                     46                     47                     48
                      A                      A                      A
 Frequencies --   1253.5794              1295.1326              1327.0037
 Red. masses --      1.7109                 1.4248                 1.2685
 Frc consts  --      1.5841                 1.4081                 1.3160
 IR Inten    --     12.2456                 5.2102                 2.0922

                     49                     50                     51
                      A                      A                      A
 Frequencies --   1330.3064              1355.5681              1367.0090
 Red. masses --      1.2466                 1.8436                 3.0335
 Frc consts  --      1.2998                 1.9960                 3.3399
 IR Inten    --      4.7920                13.8087                 4.3746

                     52                     53                     54
                      A                      A                      A
 Frequencies --   1382.0442              1400.3604              1430.5801
 Red. masses --      1.4293                 1.5139                 1.9777
 Frc consts  --      1.6085                 1.7491                 2.3848
 IR Inten    --      5.7947                 3.0626                 0.1755

                     55                     56                     57
                      A                      A                      A
 Frequencies --   1445.2716              1492.0137              1496.1568
 Red. masses --      1.5921                 2.3756                 1.0982
 Frc consts  --      1.9593                 3.1158                 1.4484
 IR Inten    --      2.2771                 1.7138                 1.2852

                     58                     59                     60
                      A                      A                      A
 Frequencies --   1512.1184              1519.5761              1522.7135
 Red. masses --      1.1223                 1.1442                 1.1447
 Frc consts  --      1.5120                 1.5566                 1.5638
 IR Inten    --      3.2658                 7.6057                 2.4041

                     61                     62                     63
                      A                      A                      A
 Frequencies --   1538.6296              1564.2082              1700.2844
 Red. masses --      1.3519                 3.4054                 1.0814
 Frc consts  --      1.8856                 4.9091                 1.8420
 IR Inten    --      1.6278                 2.0349                12.5920

                     64                     65                     66
                      A                      A                      A
 Frequencies --   3037.4329              3051.1693              3078.3558
 Red. masses --      1.0639                 1.0623                 1.0993
 Frc consts  --      5.7831                 5.8269                 6.1378
 IR Inten    --     23.2181                31.4654                10.2682

                     67                     68                     69
                      A                      A                      A
 Frequencies --   3095.3075              3107.7640              3140.2734
 Red. masses --      1.0903                 1.0944                 1.0507
 Frc consts  --      6.1546                 6.2276                 6.1049
 IR Inten    --     10.9380                47.8806                25.0544

                     70                     71                     72
                      A                      A                      A
 Frequencies --   3144.2517              3149.1188              3213.8892
 Red. masses --      1.0610                 1.0864                 1.1192
 Frc consts  --      6.1803                 6.3475                 6.8110
 IR Inten    --     24.9799                10.1125                 0.4005

                     73                     74                     75
                      A                      A                      A
 Frequencies --   3228.4074              3290.4866              3393.3115
 Red. masses --      1.1158                 1.0980                 1.0696
 Frc consts  --      6.8517                 7.0042                 7.2560
 IR Inten    --     28.3987                 0.1972                14.9582

                     76                     77                     78
                      A                      A                      A
 Frequencies --   3411.8011              3547.8189              3666.5343
 Red. masses --      1.0586                 1.0883                 1.0823
 Frc consts  --      7.2603                 8.0707                 8.5728
 IR Inten    --      8.8000                 0.2716                92.6347

 - Thermochemistry -
 -------------------
 Temperature   298.150 Kelvin.  Pressure   1.00000 Atm.
 Atom     1 has atomic number  6 and mass  12.00000

 Molecular mass:   181.13275 amu.
 Principal axes and moments of inertia in atomic units:
                           1         2         3
     Eigenvalues --  1660.211113518.828734337.50401
           X            0.99968  -0.02511  -0.00140
           Y            0.02510   0.99967  -0.00509
           Z            0.00152   0.00506   0.99999
 This molecule is an asymmetric top.
 Rotational symmetry number  1.
 Warning -- assumption of classical behavior for rotation
           may cause significant error
 Rotational temperatures (Kelvin)      0.05217     0.02461     0.01997
 Rotational constants (GHZ):           1.08706     0.51288     0.41608
 Zero-point vibrational energy     639426.6 (Joules/Mol)
                                  152.82662 (Kcal/Mol)
 Warning -- explicit consideration of  17 degrees of freedom as
           vibrations may cause significant error
 Vibrational temperatures:     40.66    49.14    73.22   129.79   163.03
          (Kelvin)            203.41   262.51   299.01   343.08   416.50
                              444.29   530.19   559.23   655.21   711.70
                              739.78   804.56   965.05  1037.33  1093.37
                             1107.96  1141.72  1193.25  1212.46  1248.81
                             1265.89  1316.79  1364.21  1384.70  1435.91
                             1448.08  1483.17  1516.62  1535.87  1555.45
                             1585.14  1611.93  1652.06  1668.95  1672.85
                             1711.26  1728.54  1742.73  1750.12  1782.84
                             1803.62  1863.41  1909.26  1914.01  1950.36
                             1966.82  1988.45  2014.81  2058.29  2079.42
                             2146.67  2152.64  2175.60  2186.33  2190.85
                             2213.74  2250.55  2446.33  4370.19  4389.95
                             4429.07  4453.46  4471.38  4518.15  4523.88
                             4530.88  4624.07  4644.96  4734.28  4882.22
                             4908.82  5104.52  5275.33

 Zero-point correction=                           0.243545 (Hartree/Particle)
 Thermal correction to Energy=                    0.256497
 Thermal correction to Enthalpy=                  0.257441
 Thermal correction to Gibbs Free Energy=         0.202159
 Sum of electronic and zero-point Energies=           -587.333411
 Sum of electronic and thermal Energies=              -587.320458
 Sum of electronic and thermal Enthalpies=            -587.319514
 Sum of electronic and thermal Free Energies=         -587.374797

                     E (Thermal)             CV                S
                      KCal/Mol        Cal/Mol-Kelvin    Cal/Mol-Kelvin
 Total                  160.954             47.892            116.352
 Electronic               0.000              0.000              0.000
 Translational            0.889              2.981             41.489
 Rotational               0.889              2.981             31.605
 Vibrational            159.177             41.930             43.258
 Vibration     1          0.593              1.984              5.948
 Vibration     2          0.594              1.983              5.572
 Vibration     3          0.595              1.977              4.783
 Vibration     4          0.602              1.956              3.656
 Vibration     5          0.607              1.938              3.211
 Vibration     6          0.615              1.912              2.785
 Vibration     7          0.630              1.864              2.303
 Vibration     8          0.641              1.829              2.063
 Vibration     9          0.656              1.782              1.814
 Vibration    10          0.686              1.693              1.477
 Vibration    11          0.698              1.657              1.369
 Vibration    12          0.741              1.537              1.086
 Vibration    13          0.757              1.494              1.005
 Vibration    14          0.814              1.349              0.780
 Vibration    15          0.850              1.262              0.672
 Vibration    16          0.869              1.219              0.624
 Vibration    17          0.915              1.120              0.525

 Optimization completed.
    -- Stationary point found.

 1\1\GINC-NODE310\Freq\RB3LYP\6-31G(d)\C8H15N5\VSC10255\14-Dec-2020\0\\
 #N Geom=AllCheck Guess=TCheck SCRF=Check GenChk RB3LYP/6-31G(d) Freq\\
 CID_105254830_JID_3917_neutraal\\0,1\C,-0.0801808628,0.7372323258,0.08
 74083629\C,-0.8469482832,-0.5196640394,-0.2516197222\C,0.5925334034,-0
 .6103002175,0.1865036212\C,1.675222565,-0.9897348205,-0.8035799335\C,3
 .0254327002,-0.3073588651,-0.5383259377\C,3.5720830253,-0.5142648218,0
 .8795945557\C,3.73015762,-1.9690968452,1.247486534\N,4.1484764019,-2.8
 961404049,0.3710229442\N,4.2286278331,-4.0019710404,1.1086925581\N,3.8

 Normal termination of Gaussian 16 at Mon Dec 14 13:23:01 2020.

 ----------------------------------------------------------------------
 # B3LYP/6-311++G(d,p) empiricaldispersion=gd3bj scf=xqc pop=npa geom=c
 heck
 ----------------------------------------------------------------------

 ---------------------------------------
 CID_105254830_JID_3917_Energie_neutraal
 ---------------------------------------
 Structure from the checkpoint file:  "JID_3917.chk"
 Charge =  0 Multiplicity = 1

 SCF Done:  E(RB3LYP) =  -587.751891052     A.U. after   14 cycles
 Normal termination of Gaussian 16 at Mon Dec 14 13:25:37 2020.

 ----------------------------------------------------------------------
 # B3LYP/6-311++G(d,p) empiricaldispersion=gd3bj scf=xqc pop=npa geom=c
 heck
 ----------------------------------------------------------------------

 -------------------------------------
 CID_105254830_JID_3917_Energie_kation
 -------------------------------------
 Structure from the checkpoint file:  "JID_3917.chk"
 Charge =  1 Multiplicity = 2

 SCF Done:  E(UB3LYP) =  -587.430207599     A.U. after   32 cycles
 Normal termination of Gaussian 16 at Mon Dec 14 13:33:23 2020.
 Gaussian 16:  ES64L-G16RevA.03 25-Dec-2016

 ------------------------------------
 CID_105254830_JID_3917_Energie_anion
 ------------------------------------
 Structure from the checkpoint file:  "JID_3917.chk"
 Charge = -1 Multiplicity = 2

                         Standard orientation:
 ---------------------------------------------------------------------
 Center     Atomic      Atomic             Coordinates (Angstroms)
 Number     Number       Type             X           Y           Z
 ---------------------------------------------------------------------
      1          6           0        3.563696    0.452769   -0.656818
      2          6           0        3.791341   -1.030157   -0.478583
      3          6           0        2.401673   -0.460409   -0.350194
      4          6           0        1.721169   -0.390485    1.002018
      5          6           0        0.797246    0.824978    1.169591
      6          6           0       -0.274314    0.961074    0.080843
      7          6           0       -1.158676   -0.255953   -0.035852
      8          7           0       -1.566060   -0.959925    1.032347
      9          7           0       -2.377612   -1.875005    0.505608
     10          7           0       -2.543119   -1.841634   -0.814056
     11          6           0       -1.775711   -0.809027   -1.178501
     12          7           0       -1.046632    2.189172    0.333219
     13          7           0       -1.960960    2.430422   -0.742890
     14          1           0        3.649891    0.873963   -1.654469
     15          1           0        3.904515    1.116231    0.134443
     16          1           0        4.030440   -1.624141   -1.356346
     17          1           0        4.287800   -1.362616    0.429841
     18          1           0        1.732741   -0.670061   -1.183178
     19          1           0        1.151880   -1.311687    1.174680
     20          1           0        2.488565   -0.349350    1.786570
     21          1           0        0.306842    0.766083    2.149847
     22          1           0        1.385602    1.748909    1.155446
     23          1           0        0.207238    1.118659   -0.888178
     24          1           0       -2.826701   -2.575914    1.076745
     25          1           0       -1.697692   -0.505127   -2.211727
     26          1           0       -1.546802    2.066247    1.217915
     27          1           0       -2.840722    1.925724   -0.609471
     28          1           0       -2.171480    3.425135   -0.736742
 ---------------------------------------------------------------------

 SCF Done:  E(UB3LYP) =  -587.737141322     A.U. after   33 cycles
 SCF Done:  E(UB3LYP) =  -587.737141322     a.u. after    1 cycles

 The electronic state is 2-A.
 Alpha  occ. eigenvalues --  -14.31612 -14.25112 -14.24841 -14.22445 -14.21616
 Alpha  occ. eigenvalues --  -10.10570 -10.10151 -10.09843 -10.08581 -10.08211
 Alpha  occ. eigenvalues --  -10.08159 -10.07279 -10.06900  -1.00430  -0.86313
 Alpha  occ. eigenvalues --   -0.79522  -0.77220  -0.73674  -0.70018  -0.65303
 Alpha  occ. eigenvalues --   -0.57864  -0.54504  -0.52833  -0.51263  -0.48805
 Alpha  occ. eigenvalues --   -0.46094  -0.44828  -0.40938  -0.40556  -0.38942
 Alpha  occ. eigenvalues --   -0.37355  -0.36860  -0.35653  -0.35057  -0.33668
 Alpha  occ. eigenvalues --   -0.31829  -0.28817  -0.27932  -0.27105  -0.25579
 Alpha  occ. eigenvalues --   -0.24019  -0.22212  -0.20388  -0.20267  -0.19507
 Alpha  occ. eigenvalues --   -0.19119  -0.17378  -0.15805  -0.14014   0.04573
 Alpha virt. eigenvalues --    0.06293   0.06731   0.07373   0.08264   0.08325
 Alpha virt. eigenvalues --    0.09353   0.09521   0.10484   0.10988   0.11337
 Alpha virt. eigenvalues --    0.12040   0.12310   0.12931   0.13589   0.14354

  Beta  occ. eigenvalues --  -14.31551 -14.25106 -14.24825 -14.22428 -14.21568
  Beta  occ. eigenvalues --  -10.10569 -10.10152 -10.09836 -10.08578 -10.08198
  Beta  occ. eigenvalues --  -10.08148 -10.07270 -10.06894  -1.00387  -0.86265
  Beta  occ. eigenvalues --   -0.79496  -0.77209  -0.73608  -0.69949  -0.65252
  Beta  occ. eigenvalues --   -0.57806  -0.54456  -0.52797  -0.51223  -0.48766
  Beta  occ. eigenvalues --   -0.46050  -0.44781  -0.40894  -0.40502  -0.38890
  Beta  occ. eigenvalues --   -0.37322  -0.36812  -0.35614  -0.35020  -0.33648
  Beta  occ. eigenvalues --   -0.31808  -0.28792  -0.27915  -0.27088  -0.25563
  Beta  occ. eigenvalues --   -0.24002  -0.22190  -0.20372  -0.20235  -0.19483
  Beta  occ. eigenvalues --   -0.19105  -0.17347  -0.15757  -0.13985
  Beta virt. eigenvalues --    0.06445   0.07495   0.07559   0.08072   0.08310
  Beta virt. eigenvalues --    0.08892   0.09644   0.09751   0.10937   0.11109
  Beta virt. eigenvalues --    0.11611   0.12205   0.12526   0.13021   0.13644

 Mulliken charges and spin densities:
               1          2
     1  C   -0.038172  -0.481834
     2  C    0.310539  -0.652067
     3  C   -0.912067   0.946621
     4  C    0.377146  -0.643391
     5  C    0.128647  -0.663214
     6  C    0.907125  -1.186699
     7  C   -0.304244  -0.048375
     8  N    0.037560  -0.077220
     9  N    0.010282   0.047105
    10  N    0.028505  -0.108418
    11  C   -0.450947   0.195618
    12  N    0.069732   0.020343
    13  N   -0.377290  -0.079434
    14  H    0.002549   0.141708
    15  H    0.017518   0.112232
    16  H   -0.067213   0.203030
    17  H   -0.056397   0.181379
    18  H    0.103663   0.107104
    19  H    0.039271   0.118406
    20  H   -0.001127   0.158614
    21  H    0.032641   0.147243
    22  H    0.209769  -0.038973
    23  H    0.136413   0.103679
    24  H   -0.682886   1.044240
    25  H   -0.086030   0.265893
    26  H   -0.111090   0.346254
    27  H   -0.163586   0.406249
    28  H   -0.160311   0.433908
 Sum of Mulliken charges =  -1.00000   1.00000

 Dipole moment (field-independent basis, Debye):
    X=              6.0493    Y=              1.0951    Z=             -1.0564  Tot=              6.2378
 Quadrupole moment (field-independent basis, Debye-Ang):
   XX=           -146.8346   YY=           -133.6239   ZZ=           -109.6116
   XY=             -3.4228   XZ=              5.8620   YZ=              6.4760

 Summary of Natural Population Analysis:

                                       Natural Population
                Natural  -----------------------------------------------
    Atom  No    Charge         Core      Valence    Rydberg      Total
 -----------------------------------------------------------------------
      C    1   -0.20004      0.99962     2.19383    0.00659     3.20004
      C    2   -0.19594      0.99962     2.18963    0.00669     3.19594
      C    3   -0.11606      0.99959     2.10705    0.00942     3.11606
      C    4   -0.19013      0.99961     2.18233    0.00820     3.19013
      C    5   -0.18659      0.99961     2.17852    0.00846     3.18659
      C    6   -0.02922      0.99955     2.01415    0.01553     3.02922
      C    7    0.04039      0.99955     1.94226    0.01780     2.95961
      N    8   -0.14136      0.99970     2.62760    0.01406     3.64136
      N    9   -0.06756      0.99974     2.55087    0.01694     3.56756
      N   10   -0.13586      0.99974     2.62247    0.01365     3.63586
      C   11   -0.02927      0.99955     2.01606    0.01367     3.02927
      N   12   -0.24628      0.99974     2.73139    0.01516     3.74628
      N   13   -0.33296      0.99977     2.82045    0.01274     3.83296
      H   14    0.10105      0.00000     0.39783    0.00112     0.39895
      H   15    0.09934      0.00000     0.39947    0.00119     0.40066
      H   16    0.10035      0.00000     0.39854    0.00111     0.39965
      H   17    0.09888      0.00000     0.39988    0.00124     0.40112
      H   18    0.10392      0.00000     0.39470    0.00138     0.39608
      H   19    0.10599      0.00000     0.39257    0.00144     0.39401
      H   20    0.09573      0.00000     0.40294    0.00132     0.40427
      H   21    0.10206      0.00000     0.39656    0.00139     0.39794
      H   22    0.10128      0.00000     0.39719    0.00154     0.39872
      H   23    0.10262      0.00000     0.39446    0.00292     0.39738
      H   24    0.20643      0.00000     0.26617    0.02740     0.29357
      H   25    0.10531      0.00000     0.39360    0.00108     0.39469
      H   26    0.16260      0.00000     0.33343    0.00397     0.33740
      H   27    0.16901      0.00000     0.32747    0.00352     0.33099
      H   28    0.17631      0.00000     0.32087    0.00282     0.32369
 =======================================================================
   * Total *   -0.00000     12.99539    35.79229    0.21233    49.00000

 Normal termination of Gaussian 16 at Mon Dec 14 13:41:24 2020.
