 Gaussian 16, Revision A.03,

 -----------------------------------------------------------
 # opt freq B3LYP/6-31G(d) empiricaldispersion=gd3bj scf=xqc
 -----------------------------------------------------------

 -------------------------------
 CID_106908861_JID_9407_neutraal
 -------------------------------
 Symbolic Z-matrix:
 Charge =  0 Multiplicity = 1

 SCF Done:  E(RB3LYP) =  -862.068036594     A.U. after   15 cycles
 SCF Done:  E(RB3LYP) =  -862.067825571     A.U. after   13 cycles
 SCF Done:  E(RB3LYP) =  -862.073172516     A.U. after   13 cycles
 SCF Done:  E(RB3LYP) =  -862.074540905     A.U. after   12 cycles
 SCF Done:  E(RB3LYP) =  -862.075334236     A.U. after   13 cycles
 SCF Done:  E(RB3LYP) =  -862.075903156     A.U. after   12 cycles
 SCF Done:  E(RB3LYP) =  -862.076045392     A.U. after   12 cycles
 SCF Done:  E(RB3LYP) =  -862.076127921     A.U. after   12 cycles
 SCF Done:  E(RB3LYP) =  -862.076197977     A.U. after   11 cycles
 SCF Done:  E(RB3LYP) =  -862.076237691     A.U. after   12 cycles
 SCF Done:  E(RB3LYP) =  -862.076334084     A.U. after   11 cycles
 SCF Done:  E(RB3LYP) =  -862.076334827     A.U. after    9 cycles
 SCF Done:  E(RB3LYP) =  -862.076335098     A.U. after    8 cycles
 SCF Done:  E(RB3LYP) =  -862.076335186     A.U. after    7 cycles
 Optimization completed.
    -- Stationary point found.
 Normal termination of Gaussian 16 at Sat Dec 12 10:02:23 2020.

 --------------------------------------------------------------------
 #N Geom=AllCheck Guess=TCheck SCRF=Check GenChk RB3LYP/6-31G(d) Freq
 --------------------------------------------------------------------

 Structure from the checkpoint file:  "JID_9407.chk"
 -------------------------------
 CID_106908861_JID_9407_neutraal
 -------------------------------
 Charge =  0 Multiplicity = 1

 SCF Done:  E(RB3LYP) =  -862.076335186     A.U. after    1 cycles

  Exact polarizability: 173.854  11.224 170.144 -12.320   8.300 155.840
 Approx polarizability: 231.025  23.645 258.668 -25.794  18.645 253.542

                      1                      2                      3
                      A                      A                      A
 Frequencies --     21.0612                24.5284                31.8793
 Red. masses --      5.0251                 5.3814                 4.2599
 Frc consts  --      0.0013                 0.0019                 0.0026
 IR Inten    --      2.0576                 0.9451                 0.4272

                      4                      5                      6
                      A                      A                      A
 Frequencies --     43.1289                58.4031                66.9973
 Red. masses --      3.3761                 2.9572                 3.7258
 Frc consts  --      0.0037                 0.0059                 0.0099
 IR Inten    --      0.1518                 0.9394                 0.2372

                      7                      8                      9
                      A                      A                      A
 Frequencies --     84.3921               110.7398               135.9371
 Red. masses --      3.9995                 4.7540                 4.0922
 Frc consts  --      0.0168                 0.0343                 0.0446
 IR Inten    --      1.2383                 1.5948                 0.6294

                     10                     11                     12
                      A                      A                      A
 Frequencies --    138.8787               146.8880               194.9227
 Red. masses --      2.9668                 2.9760                 3.0927
 Frc consts  --      0.0337                 0.0378                 0.0692
 IR Inten    --      1.7471                 3.5455                 0.6519

                     13                     14                     15
                      A                      A                      A
 Frequencies --    204.1851               227.4733               232.8289
 Red. masses --      2.6746                 2.0863                 2.2271
 Frc consts  --      0.0657                 0.0636                 0.0711
 IR Inten    --      0.8509                 1.4158                12.8414

                     16                     17                     18
                      A                      A                      A
 Frequencies --    251.1426               270.9819               301.0537
 Red. masses --      2.4877                 1.4814                 1.9932
 Frc consts  --      0.0924                 0.0641                 0.1064
 IR Inten    --      4.9846                15.5016                 4.3629

                     19                     20                     21
                      A                      A                      A
 Frequencies --    311.9809               320.9482               367.6268
 Red. masses --      2.1026                 2.4190                 6.3528
 Frc consts  --      0.1206                 0.1468                 0.5059
 IR Inten    --      3.5061                 1.7927                15.2883

                     22                     23                     24
                      A                      A                      A
 Frequencies --    378.5136               419.0280               437.2201
 Red. masses --      1.8645                 2.5757                 3.1137
 Frc consts  --      0.1574                 0.2665                 0.3507
 IR Inten    --      0.8988                 0.3528                 0.9782

                     25                     26                     27
                      A                      A                      A
 Frequencies --    441.9332               486.6805               493.2768
 Red. masses --      3.1124                 3.4167                 2.3315
 Frc consts  --      0.3581                 0.4768                 0.3342
 IR Inten    --      0.6545                13.6069                 3.9556

                     28                     29                     30
                      A                      A                      A
 Frequencies --    536.2528               598.9758               606.4714
 Red. masses --      2.4604                 2.6632                 3.5077
 Frc consts  --      0.4169                 0.5629                 0.7601
 IR Inten    --      0.3917                56.5369                47.6941

                     31                     32                     33
                      A                      A                      A
 Frequencies --    648.6995               684.7636               708.5980
 Red. masses --      4.9334                 1.9993                 2.5915
 Frc consts  --      1.2232                 0.5523                 0.7667
 IR Inten    --      0.7002                78.5038                 2.8726

                     34                     35                     36
                      A                      A                      A
 Frequencies --    709.4157               748.6902               753.1431
 Red. masses --      1.9306                 1.6871                 4.6623
 Frc consts  --      0.5724                 0.5572                 1.5581
 IR Inten    --      9.4006                 2.1811                20.5919

                     37                     38                     39
                      A                      A                      A
 Frequencies --    775.8156               808.4869               820.0545
 Red. masses --      1.6429                 2.7563                 1.7736
 Frc consts  --      0.5826                 1.0615                 0.7027
 IR Inten    --     16.0752                 2.7862                 5.2452

                     40                     41                     42
                      A                      A                      A
 Frequencies --    829.9583               870.3761               901.6186
 Red. masses --      2.4697                 1.7637                 2.5644
 Frc consts  --      1.0023                 0.7872                 1.2282
 IR Inten    --     33.5347                 6.9358                31.8550

                     43                     44                     45
                      A                      A                      A
 Frequencies --    907.6768               923.1527               946.3201
 Red. masses --      1.8436                 1.5579                 1.6488
 Frc consts  --      0.8949                 0.7823                 0.8699
 IR Inten    --     94.9148                 2.4757                 9.7090

                     46                     47                     48
                      A                      A                      A
 Frequencies --    948.1033               974.7130               985.5872
 Red. masses --      2.1147                 1.6773                 1.9235
 Frc consts  --      1.1200                 0.9389                 1.1009
 IR Inten    --    104.3289                 6.4990                 6.9112

                     49                     50                     51
                      A                      A                      A
 Frequencies --   1000.8031              1014.8047              1034.5022
 Red. masses --      1.3056                 6.7796                 1.7759
 Frc consts  --      0.7705                 4.1136                 1.1198
 IR Inten    --      0.1103                 6.2046                 3.1430

                     52                     53                     54
                      A                      A                      A
 Frequencies --   1045.6660              1057.6003              1079.6216
 Red. masses --      1.8940                 1.7987                 1.5253
 Frc consts  --      1.2202                 1.1854                 1.0475
 IR Inten    --      0.9558                 1.4546                 1.6848

                     55                     56                     57
                      A                      A                      A
 Frequencies --   1112.1623              1117.7987              1138.5106
 Red. masses --      2.1418                 1.8211                 1.8501
 Frc consts  --      1.5609                 1.3406                 1.4129
 IR Inten    --     12.5022                10.8373                19.2729

                     58                     59                     60
                      A                      A                      A
 Frequencies --   1156.3753              1173.4304              1179.6188
 Red. masses --      2.2983                 2.6406                 2.1855
 Frc consts  --      1.8107                 2.1423                 1.7918
 IR Inten    --     15.1790                54.0612                15.9463

                     61                     62                     63
                      A                      A                      A
 Frequencies --   1199.0703              1222.9159              1232.5461
 Red. masses --      1.4993                 1.4048                 1.6176
 Frc consts  --      1.2701                 1.2378                 1.4479
 IR Inten    --      9.6608                 2.3727                 2.8750

                     64                     65                     66
                      A                      A                      A
 Frequencies --   1238.8541              1258.8615              1278.3950
 Red. masses --      1.7552                 3.0611                 1.2441
 Frc consts  --      1.5871                 2.8582                 1.1979
 IR Inten    --     19.2949                28.5259                 0.9733

                     67                     68                     69
                      A                      A                      A
 Frequencies --   1306.2589              1317.6273              1321.1322
 Red. masses --      1.2149                 2.7556                 1.5242
 Frc consts  --      1.2214                 2.8187                 1.5674
 IR Inten    --     11.8878                22.9056                 5.4703

                     70                     71                     72
                      A                      A                      A
 Frequencies --   1339.3353              1350.1935              1360.1252
 Red. masses --      1.1301                 1.1842                 1.1083
 Frc consts  --      1.1943                 1.2719                 1.2080
 IR Inten    --      1.6524                 4.4815                 1.6505

                     73                     74                     75
                      A                      A                      A
 Frequencies --   1380.9070              1382.2621              1390.2848
 Red. masses --      1.3698                 3.4948                 1.4981
 Frc consts  --      1.5389                 3.9341                 1.7060
 IR Inten    --     12.3207               211.6075                 1.9664

                     76                     77                     78
                      A                      A                      A
 Frequencies --   1401.6278              1418.6043              1420.2340
 Red. masses --      1.3557                 1.4766                 1.4575
 Frc consts  --      1.5692                 1.7508                 1.7321
 IR Inten    --      2.7407                13.1862                 9.2490

                     79                     80                     81
                      A                      A                      A
 Frequencies --   1425.4236              1441.1964              1442.6106
 Red. masses --      1.4311                 1.3640                 1.3075
 Frc consts  --      1.7132                 1.6692                 1.6032
 IR Inten    --      7.5308                16.0346                 1.0860

                     82                     83                     84
                      A                      A                      A
 Frequencies --   1450.0265              1483.3991              1494.6747
 Red. masses --      1.3269                 2.9464                 2.2222
 Frc consts  --      1.6437                 3.8200                 2.9251
 IR Inten    --      8.4479                24.9859                13.2728

                     85                     86                     87
                      A                      A                      A
 Frequencies --   1502.6045              1512.3028              1519.2401
 Red. masses --      1.0933                 1.1150                 1.0903
 Frc consts  --      1.4544                 1.5024                 1.4827
 IR Inten    --      5.8559                 0.6505                 2.8067

                     88                     89                     90
                      A                      A                      A
 Frequencies --   1522.1497              1530.8174              1533.0400
 Red. masses --      1.0662                 1.0849                 1.0612
 Frc consts  --      1.4555                 1.4980                 1.4694
 IR Inten    --      3.6628                 4.5031                 9.0632

                     91                     92                     93
                      A                      A                      A
 Frequencies --   1536.2225              1541.6264              1554.1395
 Red. masses --      1.0666                 1.0855                 1.0833
 Frc consts  --      1.4830                 1.5199                 1.5416
 IR Inten    --      5.4448                 7.0767                 0.2741

                     94                     95                     96
                      A                      A                      A
 Frequencies --   1634.5821              1643.1530              1727.4576
 Red. masses --      5.7188                 6.0405                 1.0672
 Frc consts  --      9.0025                 9.6091                 1.8764
 IR Inten    --     13.5113                42.8035                33.2632

                     97                     98                     99
                      A                      A                      A
 Frequencies --   1788.6203              2992.3790              3029.9125
 Red. masses --      9.4220                 1.0696                 1.0623
 Frc consts  --     17.7594                 5.6428                 5.7459
 IR Inten    --    267.4938                32.9839                24.7097

                    100                    101                    102
                      A                      A                      A
 Frequencies --   3033.2660              3035.4366              3039.5003
 Red. masses --      1.0667                 1.0631                 1.0644
 Frc consts  --      5.7823                 5.7713                 5.7938
 IR Inten    --     26.9183                16.1425                 4.1577

                    103                    104                    105
                      A                      A                      A
 Frequencies --   3043.8031              3049.4100              3055.8456
 Red. masses --      1.0430                 1.0660                 1.0907
 Frc consts  --      5.6933                 5.8401                 6.0008
 IR Inten    --     23.3591                37.8081                38.3325

                    106                    107                    108
                      A                      A                      A
 Frequencies --   3060.4631              3065.6327              3072.9692
 Red. masses --      1.0968                 1.0946                 1.0991
 Frc consts  --      6.0529                 6.0610                 6.1150
 IR Inten    --     32.2351                27.7727                58.5516

                    109                    110                    111
                      A                      A                      A
 Frequencies --   3081.4463              3091.2473              3107.2881
 Red. masses --      1.0706                 1.0903                 1.1018
 Frc consts  --      5.9893                 6.1383                 6.2679
 IR Inten    --     10.0964                94.7654                46.6289

                    112                    113                    114
                      A                      A                      A
 Frequencies --   3111.7693              3114.8169              3126.3125
 Red. masses --      1.0957                 1.1004                 1.1032
 Frc consts  --      6.2512                 6.2901                 6.3531
 IR Inten    --     52.4839                32.0423                20.2727

                    115                    116                    117
                      A                      A                      A
 Frequencies --   3188.8479              3200.2718              3212.8760
 Red. masses --      1.0870                 1.0911                 1.0974
 Frc consts  --      6.5125                 6.5838                 6.6740
 IR Inten    --      2.6154                12.5406                12.5930

                    118                    119                    120
                      A                      A                      A
 Frequencies --   3465.5367              3558.9889              3583.9009
 Red. masses --      1.0473                 1.0965                 1.0770
 Frc consts  --      7.4107                 8.1828                 8.1501
 IR Inten    --      1.9694                 0.8107                32.5539

 - Thermochemistry -
 -------------------
 Temperature   298.150 Kelvin.  Pressure   1.00000 Atm.
 Atom     1 has atomic number  6 and mass  12.00000

 Molecular mass:   265.17903 amu.
 Principal axes and moments of inertia in atomic units:
                           1         2         3
     Eigenvalues --  3883.399857585.134419010.41798
           X            0.99979  -0.02025   0.00139
           Y            0.02026   0.99977  -0.00646
           Z           -0.00125   0.00649   0.99998
 This molecule is an asymmetric top.
 Rotational symmetry number  1.
 Warning -- assumption of classical behavior for rotation
           may cause significant error
 Rotational temperatures (Kelvin)      0.02230     0.01142     0.00961
 Rotational constants (GHZ):           0.46473     0.23793     0.20029
 Zero-point vibrational energy     965535.0 (Joules/Mol)
                                  230.76839 (Kcal/Mol)
 Warning -- explicit consideration of  30 degrees of freedom as
           vibrations may cause significant error
 Vibrational temperatures:     30.30    35.29    45.87    62.05    84.03
          (Kelvin)             96.39   121.42   159.33   195.58   199.82
                              211.34   280.45   293.78   327.28   334.99
                              361.34   389.88   433.15   448.87   461.77
                              528.93   544.60   602.89   629.06   635.84
                              700.22   709.72   771.55   861.79   872.58
                              933.33   985.22  1019.51  1020.69  1077.20
                             1083.60  1116.23  1163.23  1179.88  1194.12
                             1252.28  1297.23  1305.94  1328.21  1361.54
                             1364.11  1402.39  1418.04  1439.93  1460.08
                             1488.42  1504.48  1521.65  1553.33  1600.15
                             1608.26  1638.06  1663.77  1688.30  1697.21
                             1725.19  1759.50  1773.36  1782.43  1811.22
                             1839.33  1879.42  1895.77  1900.81  1927.00
                             1942.63  1956.92  1986.82  1988.77  2000.31
                             2016.63  2041.06  2043.40  2050.87  2073.56
                             2075.59  2086.26  2134.28  2150.50  2161.91
                             2175.87  2185.85  2190.03  2202.50  2205.70
                             2210.28  2218.06  2236.06  2351.80  2364.13
                             2485.43  2573.43  4305.37  4359.37  4364.19
                             4367.32  4373.16  4379.35  4387.42  4396.68
                             4403.32  4410.76  4421.32  4433.51  4447.62
                             4470.69  4477.14  4481.53  4498.07  4588.04
                             4604.48  4622.61  4986.13  5120.59  5156.43

 Zero-point correction=                           0.367753 (Hartree/Particle)
 Thermal correction to Energy=                    0.387915
 Thermal correction to Enthalpy=                  0.388859
 Thermal correction to Gibbs Free Energy=         0.316495
 Sum of electronic and zero-point Energies=           -861.708582
 Sum of electronic and thermal Energies=              -861.688421
 Sum of electronic and thermal Enthalpies=            -861.687476
 Sum of electronic and thermal Free Energies=         -861.759841

                     E (Thermal)             CV                S
                      KCal/Mol        Cal/Mol-Kelvin    Cal/Mol-Kelvin
 Total                  243.420             74.619            152.303
 Electronic               0.000              0.000              0.000
 Translational            0.889              2.981             42.625
 Rotational               0.889              2.981             33.939
 Vibrational            241.643             68.658             75.739
 Vibration     1          0.593              1.985              6.532
 Vibration     2          0.593              1.985              6.229
 Vibration     3          0.594              1.983              5.709
 Vibration     4          0.595              1.980              5.110
 Vibration     5          0.596              1.974              4.510
 Vibration     6          0.598              1.970              4.240
 Vibration     7          0.601              1.960              3.786
 Vibration     8          0.607              1.941              3.256
 Vibration     9          0.614              1.917              2.860
 Vibration    10          0.614              1.914              2.819
 Vibration    11          0.617              1.906              2.712
 Vibration    12          0.636              1.847              2.180
 Vibration    13          0.640              1.834              2.095
 Vibration    14          0.651              1.799              1.899
 Vibration    15          0.654              1.791              1.857
 Vibration    16          0.663              1.761              1.723
 Vibration    17          0.675              1.727              1.590
 Vibration    18          0.693              1.672              1.411
 Vibration    19          0.700              1.651              1.352
 Vibration    20          0.706              1.633              1.305
 Vibration    21          0.740              1.539              1.090
 Vibration    22          0.749              1.516              1.045
 Vibration    23          0.782              1.429              0.895
 Vibration    24          0.798              1.389              0.835
 Vibration    25          0.802              1.379              0.821
 Vibration    26          0.843              1.280              0.692
 Vibration    27          0.849              1.265              0.675
 Vibration    28          0.891              1.170              0.573
 Vibration    29          0.957              1.034              0.451
 Vibration    30          0.965              1.018              0.439

                           ! Non-Optimized Parameters !
 Normal termination of Gaussian 16 at Sat Dec 12 10:24:49 2020.

 ----------------------------------------------------------------------
 # B3LYP/6-311++G(d,p) empiricaldispersion=gd3bj scf=xqc pop=npa geom=c
 heck
 ----------------------------------------------------------------------

 ---------------------------------------
 CID_106908861_JID_9407_Energie_neutraal
 ---------------------------------------
 Structure from the checkpoint file:  "JID_9407.chk"
 Charge =  0 Multiplicity = 1

 SCF Done:  E(RB3LYP) =  -862.326503026     A.U. after   16 cycles
 Normal termination of Gaussian 16 at Sat Dec 12 10:36:32 2020.

 ----------------------------------------------------------------------
 # B3LYP/6-311++G(d,p) empiricaldispersion=gd3bj scf=xqc pop=npa geom=c
 heck
 ----------------------------------------------------------------------

 -------------------------------------
 CID_106908861_JID_9407_Energie_kation
 -------------------------------------
 Structure from the checkpoint file:  "JID_9407.chk"
 Charge =  1 Multiplicity = 2

 SCF Done:  E(UB3LYP) =  -862.007931252     A.U. after   33 cycles
 SCF Done:  E(UB3LYP) =  -862.007931252     a.u. after    1 cycles
 Normal termination of Gaussian 16 at Sat Dec 12 11:09:45 2020.
 Gaussian 16:  ES64L-G16RevA.03 25-Dec-2016

 ----------------------------------------------------------------------
 # B3LYP/6-311++G(d,p) empiricaldispersion=gd3bj scf=xqc pop=npa geom=c
 heck
 ----------------------------------------------------------------------

 ------------------------------------
 CID_106908861_JID_9407_Energie_anion
 ------------------------------------
 Structure from the checkpoint file:  "JID_9407.chk"
 Charge = -1 Multiplicity = 2

                         Standard orientation:
 ---------------------------------------------------------------------
 Center     Atomic      Atomic             Coordinates (Angstroms)
 Number     Number       Type             X           Y           Z
 ---------------------------------------------------------------------
      1          6           0        4.629822   -1.958881    1.308616
      2          6           0        4.363231   -1.432797   -0.104953
      3          6           0        2.886179   -1.493286   -0.522117
      4          6           0        1.917644   -0.695932    0.365058
      5          6           0        2.248174    0.799175    0.514072
      6          6           0        2.353440    1.582439   -0.808644
      7          6           0        1.120233    1.574610   -1.722468
      8          8           0        0.167077    2.626966   -1.501150
      9          6           0       -0.302523    2.840991   -0.200330
     10          6           0       -1.056138    1.688701    0.446142
     11          7           0       -1.359978    0.633605   -0.312809
     12          6           0       -2.000903   -0.396549    0.255393
     13          6           0       -2.399651   -0.412256    1.592194
     14          6           0       -2.082745    0.693704    2.382641
     15          6           0       -1.393439    1.753938    1.806831
     16          6           0       -2.146184   -1.620566   -0.619406
     17          8           0       -1.171559   -2.180311   -1.097865
     18          7           0       -3.424547   -2.096227   -0.786516
     19          7           0       -4.597811   -1.321731   -0.656141
     20          1           0        4.133904   -1.345004    2.068791
     21          1           0        5.702004   -1.963002    1.535569
     22          1           0        4.259571   -2.985515    1.421201
     23          1           0        4.731541   -0.400746   -0.182859
     24          1           0        4.953831   -2.016738   -0.823334
     25          1           0        2.795597   -1.149553   -1.560952
     26          1           0        2.558204   -2.541457   -0.528104
     27          1           0        0.908244   -0.825650   -0.037495
     28          1           0        1.895632   -1.139039    1.369517
     29          1           0        1.496603    1.251283    1.170985
     30          1           0        3.204454    0.908513    1.043394
     31          1           0        2.635113    2.624990   -0.607515
     32          1           0        3.183719    1.160792   -1.389281
     33          1           0        1.436983    1.751075   -2.754695
     34          1           0        0.609137    0.608561   -1.687865
     35          1           0        0.505679    3.147147    0.484103
     36          1           0       -0.980895    3.700996   -0.278036
     37          1           0       -2.906156   -1.278405    2.007199
     38          1           0       -2.355785    0.717174    3.433800
     39          1           0       -1.109483    2.620739    2.397401
     40          1           0       -3.510722   -2.869513   -1.436160
     41          1           0       -4.811110   -1.203197    0.331054
     42          1           0       -4.446676   -0.395962   -1.054514
 ---------------------------------------------------------------------

 SCF Done:  E(UB3LYP) =  -862.327659430     A.U. after   33 cycles
 SCF Done:  E(UB3LYP) =  -862.327659430     a.u. after    1 cycles

 The electronic state is 2-A.
 Alpha  occ. eigenvalues --  -19.00572 -18.95847 -14.23724 -14.22994 -14.16122
 Alpha  occ. eigenvalues --  -10.13267 -10.10341 -10.09367 -10.07906 -10.07163
 Alpha  occ. eigenvalues --  -10.06954 -10.06193 -10.05971 -10.05822 -10.05574
 Alpha  occ. eigenvalues --  -10.05014 -10.04779 -10.04501 -10.03232  -0.91737
 Alpha  occ. eigenvalues --   -0.91634  -0.86033  -0.80663  -0.70800  -0.68235
 Alpha  occ. eigenvalues --   -0.67458  -0.66814  -0.65419  -0.62216  -0.59193
 Alpha  occ. eigenvalues --   -0.56074  -0.53088  -0.52009  -0.49277  -0.46787
 Alpha  occ. eigenvalues --   -0.46332  -0.43528  -0.41171  -0.40075  -0.38821
 Alpha  occ. eigenvalues --   -0.38218  -0.38069  -0.36204  -0.35885  -0.35093
 Alpha  occ. eigenvalues --   -0.34122  -0.32971  -0.32079  -0.31048  -0.30531
 Alpha  occ. eigenvalues --   -0.29608  -0.29303  -0.28538  -0.27627  -0.27390
 Alpha  occ. eigenvalues --   -0.26555  -0.25737  -0.25057  -0.24716  -0.24384
 Alpha  occ. eigenvalues --   -0.24081  -0.21615  -0.20758  -0.20554  -0.19209
 Alpha  occ. eigenvalues --   -0.18333  -0.16141  -0.14853  -0.14658  -0.13766
 Alpha  occ. eigenvalues --   -0.12351  -0.11315   0.04741
 Alpha virt. eigenvalues --    0.06143   0.07568   0.07917   0.08283   0.08881
 Alpha virt. eigenvalues --    0.09131   0.09511   0.09903   0.10194   0.10467
 Alpha virt. eigenvalues --    0.10796   0.11658   0.11879   0.12195   0.12680

  Beta  occ. eigenvalues --  -19.00570 -18.95667 -14.23709 -14.22960 -14.15878
  Beta  occ. eigenvalues --  -10.13154 -10.10334 -10.09364 -10.07967 -10.07159
  Beta  occ. eigenvalues --  -10.06945 -10.06191 -10.05821 -10.05661 -10.05573
  Beta  occ. eigenvalues --  -10.04891 -10.04791 -10.04500 -10.02932  -0.91702
  Beta  occ. eigenvalues --   -0.91374  -0.85872  -0.80205  -0.70794  -0.68091
  Beta  occ. eigenvalues --   -0.67445  -0.66368  -0.65164  -0.62136  -0.59071
  Beta  occ. eigenvalues --   -0.56005  -0.52748  -0.51767  -0.49233  -0.46510
  Beta  occ. eigenvalues --   -0.46214  -0.43502  -0.41060  -0.39999  -0.38795
  Beta  occ. eigenvalues --   -0.38179  -0.37945  -0.36181  -0.35812  -0.34822
  Beta  occ. eigenvalues --   -0.33949  -0.32826  -0.32045  -0.31013  -0.30443
  Beta  occ. eigenvalues --   -0.29446  -0.29107  -0.28422  -0.27471  -0.27161
  Beta  occ. eigenvalues --   -0.26158  -0.25550  -0.24881  -0.24678  -0.24015
  Beta  occ. eigenvalues --   -0.23770  -0.21598  -0.20750  -0.20548  -0.19162
  Beta  occ. eigenvalues --   -0.18243  -0.14876  -0.14688  -0.14261  -0.13339
  Beta  occ. eigenvalues --   -0.11483  -0.10797
  Beta virt. eigenvalues --    0.06233   0.07453   0.07862   0.08213   0.08935
  Beta virt. eigenvalues --    0.09143   0.09472   0.09836   0.10118   0.10418
  Beta virt. eigenvalues --    0.10511   0.10794   0.11620   0.11940   0.12238

 Mulliken charges and spin densities:
               1          2
     1  C   -0.256899  -0.370565
     2  C   -0.397855   0.175739
     3  C   -0.302432  -0.055128
     4  C   -0.105089  -0.104126
     5  C   -0.234514   0.063456
     6  C   -0.115737  -0.073584
     7  C   -0.661018   0.050972
     8  O   -0.071498  -0.001972
     9  C    0.115715  -0.456609
    10  C    0.520364  -0.390154
    11  N    0.108573   0.122334
    12  C   -0.053702   0.139210
    13  C   -0.296537   0.250700
    14  C    0.259715  -0.616731
    15  C   -0.989329   0.941128
    16  C   -0.275670   0.088081
    17  O   -0.348287   0.060432
    18  N   -0.343372   0.027686
    19  N   -0.233901  -0.044142
    20  H    0.078289   0.065233
    21  H   -0.056475   0.182369
    22  H    0.102804   0.026866
    23  H    0.111281   0.004819
    24  H    0.036332   0.103167
    25  H    0.145146   0.005893
    26  H    0.142801   0.025610
    27  H    0.419603  -0.124230
    28  H    0.112188   0.044457
    29  H    0.196056  -0.058447
    30  H    0.099079   0.060504
    31  H    0.156843   0.019418
    32  H    0.092706   0.016077
    33  H    0.113062   0.031159
    34  H    0.258684  -0.014327
    35  H    0.142428  -0.011614
    36  H    0.056533   0.114180
    37  H    0.005025   0.169482
    38  H   -0.016706   0.149064
    39  H   -0.110414   0.222618
    40  H    0.249901   0.046581
    41  H    0.180238   0.028375
    42  H    0.166072   0.086018
 Sum of Mulliken charges =  -1.00000   1.00000

 Dipole moment (field-independent basis, Debye):
    X=              2.7678    Y=              0.7790    Z=              0.4811  Tot=              2.9153
 Quadrupole moment (field-independent basis, Debye-Ang):
   XX=           -165.4328   YY=           -151.6261   ZZ=           -141.2522
   XY=              3.4498   XZ=             -3.6951   YZ=             -0.2484

 Summary of Natural Population Analysis:

                                       Natural Population
                Natural  -----------------------------------------------
    Atom  No    Charge         Core      Valence    Rydberg      Total
 -----------------------------------------------------------------------
      C    1   -0.28735      0.99967     2.28315    0.00453     3.28735
      C    2   -0.19240      0.99964     2.18544    0.00732     3.19240
      C    3   -0.18985      0.99963     2.18250    0.00772     3.18985
      C    4   -0.20268      0.99962     2.19452    0.00854     3.20268
      C    5   -0.19422      0.99962     2.18676    0.00783     3.19422
      C    6   -0.20951      0.99963     2.20271    0.00717     3.20951
      C    7   -0.01640      0.99956     2.00463    0.01220     3.01640
      O    8   -0.29816      0.99989     3.28911    0.00917     4.29816
      C    9   -0.01952      0.99953     2.00477    0.01522     3.01952
      C   10    0.07940      0.99953     1.90691    0.01416     2.92060
      N   11   -0.21366      0.99964     2.70210    0.01193     3.71366
      C   12    0.10618      0.99948     1.87786    0.01648     2.89382
      C   13   -0.13103      0.99952     2.12093    0.01059     3.13103
      C   14   -0.06642      0.99957     2.05675    0.01011     3.06642
      C   15   -0.07818      0.99951     2.06951    0.00917     3.07818
      C   16    0.34705      0.99962     1.63020    0.02312     2.65295
      O   17   -0.29982      0.99987     3.29404    0.00590     4.29982
      N   18   -0.24223      0.99966     2.72935    0.01322     3.74223
      N   19   -0.32087      0.99977     2.81051    0.01058     3.82087
      H   20    0.09779      0.00000     0.40112    0.00108     0.40221
      H   21    0.09439      0.00000     0.40451    0.00109     0.40561
      H   22    0.09465      0.00000     0.40415    0.00120     0.40535
      H   23    0.09153      0.00000     0.40699    0.00148     0.40847
      H   24    0.09112      0.00000     0.40748    0.00139     0.40888
      H   25    0.09500      0.00000     0.40384    0.00116     0.40500
      H   26    0.09820      0.00000     0.40063    0.00116     0.40180
      H   27    0.11958      0.00000     0.37762    0.00280     0.38042
      H   28    0.09418      0.00000     0.40474    0.00108     0.40582
      H   29    0.10329      0.00000     0.39531    0.00140     0.39671
      H   30    0.08938      0.00000     0.40954    0.00108     0.41062
      H   31    0.09658      0.00000     0.40215    0.00127     0.40342
      H   32    0.09640      0.00000     0.40215    0.00145     0.40360
      H   33    0.08298      0.00000     0.41590    0.00111     0.41702
      H   34    0.10257      0.00000     0.39588    0.00155     0.39743
      H   35    0.07676      0.00000     0.42186    0.00138     0.42324
      H   36    0.09316      0.00000     0.40557    0.00126     0.40684
      H   37    0.09732      0.00000     0.40166    0.00102     0.40268
      H   38    0.09295      0.00000     0.40616    0.00089     0.40705
      H   39    0.09249      0.00000     0.40646    0.00105     0.40751
      H   40    0.18104      0.00000     0.31566    0.00330     0.31896
      H   41    0.17245      0.00000     0.32527    0.00229     0.32755
      H   42    0.17582      0.00000     0.32225    0.00193     0.32418
 =======================================================================
   * Total *    0.00000     18.99298    52.76866    0.23836    72.00000

 Normal termination of Gaussian 16 at Sat Dec 12 11:44:02 2020.
