 Gaussian 16, Revision A.03,

 -----------------------------------------------------------
 # opt freq B3LYP/6-31G(d) empiricaldispersion=gd3bj scf=xqc
 -----------------------------------------------------------

 -------------------------------
 CID_129016982_JID_3619_neutraal
 -------------------------------
 Symbolic Z-matrix:
 Charge =  0 Multiplicity = 1

 SCF Done:  E(RB3LYP) =  -525.898072503     A.U. after   14 cycles
 SCF Done:  E(RB3LYP) =  -525.901257490     A.U. after   12 cycles
 SCF Done:  E(RB3LYP) =  -525.901846045     A.U. after   12 cycles
 SCF Done:  E(RB3LYP) =  -525.902502251     A.U. after   12 cycles
 SCF Done:  E(RB3LYP) =  -525.903002492     A.U. after   12 cycles
 SCF Done:  E(RB3LYP) =  -525.903428979     A.U. after   11 cycles
 SCF Done:  E(RB3LYP) =  -525.903536271     A.U. after   12 cycles
 SCF Done:  E(RB3LYP) =  -525.903726910     A.U. after   11 cycles
 SCF Done:  E(RB3LYP) =  -525.903813347     A.U. after   11 cycles
 SCF Done:  E(RB3LYP) =  -525.903868015     A.U. after   12 cycles
 SCF Done:  E(RB3LYP) =  -525.904002000     A.U. after    9 cycles
 SCF Done:  E(RB3LYP) =  -525.904003423     A.U. after    9 cycles
 SCF Done:  E(RB3LYP) =  -525.904003431     A.U. after    7 cycles
 SCF Done:  E(RB3LYP) =  -525.904003424     A.U. after    6 cycles
 SCF Done:  E(RB3LYP) =  -525.904003420     A.U. after    6 cycles
 Optimization completed.
    -- Stationary point found.
 Normal termination of Gaussian 16 at Mon Dec 14 18:50:49 2020.

 --------------------------------------------------------------------
 #N Geom=AllCheck Guess=TCheck SCRF=Check GenChk RB3LYP/6-31G(d) Freq
 --------------------------------------------------------------------

 Structure from the checkpoint file:  "JID_3619.chk"
 -------------------------------
 CID_129016982_JID_3619_neutraal
 -------------------------------
 Charge =  0 Multiplicity = 1

 SCF Done:  E(RB3LYP) =  -525.904003420     A.U. after    1 cycles

  Exact polarizability: 155.411   3.081 130.794  -3.702  -9.876 122.826
 Approx polarizability: 196.167   6.405 171.123  -7.844 -21.742 192.573

                      1                      2                      3
                      A                      A                      A
 Frequencies --     19.6907                29.8331                40.3111
 Red. masses --      3.8073                 2.4485                 3.1296
 Frc consts  --      0.0009                 0.0013                 0.0030
 IR Inten    --      0.1231                 0.0028                 0.0684

                      4                      5                      6
                      A                      A                      A
 Frequencies --     60.2500                73.8691                94.5488
 Red. masses --      2.6147                 2.8755                 1.9303
 Frc consts  --      0.0056                 0.0092                 0.0102
 IR Inten    --      0.4541                 0.8753                 0.2058

                      7                      8                      9
                      A                      A                      A
 Frequencies --    113.9184               130.0571               135.8517
 Red. masses --      1.7611                 2.7007                 1.5561
 Frc consts  --      0.0135                 0.0269                 0.0169
 IR Inten    --      0.4594                 1.7905                 0.7650

                     10                     11                     12
                      A                      A                      A
 Frequencies --    175.7763               204.5815               233.0474
 Red. masses --      2.3217                 1.5487                 1.2326
 Frc consts  --      0.0423                 0.0382                 0.0394
 IR Inten    --      0.8099                 0.1574                 1.5164

                     13                     14                     15
                      A                      A                      A
 Frequencies --    250.8823               259.8109               304.1194
 Red. masses --      1.8110                 2.7058                 1.9135
 Frc consts  --      0.0672                 0.1076                 0.1043
 IR Inten    --      2.4363                 2.0398                 1.4100

                     16                     17                     18
                      A                      A                      A
 Frequencies --    338.1901               363.7456               370.8853
 Red. masses --      2.1139                 1.5066                 1.9163
 Frc consts  --      0.1424                 0.1174                 0.1553
 IR Inten    --     13.9074                34.3080                38.2373

                     19                     20                     21
                      A                      A                      A
 Frequencies --    412.3135               430.7461               467.0555
 Red. masses --      2.1985                 2.3756                 2.3667
 Frc consts  --      0.2202                 0.2597                 0.3042
 IR Inten    --      2.9476                 0.2199                20.7426

                     22                     23                     24
                      A                      A                      A
 Frequencies --    486.8738               513.9237               597.6366
 Red. masses --      2.0211                 2.3700                 2.5854
 Frc consts  --      0.2823                 0.3688                 0.5441
 IR Inten    --      7.4509                 2.4223                 0.4716

                     25                     26                     27
                      A                      A                      A
 Frequencies --    605.1171               689.5875               767.6422
 Red. masses --      2.8328                 1.6986                 1.6079
 Frc consts  --      0.6111                 0.4759                 0.5582
 IR Inten    --      7.6725                 5.7310                 9.0710

                     28                     29                     30
                      A                      A                      A
 Frequencies --    786.7478               799.7241               822.8187
 Red. masses --      1.4218                 1.2763                 1.4533
 Frc consts  --      0.5185                 0.4809                 0.5797
 IR Inten    --      1.1951                 7.9265                16.4557

                     31                     32                     33
                      A                      A                      A
 Frequencies --    849.0502               870.2534               910.2538
 Red. masses --      1.8591                 2.5186                 2.1113
 Frc consts  --      0.7896                 1.1238                 1.0307
 IR Inten    --      3.4580                 2.1770                 4.3744

                     34                     35                     36
                      A                      A                      A
 Frequencies --    941.0585               946.5658               961.7523
 Red. masses --      1.3627                 1.9530                 1.7748
 Frc consts  --      0.7110                 1.0310                 0.9672
 IR Inten    --     30.4504                 9.2104                 4.4779

                     37                     38                     39
                      A                      A                      A
 Frequencies --    986.3489              1022.1467              1039.6789
 Red. masses --      1.8026                 1.4330                 1.8052
 Frc consts  --      1.0333                 0.8821                 1.1497
 IR Inten    --      1.1509                 2.8259                 3.7321

                     40                     41                     42
                      A                      A                      A
 Frequencies --   1055.2960              1061.5466              1067.8168
 Red. masses --      1.3950                 1.4176                 1.6619
 Frc consts  --      0.9153                 0.9412                 1.1165
 IR Inten    --      3.5188                 7.8062                 3.8928

                     43                     44                     45
                      A                      A                      A
 Frequencies --   1080.4594              1094.5054              1102.6480
 Red. masses --      1.4745                 1.7847                 2.0966
 Frc consts  --      1.0142                 1.2597                 1.5019
 IR Inten    --      0.4138                 2.3784                15.7635

                     46                     47                     48
                      A                      A                      A
 Frequencies --   1130.0916              1159.1768              1170.5548
 Red. masses --      1.7129                 2.1582                 2.1742
 Frc consts  --      1.2889                 1.7086                 1.7552
 IR Inten    --      4.3902                 6.3464                 3.3138

                     49                     50                     51
                      A                      A                      A
 Frequencies --   1195.6132              1251.0491              1275.1545
 Red. masses --      2.1869                 1.4777                 1.3834
 Frc consts  --      1.8419                 1.3626                 1.3253
 IR Inten    --     11.5283                 3.4985                10.3183

                     52                     53                     54
                      A                      A                      A
 Frequencies --   1284.0771              1317.7408              1320.8037
 Red. masses --      1.6634                 1.1574                 1.4901
 Frc consts  --      1.6160                 1.1841                 1.5316
 IR Inten    --     59.6027                 2.6596                61.5448

                     55                     56                     57
                      A                      A                      A
 Frequencies --   1338.3498              1351.3545              1361.6148
 Red. masses --      1.2599                 1.2979                 1.3335
 Frc consts  --      1.3296                 1.3965                 1.4566
 IR Inten    --      1.3921                 4.3607                 7.7739

                     58                     59                     60
                      A                      A                      A
 Frequencies --   1375.6643              1385.5561              1397.8799
 Red. masses --      1.3903                 1.4820                 1.3400
 Frc consts  --      1.5502                 1.6762                 1.5428
 IR Inten    --      5.5928                 5.9916                 6.0402

                     61                     62                     63
                      A                      A                      A
 Frequencies --   1411.8838              1423.4005              1432.7118
 Red. masses --      1.2682                 1.3088                 1.2260
 Frc consts  --      1.4895                 1.5623                 1.4827
 IR Inten    --      5.8416                 2.5316                 1.8606

                     64                     65                     66
                      A                      A                      A
 Frequencies --   1443.6906              1444.2258              1477.0938
 Red. masses --      1.3514                 1.3273                 1.1846
 Frc consts  --      1.6595                 1.6311                 1.5227
 IR Inten    --     15.6818                 8.8032                 1.9588

                     67                     68                     69
                      A                      A                      A
 Frequencies --   1511.2951              1511.9920              1512.7063
 Red. masses --      1.0831                 1.0878                 1.0698
 Frc consts  --      1.4575                 1.4651                 1.4424
 IR Inten    --     12.1241                 0.7228                 5.0657

                     70                     71                     72
                      A                      A                      A
 Frequencies --   1514.1596              1519.7012              1525.2439
 Red. masses --      1.0670                 1.1152                 1.0455
 Frc consts  --      1.4413                 1.5175                 1.4331
 IR Inten    --      8.3782                22.1591                 3.7799

                     73                     74                     75
                      A                      A                      A
 Frequencies --   1528.5608              1532.5994              1538.8778
 Red. masses --      1.0670                 1.0461                 1.1168
 Frc consts  --      1.4689                 1.4477                 1.5583
 IR Inten    --      9.8906                 1.3675                33.6114

                     76                     77                     78
                      A                      A                      A
 Frequencies --   1541.0738              1550.9827              1735.2697
 Red. masses --      1.0728                 1.3269                 4.4454
 Frc consts  --      1.5012                 1.8806                 7.8867
 IR Inten    --      3.6970                71.0887                 6.2486

                     79                     80                     81
                      A                      A                      A
 Frequencies --   1739.0824              3023.2175              3023.6541
 Red. masses --      5.5974                 1.0676                 1.0685
 Frc consts  --      9.9741                 5.7489                 5.7556
 IR Inten    --    101.2815                18.1404                50.5283

                     82                     83                     84
                      A                      A                      A
 Frequencies --   3027.3594              3033.1705              3039.4722
 Red. masses --      1.0746                 1.0461                 1.0362
 Frc consts  --      5.8028                 5.6705                 5.6403
 IR Inten    --     12.3952                36.5299                43.5874

                     85                     86                     87
                      A                      A                      A
 Frequencies --   3040.3929              3043.2834              3052.0797
 Red. masses --      1.0653                 1.0639                 1.0383
 Frc consts  --      5.8020                 5.8055                 5.6986
 IR Inten    --     26.6667                31.1416                39.5833

                     88                     89                     90
                      A                      A                      A
 Frequencies --   3074.7581              3076.3642              3077.5891
 Red. masses --      1.0950                 1.0925                 1.0992
 Frc consts  --      6.0992                 6.0919                 6.1342
 IR Inten    --     39.7316                15.4049                 5.6343

                     91                     92                     93
                      A                      A                      A
 Frequencies --   3081.4157              3091.3132              3106.2901
 Red. masses --      1.0974                 1.1018                 1.1015
 Frc consts  --      6.1392                 6.2036                 6.2621
 IR Inten    --     20.4574                54.1802                59.2303

                     94                     95                     96
                      A                      A                      A
 Frequencies --   3115.2377              3115.6096              3124.5008
 Red. masses --      1.1016                 1.1030                 1.1025
 Frc consts  --      6.2989                 6.3083                 6.3417
 IR Inten    --     48.5612                44.5532                37.6189

                     97                     98                     99
                      A                      A                      A
 Frequencies --   3150.5855              3158.5014              3171.8952
 Red. masses --      1.0616                 1.0892                 1.0864
 Frc consts  --      6.2086                 6.4019                 6.4399
 IR Inten    --     18.3510                 3.8628                22.9039

                    100                    101                    102
                      A                      A                      A
 Frequencies --   3174.7936              3233.5558              3601.8399
 Red. masses --      1.0933                 1.1152                 1.0761
 Frc consts  --      6.4928                 6.8701                 8.2251
 IR Inten    --     26.8237                18.9686                 9.2085

 - Thermochemistry -
 -------------------
 Temperature   298.150 Kelvin.  Pressure   1.00000 Atm.
 Atom     1 has atomic number  6 and mass  12.00000

 Molecular mass:   181.18305 amu.
 Principal axes and moments of inertia in atomic units:
                           1         2         3
     Eigenvalues --  2214.477543916.195404992.57992
           X            0.99989   0.01471  -0.00286
           Y           -0.01470   0.99989   0.00251
           Z            0.00290  -0.00247   0.99999
 This molecule is an asymmetric top.
 Rotational symmetry number  1.
 Warning -- assumption of classical behavior for rotation
           may cause significant error
 Rotational temperatures (Kelvin)      0.03911     0.02212     0.01735
 Rotational constants (GHZ):           0.81497     0.46084     0.36148
 Zero-point vibrational energy     869775.1 (Joules/Mol)
                                  207.88125 (Kcal/Mol)
 Warning -- explicit consideration of  25 degrees of freedom as
           vibrations may cause significant error
 Vibrational temperatures:     28.33    42.92    58.00    86.69   106.28
          (Kelvin)            136.03   163.90   187.12   195.46   252.90
                              294.35   335.30   360.96   373.81   437.56
                              486.58   523.35   533.62   593.23   619.75
                              671.99   700.50   739.42   859.87   870.63
                              992.16  1104.47  1131.95  1150.62  1183.85
                             1221.59  1252.10  1309.65  1353.97  1361.90
                             1383.75  1419.14  1470.64  1495.87  1518.34
                             1527.33  1536.35  1554.54  1574.75  1586.46
                             1625.95  1667.80  1684.17  1720.22  1799.98
                             1834.66  1847.50  1895.94  1900.34  1925.59
                             1944.30  1959.06  1979.27  1993.51  2011.24
                             2031.39  2047.96  2061.35  2077.15  2077.92
                             2125.21  2174.42  2175.42  2176.45  2178.54
                             2186.51  2194.49  2199.26  2205.07  2214.10
                             2217.26  2231.52  2496.67  2502.15  4349.74
                             4350.36  4355.70  4364.06  4373.12  4374.45
                             4378.61  4391.26  4423.89  4426.20  4427.96
                             4433.47  4447.71  4469.26  4482.13  4482.67
                             4495.46  4532.99  4544.38  4563.65  4567.82
                             4652.37  5182.24

 Zero-point correction=                           0.331280 (Hartree/Particle)
 Thermal correction to Energy=                    0.348132
 Thermal correction to Enthalpy=                  0.349077
 Thermal correction to Gibbs Free Energy=         0.284931
 Sum of electronic and zero-point Energies=           -525.572724
 Sum of electronic and thermal Energies=              -525.555871
 Sum of electronic and thermal Enthalpies=            -525.554927
 Sum of electronic and thermal Free Energies=         -525.619073

                     E (Thermal)             CV                S
                      KCal/Mol        Cal/Mol-Kelvin    Cal/Mol-Kelvin
 Total                  218.456             60.717            135.007
 Electronic               0.000              0.000              0.000
 Translational            0.889              2.981             41.490
 Rotational               0.889              2.981             32.138
 Vibrational            216.679             54.755             61.380
 Vibration     1          0.593              1.986              6.665
 Vibration     2          0.594              1.984              5.840
 Vibration     3          0.594              1.981              5.244
 Vibration     4          0.597              1.973              4.449
 Vibration     5          0.599              1.966              4.048
 Vibration     6          0.603              1.953              3.564
 Vibration     7          0.607              1.938              3.201
 Vibration     8          0.612              1.923              2.945
 Vibration     9          0.614              1.918              2.861
 Vibration    10          0.628              1.872              2.373
 Vibration    11          0.640              1.833              2.091
 Vibration    12          0.654              1.790              1.855
 Vibration    13          0.663              1.761              1.724
 Vibration    14          0.668              1.746              1.663
 Vibration    15          0.695              1.666              1.394
 Vibration    16          0.718              1.599              1.221
 Vibration    17          0.737              1.547              1.106
 Vibration    18          0.743              1.532              1.076
 Vibration    19          0.776              1.443              0.918
 Vibration    20          0.792              1.403              0.856
 Vibration    21          0.824              1.323              0.746
 Vibration    22          0.843              1.279              0.692
 Vibration    23          0.869              1.219              0.624
 Vibration    24          0.956              1.037              0.454
 Vibration    25          0.964              1.021              0.441

                           ! Non-Optimized Parameters !
 Normal termination of Gaussian 16 at Mon Dec 14 19:00:32 2020.

 ----------------------------------------------------------------------
 # B3LYP/6-311++G(d,p) empiricaldispersion=gd3bj scf=xqc pop=npa geom=c
 heck
 ----------------------------------------------------------------------

 ---------------------------------------
 CID_129016982_JID_3619_Energie_neutraal
 ---------------------------------------
 Structure from the checkpoint file:  "JID_3619.chk"
 Charge =  0 Multiplicity = 1

 SCF Done:  E(RB3LYP) =  -526.056145362     A.U. after   15 cycles
 Normal termination of Gaussian 16 at Mon Dec 14 19:05:56 2020.

 ----------------------------------------------------------------------
 # B3LYP/6-311++G(d,p) empiricaldispersion=gd3bj scf=xqc pop=npa geom=c
 heck
 ----------------------------------------------------------------------

 -------------------------------------
 CID_129016982_JID_3619_Energie_kation
 -------------------------------------
 Structure from the checkpoint file:  "JID_3619.chk"
 Charge =  1 Multiplicity = 2

 SCF Done:  E(UB3LYP) =  -525.796047098     A.U. after   20 cycles
 Normal termination of Gaussian 16 at Mon Dec 14 19:16:13 2020.
 Gaussian 16:  ES64L-G16RevA.03 25-Dec-2016

 ----------------------------------------------------------------------
 # B3LYP/6-311++G(d,p) empiricaldispersion=gd3bj scf=xqc pop=npa geom=c
 heck
 ----------------------------------------------------------------------

 ------------------------------------
 CID_129016982_JID_3619_Energie_anion
 ------------------------------------
 Structure from the checkpoint file:  "JID_3619.chk"
 Charge = -1 Multiplicity = 2

                         Standard orientation:
 ---------------------------------------------------------------------
 Center     Atomic      Atomic             Coordinates (Angstroms)
 Number     Number       Type             X           Y           Z
 ---------------------------------------------------------------------
      1          6           0        4.292595    0.297373   -0.887870
      2          6           0        3.101080    1.222931   -0.586573
      3          6           0        1.807115    0.472362   -0.419512
      4          6           0        1.179429    0.184494    0.740556
      5          6           0        1.677691    0.592867    2.104693
      6          7           0        0.003164   -0.565200    0.818783
      7          6           0       -0.863509   -0.805023   -0.330340
      8          6           0       -0.557981   -2.164993   -0.989571
      9          6           0       -0.790039   -3.374007   -0.081402
     10          6           0       -2.336369   -0.651224    0.073177
     11          6           0       -2.695729    0.739749    0.641111
     12          6           0       -2.246545    1.881939   -0.229231
     13          6           0       -3.065304    2.669894   -0.926196
     14          1           0        4.466210   -0.391051   -0.053160
     15          1           0        5.212706    0.868974   -1.061654
     16          1           0        4.099019   -0.310281   -1.779808
     17          1           0        3.330244    1.827315    0.298209
     18          1           0        2.995795    1.939633   -1.413807
     19          1           0        1.391477    0.077192   -1.343470
     20          1           0        0.947630    1.240076    2.610641
     21          1           0        1.818695   -0.293615    2.736067
     22          1           0        2.626505    1.126829    2.060269
     23          1           0       -0.478218   -0.481640    1.702853
     24          1           0       -0.654506   -0.028627   -1.078140
     25          1           0       -1.161349   -2.253842   -1.903603
     26          1           0        0.491928   -2.151710   -1.306075
     27          1           0       -1.849713   -3.505011    0.165800
     28          1           0       -0.449585   -4.296517   -0.563913
     29          1           0       -0.233872   -3.256186    0.854730
     30          1           0       -2.949906   -0.841920   -0.815437
     31          1           0       -2.606054   -1.416971    0.812671
     32          1           0       -3.781497    0.788822    0.787609
     33          1           0       -2.244254    0.852711    1.637220
     34          1           0       -1.170640    2.048357   -0.285067
     35          1           0       -2.691867    3.477353   -1.550175
     36          1           0       -4.145497    2.538344   -0.896296
 ---------------------------------------------------------------------

 SCF Done:  E(UB3LYP) =  -526.041213500     A.U. after   33 cycles
 SCF Done:  E(UB3LYP) =  -526.041213500     a.u. after    1 cycles

 The electronic state is 2-A.
 Alpha  occ. eigenvalues --  -14.21088 -10.10291 -10.10263 -10.07938 -10.07428
 Alpha  occ. eigenvalues --  -10.07228 -10.06931 -10.06928 -10.06600 -10.06436
 Alpha  occ. eigenvalues --  -10.06155 -10.05580 -10.04320  -0.82949  -0.71862
 Alpha  occ. eigenvalues --   -0.69423  -0.67786  -0.64266  -0.63027  -0.58810
 Alpha  occ. eigenvalues --   -0.57484  -0.52825  -0.51661  -0.48330  -0.45508
 Alpha  occ. eigenvalues --   -0.42960  -0.39883  -0.38505  -0.37979  -0.35926
 Alpha  occ. eigenvalues --   -0.34138  -0.33729  -0.32963  -0.32293  -0.31713
 Alpha  occ. eigenvalues --   -0.31549  -0.29559  -0.28393  -0.28380  -0.27751
 Alpha  occ. eigenvalues --   -0.27019  -0.25989  -0.24903  -0.24663  -0.24596
 Alpha  occ. eigenvalues --   -0.24051  -0.22611  -0.21943  -0.19034  -0.16849
 Alpha  occ. eigenvalues --   -0.09344   0.04429
 Alpha virt. eigenvalues --    0.06330   0.07055   0.07099   0.07999   0.08627
 Alpha virt. eigenvalues --    0.08884   0.09154   0.09354   0.09915   0.10261
 Alpha virt. eigenvalues --    0.10839   0.11453   0.11664   0.12106   0.12567

  Beta  occ. eigenvalues --  -14.21068 -10.10283 -10.10261 -10.07927 -10.07403
  Beta  occ. eigenvalues --  -10.07206 -10.06918 -10.06904 -10.06593 -10.06394
  Beta  occ. eigenvalues --  -10.06136 -10.05552 -10.04319  -0.82919  -0.71830
  Beta  occ. eigenvalues --   -0.69392  -0.67761  -0.64230  -0.62980  -0.58769
  Beta  occ. eigenvalues --   -0.57430  -0.52767  -0.51607  -0.48282  -0.45452
  Beta  occ. eigenvalues --   -0.42920  -0.39857  -0.38464  -0.37950  -0.35889
  Beta  occ. eigenvalues --   -0.34110  -0.33701  -0.32922  -0.32263  -0.31677
  Beta  occ. eigenvalues --   -0.31515  -0.29512  -0.28356  -0.28338  -0.27717
  Beta  occ. eigenvalues --   -0.26982  -0.25956  -0.24878  -0.24636  -0.24568
  Beta  occ. eigenvalues --   -0.24023  -0.22589  -0.21911  -0.19002  -0.16768
  Beta  occ. eigenvalues --   -0.09331
  Beta virt. eigenvalues --    0.06381   0.07005   0.07428   0.07737   0.08357
  Beta virt. eigenvalues --    0.08860   0.09149   0.09334   0.09784   0.10296
  Beta virt. eigenvalues --    0.10626   0.11265   0.11727   0.11897   0.12398

 Mulliken charges and spin densities:
               1          2
     1  C    0.250631  -0.896088
     2  C   -1.114609   0.883878
     3  C    0.916101  -0.311968
     4  C   -1.522817   0.789168
     5  C    1.987695  -2.711073
     6  N    0.047798   0.145090
     7  C   -0.460987   0.526669
     8  C   -0.880171   0.733275
     9  C    0.694541  -1.315742
    10  C    0.529330  -0.868126
    11  C    0.841684  -1.457364
    12  C   -0.963618   1.378406
    13  C    0.513418  -1.083789
    14  H    0.036373   0.104952
    15  H   -0.166284   0.285575
    16  H   -0.019024   0.149530
    17  H   -0.096319   0.245883
    18  H    0.031412   0.093963
    19  H    0.160204   0.009000
    20  H   -0.244532   0.395037
    21  H   -0.375057   0.545372
    22  H   -0.148882   0.270459
    23  H    0.201225   0.077278
    24  H    0.042098   0.048598
    25  H   -0.083334   0.206696
    26  H    0.105948   0.019646
    27  H   -0.211204   0.351013
    28  H   -0.131994   0.278299
    29  H   -0.146327   0.300564
    30  H    0.145054  -0.008255
    31  H   -0.211344   0.365773
    32  H   -0.502162   0.687779
    33  H   -0.142459   0.275965
    34  H   -0.017078   0.192720
    35  H    0.022557   0.081850
    36  H   -0.087867   0.209965
 Sum of Mulliken charges =  -1.00000   1.00000

 Dipole moment (field-independent basis, Debye):
    X=              0.4230    Y=              1.0720    Z=             -4.3799  Tot=              4.5290
 Quadrupole moment (field-independent basis, Debye-Ang):
   XX=           -157.1699   YY=           -134.8522   ZZ=           -126.5159
   XY=             -2.3219   XZ=              2.6665   YZ=              0.4885

 Summary of Natural Population Analysis:

                                       Natural Population
                Natural  -----------------------------------------------
    Atom  No    Charge         Core      Valence    Rydberg      Total
 -----------------------------------------------------------------------
      C    1   -0.28063      0.99966     2.27660    0.00436     3.28063
      C    2   -0.19877      0.99963     2.19060    0.00854     3.19877
      C    3   -0.16110      0.99947     2.15268    0.00894     3.16110
      C    4    0.10288      0.99947     1.88567    0.01197     2.89712
      C    5   -0.30182      0.99962     2.29591    0.00628     3.30182
      N    6   -0.32844      0.99966     2.81559    0.01320     3.82844
      C    7   -0.01268      0.99958     2.00024    0.01286     3.01268
      C    8   -0.18857      0.99961     2.18060    0.00836     3.18857
      C    9   -0.28985      0.99966     2.28533    0.00485     3.28985
      C   10   -0.18792      0.99960     2.17935    0.00897     3.18792
      C   11   -0.20871      0.99961     2.19795    0.01115     3.20871
      C   12   -0.08133      0.99956     2.07072    0.01105     3.08133
      C   13   -0.19464      0.99956     2.18878    0.00630     3.19464
      H   14    0.09713      0.00000     0.40152    0.00136     0.40287
      H   15    0.09242      0.00000     0.40621    0.00138     0.40758
      H   16    0.09318      0.00000     0.40536    0.00146     0.40682
      H   17    0.09567      0.00000     0.40299    0.00134     0.40433
      H   18    0.09310      0.00000     0.40580    0.00111     0.40690
      H   19    0.09251      0.00000     0.40607    0.00142     0.40749
      H   20    0.10299      0.00000     0.39546    0.00155     0.39701
      H   21    0.10726      0.00000     0.39117    0.00157     0.39274
      H   22    0.10516      0.00000     0.39378    0.00105     0.39484
      H   23    0.18740      0.00000     0.30836    0.00424     0.31260
      H   24    0.09529      0.00000     0.40179    0.00292     0.40471
      H   25    0.09224      0.00000     0.40683    0.00093     0.40776
      H   26    0.09832      0.00000     0.40037    0.00131     0.40168
      H   27    0.09574      0.00000     0.40311    0.00115     0.40426
      H   28    0.09703      0.00000     0.40216    0.00081     0.40297
      H   29    0.10366      0.00000     0.39499    0.00136     0.39634
      H   30    0.09964      0.00000     0.39912    0.00123     0.40036
      H   31    0.10201      0.00000     0.39622    0.00177     0.39799
      H   32    0.10121      0.00000     0.39732    0.00147     0.39879
      H   33    0.10207      0.00000     0.39569    0.00224     0.39793
      H   34    0.09759      0.00000     0.40090    0.00151     0.40241
      H   35    0.09122      0.00000     0.40786    0.00092     0.40878
      H   36    0.08874      0.00000     0.41007    0.00118     0.41126
 =======================================================================
   * Total *    0.00000     12.99471    37.85317    0.15212    51.00000

 Normal termination of Gaussian 16 at Mon Dec 14 19:31:39 2020.
