 Gaussian 16, Revision A.03,

 -----------------------------------------------------------
 # opt freq B3LYP/6-31G(d) empiricaldispersion=gd3bj scf=xqc
 -----------------------------------------------------------

 -------------------------------
 CID_151977363_JID_7901_neutraal
 -------------------------------
 Symbolic Z-matrix:
 Charge =  0 Multiplicity = 1

 SCF Done:  E(RB3LYP) =  -705.510223989     A.U. after   17 cycles
 SCF Done:  E(RB3LYP) =  -705.519312565     A.U. after   16 cycles
 SCF Done:  E(RB3LYP) =  -705.520897107     A.U. after   16 cycles
 SCF Done:  E(RB3LYP) =  -705.522979074     A.U. after   16 cycles
 SCF Done:  E(RB3LYP) =  -705.524750443     A.U. after   16 cycles
 SCF Done:  E(RB3LYP) =  -705.525561431     A.U. after   15 cycles
 SCF Done:  E(RB3LYP) =  -705.525823198     A.U. after   13 cycles
 SCF Done:  E(RB3LYP) =  -705.525862293     A.U. after   12 cycles
 SCF Done:  E(RB3LYP) =  -705.525865463     A.U. after   10 cycles
 SCF Done:  E(RB3LYP) =  -705.525866534     A.U. after    9 cycles
 SCF Done:  E(RB3LYP) =  -705.525866899     A.U. after    9 cycles
 SCF Done:  E(RB3LYP) =  -705.525867044     A.U. after    9 cycles
 SCF Done:  E(RB3LYP) =  -705.525867084     A.U. after    7 cycles
 Optimization completed.
    -- Stationary point found.
 Normal termination of Gaussian 16 at Fri Dec 11 13:03:01 2020.

 --------------------------------------------------------------------
 #N Geom=AllCheck Guess=TCheck SCRF=Check GenChk RB3LYP/6-31G(d) Freq
 --------------------------------------------------------------------

 Structure from the checkpoint file:  "JID_7901.chk"
 -------------------------------
 CID_151977363_JID_7901_neutraal
 -------------------------------
 Charge =  0 Multiplicity = 1

 SCF Done:  E(RB3LYP) =  -705.525867084     A.U. after    1 cycles

  Exact polarizability: 227.883  12.745 173.573  39.993 -13.162 102.759
 Approx polarizability: 357.335  26.787 300.106  95.272 -27.231 181.139

                      1                      2                      3
                      A                      A                      A
 Frequencies --     18.0268                28.3934                38.4746
 Red. masses --      6.0167                 4.4418                 4.7908
 Frc consts  --      0.0012                 0.0021                 0.0042
 IR Inten    --      0.1975                 0.2019                 0.0485

                      4                      5                      6
                      A                      A                      A
 Frequencies --     74.7926                82.8755                89.7541
 Red. masses --      4.7818                 7.3409                 4.9811
 Frc consts  --      0.0158                 0.0297                 0.0236
 IR Inten    --      0.2283                 0.5222                 0.4177

                      7                      8                      9
                      A                      A                      A
 Frequencies --    133.6510               178.3438               225.8332
 Red. masses --      6.0309                 4.4466                 4.0181
 Frc consts  --      0.0635                 0.0833                 0.1207
 IR Inten    --      0.3613                 0.1665                 2.9103

                     10                     11                     12
                      A                      A                      A
 Frequencies --    289.9873               321.5144               346.1157
 Red. masses --      4.1792                 4.9442                 2.9050
 Frc consts  --      0.2071                 0.3011                 0.2050
 IR Inten    --      0.7023                 2.5392                 1.9607

                     13                     14                     15
                      A                      A                      A
 Frequencies --    362.4341               417.5200               424.6727
 Red. masses --      2.5519                 3.0127                 3.1245
 Frc consts  --      0.1975                 0.3094                 0.3320
 IR Inten    --      1.5650                 0.1732                 0.8688

                     16                     17                     18
                      A                      A                      A
 Frequencies --    473.9556               504.5086               520.3683
 Red. masses --      3.3909                 3.9215                13.5431
 Frc consts  --      0.4488                 0.5881                 2.1607
 IR Inten    --      3.0874                 4.4084                 7.9288

                     19                     20                     21
                      A                      A                      A
 Frequencies --    558.7299               565.9231               602.4178
 Red. masses --      3.2180                 5.3526                 3.0043
 Frc consts  --      0.5919                 1.0100                 0.6424
 IR Inten    --      0.9271                 2.3068                 5.9549

                     22                     23                     24
                      A                      A                      A
 Frequencies --    638.3379               667.5696               681.8382
 Red. masses --      6.2419                 4.3566                 1.8527
 Frc consts  --      1.4985                 1.1439                 0.5075
 IR Inten    --      0.0702                 0.6332                16.6936

                     25                     26                     27
                      A                      A                      A
 Frequencies --    716.5451               767.5625               768.8830
 Red. masses --      1.7834                 2.0492                 1.9763
 Frc consts  --      0.5395                 0.7113                 0.6884
 IR Inten    --     25.2902                14.7862                24.5621

                     28                     29                     30
                      A                      A                      A
 Frequencies --    780.4496               799.5302               837.4374
 Red. masses --      3.5902                 4.1669                 1.5040
 Frc consts  --      1.2884                 1.5694                 0.6215
 IR Inten    --     10.7239                 3.2085                15.6804

                     31                     32                     33
                      A                      A                      A
 Frequencies --    843.0195               860.0115               876.8451
 Red. masses --      4.8884                 1.2613                 1.6907
 Frc consts  --      2.0469                 0.5496                 0.7659
 IR Inten    --     44.5351                 0.3419                 7.9862

                     34                     35                     36
                      A                      A                      A
 Frequencies --    912.3928               922.2290               930.4631
 Red. masses --      1.7093                 1.3581                 1.7073
 Frc consts  --      0.8384                 0.6806                 0.8709
 IR Inten    --     10.4736                 1.5639                 0.5920

                     37                     38                     39
                      A                      A                      A
 Frequencies --    966.1457               976.2371               994.2201
 Red. masses --      1.3497                 1.9811                 1.2466
 Frc consts  --      0.7423                 1.1124                 0.7260
 IR Inten    --      0.1770                11.6901                 0.2687

                     40                     41                     42
                      A                      A                      A
 Frequencies --   1010.8081              1022.2543              1030.1678
 Red. masses --      1.8109                 6.2543                 1.7517
 Frc consts  --      1.0901                 3.8508                 1.0953
 IR Inten    --      3.7265                 0.6274                 1.6111

                     43                     44                     45
                      A                      A                      A
 Frequencies --   1061.3517              1086.1986              1106.4324
 Red. masses --      2.1971                 2.4172                 2.5136
 Frc consts  --      1.4582                 1.6802                 1.8130
 IR Inten    --      1.8931                 1.6705                 5.2491

                     46                     47                     48
                      A                      A                      A
 Frequencies --   1120.4153              1130.9805              1185.5577
 Red. masses --      1.6615                 1.4834                 1.5345
 Frc consts  --      1.2289                 1.1179                 1.2708
 IR Inten    --      4.2082                11.2185                 3.6081

                     49                     50                     51
                      A                      A                      A
 Frequencies --   1193.5376              1215.2422              1217.7161
 Red. masses --      1.0994                 1.1522                 1.6253
 Frc consts  --      0.9228                 1.0026                 1.4199
 IR Inten    --      0.0709                 0.9856                 5.0681

                     52                     53                     54
                      A                      A                      A
 Frequencies --   1236.2610              1267.9072              1317.1039
 Red. masses --      2.5319                 1.3262                 1.8407
 Frc consts  --      2.2799                 1.2561                 1.8813
 IR Inten    --      2.9371                 3.4176                 2.7802

                     55                     56                     57
                      A                      A                      A
 Frequencies --   1344.9521              1355.7822              1364.9744
 Red. masses --      1.4754                 4.0573                 3.6225
 Frc consts  --      1.5725                 4.3941                 3.9766
 IR Inten    --      0.8966               116.3048                 0.6022

                     58                     59                     60
                      A                      A                      A
 Frequencies --   1373.9504              1384.1776              1389.4471
 Red. masses --      1.2574                 1.6726                 2.0829
 Frc consts  --      1.3985                 1.8881                 2.3692
 IR Inten    --      0.7930                 5.9105                33.8594

                     61                     62                     63
                      A                      A                      A
 Frequencies --   1434.7803              1503.9160              1516.5651
 Red. masses --      1.9327                 2.1909                 1.1094
 Frc consts  --      2.3442                 2.9196                 1.5033
 IR Inten    --     55.7838                 5.7339                 5.9966

                     64                     65                     66
                      A                      A                      A
 Frequencies --   1523.7457              1539.8939              1549.2641
 Red. masses --      1.1164                 7.3476                 2.2424
 Frc consts  --      1.5272                10.2654                 3.1711
 IR Inten    --      1.4243                58.3016                10.1748

                     67                     68                     69
                      A                      A                      A
 Frequencies --   1629.3509              1646.8837              1668.5444
 Red. masses --      5.3856                 5.5166                 5.6109
 Frc consts  --      8.4239                 8.8155                 9.2036
 IR Inten    --     13.6798                 0.7780                 7.2740

                     70                     71                     72
                      A                      A                      A
 Frequencies --   1723.1985              2261.6287              3057.4438
 Red. masses --      7.7366                13.9799                 1.0618
 Frc consts  --     13.5354                42.1304                 5.8482
 IR Inten    --     90.0242               868.2377                26.3301

                     73                     74                     75
                      A                      A                      A
 Frequencies --   3060.5150              3108.1209              3131.7117
 Red. masses --      1.0663                 1.1013                 1.0975
 Frc consts  --      5.8846                 6.2685                 6.3421
 IR Inten    --     21.5427                21.3506                 6.9065

                     76                     77                     78
                      A                      A                      A
 Frequencies --   3170.3051              3171.7979              3181.4726
 Red. masses --      1.0891                 1.0869                 1.0859
 Frc consts  --      6.4495                 6.4425                 6.4761
 IR Inten    --     13.0821                10.8958                 2.2143

                     79                     80                     81
                      A                      A                      A
 Frequencies --   3190.7152              3198.8350              3209.9866
 Red. masses --      1.0901                 1.0940                 1.0980
 Frc consts  --      6.5390                 6.5953                 6.6657
 IR Inten    --     12.8894                42.9855                20.6168

                     82                     83                     84
                      A                      A                      A
 Frequencies --   3227.4544              3238.9244              3254.5137
 Red. masses --      1.0885                 1.0933                 1.1037
 Frc consts  --      6.6805                 6.7579                 6.8875
 IR Inten    --      8.7748                 7.0805                10.5658

 - Thermochemistry -
 -------------------
 Temperature   298.150 Kelvin.  Pressure   1.00000 Atm.
 Atom     1 has atomic number  6 and mass  12.00000

 Molecular mass:   223.11095 amu.
 Principal axes and moments of inertia in atomic units:
                           1         2         3
     Eigenvalues --  2022.134187203.288428277.12088
           X            0.99993  -0.01164   0.00081
           Y            0.01166   0.99940  -0.03263
           Z           -0.00042   0.03264   0.99947
 This molecule is an asymmetric top.
 Rotational symmetry number  1.
 Warning -- assumption of classical behavior for rotation
           may cause significant error
 Rotational temperatures (Kelvin)      0.04283     0.01202     0.01046
 Rotational constants (GHZ):           0.89249     0.25054     0.21804
 Zero-point vibrational energy     632901.1 (Joules/Mol)
                                  151.26699 (Kcal/Mol)
 Warning -- explicit consideration of  21 degrees of freedom as
           vibrations may cause significant error
 Vibrational temperatures:     25.94    40.85    55.36   107.61   119.24
          (Kelvin)            129.14   192.29   256.60   324.92   417.23
                              462.59   497.98   521.46   600.72   611.01
                              681.92   725.88   748.69   803.89   814.24
                              866.74   918.43   960.48   981.01  1030.95
                             1104.35  1106.25  1122.89  1150.35  1204.89
                             1212.92  1237.36  1261.58  1312.73  1326.88
                             1338.73  1390.07  1404.59  1430.46  1454.33
                             1470.80  1482.18  1527.05  1562.80  1591.91
                             1612.03  1627.23  1705.75  1717.23  1748.46
                             1752.02  1778.70  1824.24  1895.02  1935.09
                             1950.67  1963.89  1976.81  1991.52  1999.10
                             2064.33  2163.80  2182.00  2192.33  2215.56
                             2229.05  2344.27  2369.50  2400.66  2479.30
                             3253.98  4398.98  4403.40  4471.89  4505.83
                             4561.36  4563.51  4577.43  4590.73  4602.41
                             4618.45  4643.59  4660.09  4682.52

 Zero-point correction=                           0.241059 (Hartree/Particle)
 Thermal correction to Energy=                    0.255725
 Thermal correction to Enthalpy=                  0.256669
 Thermal correction to Gibbs Free Energy=         0.196323
 Sum of electronic and zero-point Energies=           -705.284808
 Sum of electronic and thermal Energies=              -705.270142
 Sum of electronic and thermal Enthalpies=            -705.269198
 Sum of electronic and thermal Free Energies=         -705.329544

                     E (Thermal)             CV                S
                      KCal/Mol        Cal/Mol-Kelvin    Cal/Mol-Kelvin
 Total                  160.470             55.904            127.009
 Electronic               0.000              0.000              0.000
 Translational            0.889              2.981             42.110
 Rotational               0.889              2.981             33.155
 Vibrational            158.692             49.943             51.744
 Vibration     1          0.593              1.986              6.840
 Vibration     2          0.593              1.984              5.939
 Vibration     3          0.594              1.982              5.336
 Vibration     4          0.599              1.966              4.023
 Vibration     5          0.600              1.961              3.822
 Vibration     6          0.602              1.956              3.665
 Vibration     7          0.613              1.920              2.893
 Vibration     8          0.629              1.869              2.346
 Vibration     9          0.650              1.802              1.912
 Vibration    10          0.686              1.692              1.474
 Vibration    11          0.707              1.632              1.302
 Vibration    12          0.724              1.583              1.184
 Vibration    13          0.736              1.550              1.112
 Vibration    14          0.781              1.432              0.900
 Vibration    15          0.787              1.417              0.876
 Vibration    16          0.831              1.308              0.727
 Vibration    17          0.860              1.240              0.647
 Vibration    18          0.875              1.205              0.609
 Vibration    19          0.914              1.121              0.526
 Vibration    20          0.922              1.105              0.512
 Vibration    21          0.961              1.027              0.446

 Optimization completed.
    -- Stationary point found.
 Normal termination of Gaussian 16 at Fri Dec 11 13:13:07 2020.

 ----------------------------------------------------------------------
 # B3LYP/6-311++G(d,p) empiricaldispersion=gd3bj scf=xqc pop=npa geom=c
 heck
 ----------------------------------------------------------------------

 ---------------------------------------
 CID_151977363_JID_7901_Energie_neutraal
 ---------------------------------------
 Structure from the checkpoint file:  "JID_7901.chk"
 Charge =  0 Multiplicity = 1

 SCF Done:  E(RB3LYP) =  -705.708045847     A.U. after   18 cycles
 Normal termination of Gaussian 16 at Fri Dec 11 13:17:34 2020.

 ----------------------------------------------------------------------
 # B3LYP/6-311++G(d,p) empiricaldispersion=gd3bj scf=xqc pop=npa geom=c
 heck
 ----------------------------------------------------------------------

 -------------------------------------
 CID_151977363_JID_7901_Energie_kation
 -------------------------------------
 Structure from the checkpoint file:  "JID_7901.chk"
 Charge =  1 Multiplicity = 2

 SCF Done:  E(UB3LYP) =  -705.432404663     A.U. after   28 cycles
 Normal termination of Gaussian 16 at Fri Dec 11 13:26:50 2020.
 Gaussian 16:  ES64L-G16RevA.03 25-Dec-2016

 ----------------------------------------------------------------------
 # B3LYP/6-311++G(d,p) empiricaldispersion=gd3bj scf=xqc pop=npa geom=c
 heck
 ----------------------------------------------------------------------

 ------------------------------------
 CID_151977363_JID_7901_Energie_anion
 ------------------------------------
 Structure from the checkpoint file:  "JID_7901.chk"
 Charge = -1 Multiplicity = 2

                         Standard orientation:
 ---------------------------------------------------------------------
 Center     Atomic      Atomic             Coordinates (Angstroms)
 Number     Number       Type             X           Y           Z
 ---------------------------------------------------------------------
      1          6           0        4.539204    0.735345   -0.608310
      2          6           0        3.348083    1.082532   -1.247240
      3          6           0        2.193037    0.330358   -1.032726
      4          6           0        2.207760   -0.778462   -0.177336
      5          6           0        3.408951   -1.116858    0.457384
      6          6           0        4.566771   -0.368775    0.245140
      7          6           0        0.943168   -1.555142    0.103166
      8          6           0        0.195123   -1.050589    1.367954
      9          6           0       -0.151712    0.404303    1.263800
     10          6           0       -1.257270    0.948774    0.713346
     11          6           0       -1.524660    2.389585    0.609283
     12          6           0       -2.723365    2.561238   -0.003563
     13          6           0       -3.292735    1.254952   -0.332979
     14          6           0       -2.425821    0.291265    0.091147
     15          7           0       -2.512772   -1.109824   -0.010732
     16          7           0       -3.519870   -1.585944   -0.551075
     17          7           0       -4.393042   -2.147130   -1.027132
     18          1           0        5.440372    1.318079   -0.777177
     19          1           0        3.318011    1.938055   -1.916509
     20          1           0        1.266187    0.605880   -1.528925
     21          1           0        3.435939   -1.977988    1.121755
     22          1           0        5.490972   -0.650014    0.742699
     23          1           0        0.256867   -1.484998   -0.747021
     24          1           0        1.175164   -2.617046    0.247471
     25          1           0       -0.705429   -1.654851    1.498013
     26          1           0        0.840143   -1.201271    2.241661
     27          1           0        0.599169    1.102305    1.630684
     28          1           0       -0.853118    3.154521    0.977862
     29          1           0       -3.204904    3.505924   -0.227134
     30          1           0       -4.238795    1.090533   -0.835207
 ---------------------------------------------------------------------

 SCF Done:  E(UB3LYP) =  -705.734701447     A.U. after   27 cycles

 The electronic state is 2-A.
 Alpha  occ. eigenvalues --  -14.34063 -14.24316 -14.23238 -10.08161 -10.08040
 Alpha  occ. eigenvalues --  -10.07858 -10.07856 -10.07577 -10.06941 -10.05505
 Alpha  occ. eigenvalues --  -10.04362 -10.04064 -10.01189 -10.00572 -10.00557
 Alpha  occ. eigenvalues --  -10.00122  -9.99558  -1.00571  -0.84954  -0.76113
 Alpha  occ. eigenvalues --   -0.70585  -0.68380  -0.64981  -0.63432  -0.58270
 Alpha  occ. eigenvalues --   -0.57854  -0.52506  -0.50989  -0.48974  -0.47173
 Alpha  occ. eigenvalues --   -0.43656  -0.41362  -0.40280  -0.37929  -0.36560
 Alpha  occ. eigenvalues --   -0.36348  -0.36064  -0.34501  -0.32717  -0.32528
 Alpha  occ. eigenvalues --   -0.31318  -0.30874  -0.29480  -0.28520  -0.26419
 Alpha  occ. eigenvalues --   -0.25619  -0.25096  -0.24117  -0.23302  -0.22583
 Alpha  occ. eigenvalues --   -0.22344  -0.20769  -0.19142  -0.16316  -0.15993
 Alpha  occ. eigenvalues --   -0.15642  -0.14639  -0.10320  -0.05037   0.03084
 Alpha virt. eigenvalues --    0.06669   0.07962   0.08176   0.08407   0.09241
 Alpha virt. eigenvalues --    0.09702   0.10228   0.10707   0.10784   0.11728
 Alpha virt. eigenvalues --    0.11883   0.12746   0.13003   0.13378   0.14246

  Beta  occ. eigenvalues --  -14.33929 -14.24104 -14.23356 -10.08146 -10.08042
  Beta  occ. eigenvalues --  -10.07850 -10.07848 -10.07577 -10.06931 -10.05429
  Beta  occ. eigenvalues --  -10.04164 -10.04113 -10.01268 -10.00520  -9.99955
  Beta  occ. eigenvalues --   -9.99908  -9.99331  -1.00322  -0.84868  -0.76085
  Beta  occ. eigenvalues --   -0.70148  -0.68223  -0.64954  -0.63043  -0.57887
  Beta  occ. eigenvalues --   -0.57424  -0.52309  -0.50949  -0.48623  -0.47079
  Beta  occ. eigenvalues --   -0.43210  -0.41296  -0.40059  -0.37265  -0.36518
  Beta  occ. eigenvalues --   -0.36271  -0.35837  -0.34259  -0.32692  -0.32115
  Beta  occ. eigenvalues --   -0.31168  -0.30668  -0.29226  -0.28370  -0.26331
  Beta  occ. eigenvalues --   -0.25512  -0.24797  -0.24005  -0.23042  -0.22356
  Beta  occ. eigenvalues --   -0.21558  -0.20569  -0.18953  -0.16243  -0.15873
  Beta  occ. eigenvalues --   -0.15032  -0.14549  -0.08074  -0.03815
  Beta virt. eigenvalues --    0.06629   0.07864   0.08167   0.08350   0.09049
  Beta virt. eigenvalues --    0.09733   0.09920   0.10295   0.10678   0.10838
  Beta virt. eigenvalues --    0.11721   0.11863   0.12897   0.13144   0.14011

 Mulliken charges and spin densities:
               1          2
     1  C   -0.307690   0.006121
     2  C   -0.383835   0.011743
     3  C   -0.350920   0.028622
     4  C    0.783630   0.034366
     5  C   -0.228625  -0.048256
     6  C   -0.283513   0.005699
     7  C   -0.241497  -0.059066
     8  C   -0.378509  -0.025014
     9  C    0.036001   0.569157
    10  C    1.211289  -0.065910
    11  C   -0.719387   0.107672
    12  C   -0.254659   0.073406
    13  C   -0.414606   0.162240
    14  C   -1.315353   0.079862
    15  N   -0.354177  -0.030097
    16  N    0.752287   0.013189
    17  N   -0.242891   0.112061
    18  H    0.120427   0.000857
    19  H    0.160453  -0.000647
    20  H    0.179002  -0.003260
    21  H    0.120400   0.018455
    22  H    0.141585  -0.000508
    23  H    0.170025  -0.010202
    24  H    0.073513   0.050903
    25  H    0.169499   0.025238
    26  H    0.144637   0.006548
    27  H    0.135295  -0.034615
    28  H    0.073857  -0.014170
    29  H    0.094768  -0.003047
    30  H    0.108992  -0.011346
 Sum of Mulliken charges =  -1.00000   1.00000

 Dipole moment (field-independent basis, Debye):
    X=              7.8553    Y=             -1.2822    Z=             -0.2145  Tot=              7.9621
 Quadrupole moment (field-independent basis, Debye-Ang):
   XX=           -152.8017   YY=           -121.2813   ZZ=           -113.3107
   XY=             -0.2487   XZ=             -0.6439   YZ=             -6.5729

 Summary of Natural Population Analysis:

                                       Natural Population
                Natural  -----------------------------------------------
    Atom  No    Charge         Core      Valence    Rydberg      Total
 -----------------------------------------------------------------------
      C    1   -0.11641      0.99957     2.10754    0.00929     3.11641
      C    2   -0.10044      0.99957     2.09176    0.00911     3.10044
      C    3   -0.09394      0.99951     2.08601    0.00842     3.09394
      C    4   -0.00251      0.99951     1.99327    0.00973     3.00251
      C    5   -0.10537      0.99951     2.09726    0.00859     3.10537
      C    6   -0.10364      0.99957     2.09484    0.00923     3.10364
      C    7   -0.18525      0.99959     2.17544    0.01022     3.18525
      C    8   -0.20807      0.99962     2.20135    0.00711     3.20807
      C    9    0.09488      0.99950     1.89649    0.00913     2.90512
      C   10   -0.07794      0.99948     2.06835    0.01011     3.07794
      C   11   -0.07477      0.99952     2.06464    0.01061     3.07477
      C   12   -0.12020      0.99957     2.11014    0.01049     3.12020
      C   13   -0.11312      0.99951     2.10414    0.00947     3.11312
      C   14    0.07238      0.99936     1.91641    0.01184     2.92762
      N   15   -0.18760      0.99964     2.67377    0.01419     3.68760
      N   16    0.13190      0.99971     2.35240    0.01599     3.36810
      N   17   -0.04774      0.99982     2.53402    0.01390     3.54774
      H   18    0.09493      0.00000     0.40412    0.00095     0.40507
      H   19    0.09718      0.00000     0.40185    0.00098     0.40282
      H   20    0.10928      0.00000     0.38952    0.00120     0.39072
      H   21    0.09676      0.00000     0.40193    0.00130     0.40324
      H   22    0.09434      0.00000     0.40461    0.00105     0.40566
      H   23    0.10543      0.00000     0.39339    0.00119     0.39457
      H   24    0.09308      0.00000     0.40531    0.00161     0.40692
      H   25    0.11099      0.00000     0.38730    0.00171     0.38901
      H   26    0.09241      0.00000     0.40655    0.00104     0.40759
      H   27    0.07895      0.00000     0.41963    0.00142     0.42105
      H   28    0.08728      0.00000     0.41165    0.00107     0.41272
      H   29    0.08693      0.00000     0.41200    0.00107     0.41307
      H   30    0.09031      0.00000     0.40866    0.00103     0.40969
 =======================================================================
   * Total *    0.00000     16.99257    41.81435    0.19307    59.00000

 Normal termination of Gaussian 16 at Fri Dec 11 13:35:43 2020.
