 Gaussian 16, Revision A.03,

 -----------------------------------------------------------
 # opt freq B3LYP/6-31G(d) empiricaldispersion=gd3bj scf=xqc
 -----------------------------------------------------------

 -------------------------------
 CID_103377543_JID_2999_neutraal
 -------------------------------
 Symbolic Z-matrix:
 Charge =  0 Multiplicity = 1

 SCF Done:  E(RB3LYP) =  -560.824355572     A.U. after   13 cycles
 SCF Done:  E(RB3LYP) =  -560.827097400     A.U. after   10 cycles
 SCF Done:  E(RB3LYP) =  -560.827708006     A.U. after   11 cycles
 SCF Done:  E(RB3LYP) =  -560.827722320     A.U. after   10 cycles
 SCF Done:  E(RB3LYP) =  -560.827974410     A.U. after   10 cycles
 SCF Done:  E(RB3LYP) =  -560.827994878     A.U. after   10 cycles
 SCF Done:  E(RB3LYP) =  -560.828049086     A.U. after    9 cycles
 SCF Done:  E(RB3LYP) =  -560.828062517     A.U. after    9 cycles
 SCF Done:  E(RB3LYP) =  -560.828072243     A.U. after    9 cycles
 SCF Done:  E(RB3LYP) =  -560.828074428     A.U. after    8 cycles
 SCF Done:  E(RB3LYP) =  -560.828075124     A.U. after    7 cycles
 SCF Done:  E(RB3LYP) =  -560.828075366     A.U. after    7 cycles
 Optimization completed.
    -- Stationary point found.
 Normal termination of Gaussian 16 at Wed Dec  9 18:23:15 2020.

 --------------------------------------------------------------------
 #N Geom=AllCheck Guess=TCheck SCRF=Check GenChk RB3LYP/6-31G(d) Freq
 --------------------------------------------------------------------

 Structure from the checkpoint file:  "JID_2999.chk"
 -------------------------------
 CID_103377543_JID_2999_neutraal
 -------------------------------
 Charge =  0 Multiplicity = 1

 SCF Done:  E(RB3LYP) =  -560.828075366     A.U. after    1 cycles

  Exact polarizability: 119.950   2.611 107.793  -1.385   3.048 100.067
 Approx polarizability: 152.881   1.881 144.203   0.057  -0.316 146.216

                      1                      2                      3
                      A                      A                      A
 Frequencies --     22.4623                44.9469                63.4903
 Red. masses --      4.0339                 3.2128                 4.1640
 Frc consts  --      0.0012                 0.0038                 0.0099
 IR Inten    --      1.0367                 1.3561                 0.8901

                      4                      5                      6
                      A                      A                      A
 Frequencies --     75.9291               104.1928               121.1471
 Red. masses --      2.6776                 2.9718                 2.1929
 Frc consts  --      0.0091                 0.0190                 0.0190
 IR Inten    --      1.1042                 0.5575                 0.1639

                      7                      8                      9
                      A                      A                      A
 Frequencies --    149.0151               189.6968               208.9811
 Red. masses --      2.6129                 1.9358                 1.3627
 Frc consts  --      0.0342                 0.0410                 0.0351
 IR Inten    --      2.4071                 1.3972                 1.6432

                     10                     11                     12
                      A                      A                      A
 Frequencies --    223.5918               235.1962               258.5058
 Red. masses --      1.8811                 1.3815                 2.2170
 Frc consts  --      0.0554                 0.0450                 0.0873
 IR Inten    --      8.9744                 2.5132                 4.7869

                     13                     14                     15
                      A                      A                      A
 Frequencies --    273.8949               296.5489               317.1312
 Red. masses --      2.1425                 2.3638                 3.5132
 Frc consts  --      0.0947                 0.1225                 0.2082
 IR Inten    --      2.5773                 9.5565                 1.1103

                     16                     17                     18
                      A                      A                      A
 Frequencies --    346.9866               355.4607               393.2512
 Red. masses --      1.4358                 2.3896                 1.3141
 Frc consts  --      0.1019                 0.1779                 0.1197
 IR Inten    --     27.6246                 3.6881                62.9707

                     19                     20                     21
                      A                      A                      A
 Frequencies --    429.9079               483.6654               499.1799
 Red. masses --      1.6796                 2.8483                 2.8437
 Frc consts  --      0.1829                 0.3926                 0.4175
 IR Inten    --     28.2836                 1.8749                 5.3083

                     22                     23                     24
                      A                      A                      A
 Frequencies --    599.3216               715.5752               756.2215
 Red. masses --      2.7053                 2.8897                 2.4661
 Frc consts  --      0.5725                 0.8718                 0.8309
 IR Inten    --      3.9372                16.8097                 4.1588

                     25                     26                     27
                      A                      A                      A
 Frequencies --    786.5812               810.3833               863.4340
 Red. masses --      1.3810                 1.2647                 1.7646
 Frc consts  --      0.5034                 0.4893                 0.7751
 IR Inten    --      3.7066                 4.2317                 7.3598

                     28                     29                     30
                      A                      A                      A
 Frequencies --    877.6803               900.8672               935.9970
 Red. masses --      2.2711                 2.2221                 1.5976
 Frc consts  --      1.0308                 1.0625                 0.8246
 IR Inten    --     13.7738                27.2239               166.7020

                     31                     32                     33
                      A                      A                      A
 Frequencies --    978.3630               985.1016               998.4511
 Red. masses --      1.7229                 1.4022                 1.5646
 Frc consts  --      0.9716                 0.8017                 0.9190
 IR Inten    --     19.2324                22.7371                30.7969

                     34                     35                     36
                      A                      A                      A
 Frequencies --   1004.9764              1012.4066              1046.9914
 Red. masses --      1.6592                 1.6962                 2.4160
 Frc consts  --      0.9874                 1.0243                 1.5604
 IR Inten    --     26.9802                13.7676                 8.2150

                     37                     38                     39
                      A                      A                      A
 Frequencies --   1061.7671              1087.9303              1090.7169
 Red. masses --      2.5512                 2.5175                 1.8401
 Frc consts  --      1.6946                 1.7556                 1.2898
 IR Inten    --     12.9416                98.3037                 2.4793

                     40                     41                     42
                      A                      A                      A
 Frequencies --   1130.9965              1144.8600              1160.8576
 Red. masses --      3.4063                 2.8470                 2.2924
 Frc consts  --      2.5672                 2.1986                 1.8201
 IR Inten    --     87.1866                77.6477                10.9484

                     43                     44                     45
                      A                      A                      A
 Frequencies --   1177.2081              1199.7675              1224.7881
 Red. masses --      1.9852                 1.6080                 1.4141
 Frc consts  --      1.6209                 1.3637                 1.2498
 IR Inten    --     13.1649                 3.3466                 8.1032

                     46                     47                     48
                      A                      A                      A
 Frequencies --   1245.5320              1265.3220              1311.0867
 Red. masses --      1.5515                 1.1914                 1.1888
 Frc consts  --      1.4181                 1.1238                 1.2040
 IR Inten    --      5.6711                 3.3509                 0.7099

                     49                     50                     51
                      A                      A                      A
 Frequencies --   1314.9289              1320.1057              1356.5648
 Red. masses --      1.2712                 1.3054                 1.2099
 Frc consts  --      1.2950                 1.3404                 1.3118
 IR Inten    --      4.9961                 0.8720                15.2239

                     52                     53                     54
                      A                      A                      A
 Frequencies --   1374.2461              1394.2460              1401.2300
 Red. masses --      1.4386                 1.3332                 1.4432
 Frc consts  --      1.6007                 1.5270                 1.6695
 IR Inten    --      3.2506                17.0382                 1.9380

                     55                     56                     57
                      A                      A                      A
 Frequencies --   1408.9539              1411.8785              1420.6184
 Red. masses --      1.3271                 1.2159                 1.2572
 Frc consts  --      1.5522                 1.4281                 1.4949
 IR Inten    --     15.6160                 4.0388                11.9955

                     58                     59                     60
                      A                      A                      A
 Frequencies --   1425.2555              1432.4618              1441.4681
 Red. masses --      1.3797                 1.2459                 1.2498
 Frc consts  --      1.6513                 1.5062                 1.5300
 IR Inten    --      0.8648                32.0101                 4.1153

                     61                     62                     63
                      A                      A                      A
 Frequencies --   1451.5775              1457.8755              1503.4330
 Red. masses --      1.2198                 1.3639                 1.0951
 Frc consts  --      1.5143                 1.7080                 1.4583
 IR Inten    --      2.8392                 9.9027                 4.1037

                     64                     65                     66
                      A                      A                      A
 Frequencies --   1508.6733              1521.9957              1524.3846
 Red. masses --      1.0845                 1.0565                 1.0435
 Frc consts  --      1.4544                 1.4419                 1.4287
 IR Inten    --      2.6228                 1.8587                 5.0890

                     67                     68                     69
                      A                      A                      A
 Frequencies --   1533.4711              1537.1328              1538.0747
 Red. masses --      1.0889                 1.0523                 1.0453
 Frc consts  --      1.5087                 1.4649                 1.4570
 IR Inten    --      0.8882                 4.8600                 4.9339

                     70                     71                     72
                      A                      A                      A
 Frequencies --   1541.3288              1556.7226              1707.0898
 Red. masses --      1.0787                 1.0825                 1.0865
 Frc consts  --      1.5099                 1.5457                 1.8656
 IR Inten    --      6.1556                 6.7375                15.8613

                     73                     74                     75
                      A                      A                      A
 Frequencies --   2982.5060              2994.1605              3009.0013
 Red. masses --      1.0821                 1.0797                 1.0622
 Frc consts  --      5.6715                 5.7032                 5.6661
 IR Inten    --     26.5963                13.2867                62.8935

                     76                     77                     78
                      A                      A                      A
 Frequencies --   3032.9258              3037.9473              3041.7157
 Red. masses --      1.0642                 1.0695                 1.0915
 Frc consts  --      5.7675                 5.8156                 5.9501
 IR Inten    --     27.0547                42.3428                13.5808

                     79                     80                     81
                      A                      A                      A
 Frequencies --   3046.8845              3049.2094              3053.8019
 Red. masses --      1.0374                 1.0398                 1.0685
 Frc consts  --      5.6742                 5.6963                 5.8707
 IR Inten    --     28.3863                16.1379                45.0193

                     82                     83                     84
                      A                      A                      A
 Frequencies --   3056.6940              3074.9913              3094.2498
 Red. masses --      1.0613                 1.0981                 1.1009
 Frc consts  --      5.8422                 6.1176                 6.2102
 IR Inten    --     63.8393                15.4656                35.4630

                     85                     86                     87
                      A                      A                      A
 Frequencies --   3098.2732              3109.3679              3110.9202
 Red. masses --      1.1024                 1.1022                 1.1015
 Frc consts  --      6.2346                 6.2785                 6.2810
 IR Inten    --     34.2684                61.9764                 5.6388

                     88                     89                     90
                      A                      A                      A
 Frequencies --   3112.9435              3120.7091              3127.2353
 Red. masses --      1.1010                 1.1019                 1.1006
 Frc consts  --      6.2863                 6.3228                 6.3414
 IR Inten    --     82.2404                34.5209                33.2761

                     91                     92                     93
                      A                      A                      A
 Frequencies --   3486.3480              3574.8968              3770.3848
 Red. masses --      1.0498                 1.0908                 1.0653
 Frc consts  --      7.5180                 8.2132                 8.9225
 IR Inten    --      1.5008                 0.4418                45.5905

 - Thermochemistry -
 -------------------
 Temperature   298.150 Kelvin.  Pressure   1.00000 Atm.
 Atom     1 has atomic number  6 and mass  12.00000

 Molecular mass:   175.15723 amu.
 Principal axes and moments of inertia in atomic units:
                           1         2         3
     Eigenvalues --  1795.929462771.929523527.29061
           X            0.99902   0.04381  -0.00696
           Y           -0.04367   0.99887   0.01850
           Z            0.00776  -0.01818   0.99980
 This molecule is an asymmetric top.
 Rotational symmetry number  1.
 Warning -- assumption of classical behavior for rotation
           may cause significant error
 Rotational temperatures (Kelvin)      0.04823     0.03125     0.02456
 Rotational constants (GHZ):           1.00491     0.65108     0.51165
 Zero-point vibrational energy     798718.2 (Joules/Mol)
                                  190.89822 (Kcal/Mol)
 Warning -- explicit consideration of  22 degrees of freedom as
           vibrations may cause significant error
 Vibrational temperatures:     32.32    64.67    91.35   109.25   149.91
          (Kelvin)            174.30   214.40   272.93   300.68   321.70
                              338.39   371.93   394.07   426.67   456.28
                              499.24   511.43   565.80   618.54   695.89
                              718.21   862.29  1029.55  1088.03  1131.71
                             1165.96  1242.29  1262.79  1296.15  1346.69
                             1407.65  1417.34  1436.55  1445.94  1456.63
                             1506.39  1527.65  1565.29  1569.30  1627.25
                             1647.20  1670.22  1693.74  1726.20  1762.20
                             1792.04  1820.52  1886.36  1891.89  1899.34
                             1951.79  1977.23  2006.01  2016.06  2027.17
                             2031.38  2043.95  2050.62  2060.99  2073.95
                             2088.50  2097.56  2163.10  2170.64  2189.81
                             2193.25  2206.32  2211.59  2212.95  2217.63
                             2239.78  2456.12  4291.16  4307.93  4329.28
                             4363.70  4370.93  4376.35  4383.79  4387.13
                             4393.74  4397.90  4424.23  4451.94  4457.72
                             4473.69  4475.92  4478.83  4490.00  4499.39
                             5016.08  5143.48  5424.74

 Zero-point correction=                           0.304216 (Hartree/Particle)
 Thermal correction to Energy=                    0.319464
 Thermal correction to Enthalpy=                  0.320408
 Thermal correction to Gibbs Free Energy=         0.261214
 Sum of electronic and zero-point Energies=           -560.523860
 Sum of electronic and thermal Energies=              -560.508611
 Sum of electronic and thermal Enthalpies=            -560.507667
 Sum of electronic and thermal Free Energies=         -560.566862

                     E (Thermal)             CV                S
                      KCal/Mol        Cal/Mol-Kelvin    Cal/Mol-Kelvin
 Total                  200.467             55.283            124.585
 Electronic               0.000              0.000              0.000
 Translational            0.889              2.981             41.389
 Rotational               0.889              2.981             31.241
 Vibrational            198.689             49.322             51.956
 Vibration     1          0.593              1.985              6.404
 Vibration     2          0.595              1.979              5.028
 Vibration     3          0.597              1.972              4.346
 Vibration     4          0.599              1.965              3.993
 Vibration     5          0.605              1.946              3.374
 Vibration     6          0.609              1.932              3.082
 Vibration     7          0.618              1.904              2.685
 Vibration     8          0.633              1.854              2.231
 Vibration     9          0.642              1.827              2.053
 Vibration    10          0.649              1.805              1.930
 Vibration    11          0.655              1.787              1.839
 Vibration    12          0.667              1.748              1.672
 Vibration    13          0.676              1.722              1.572
 Vibration    14          0.690              1.680              1.436
 Vibration    15          0.704              1.641              1.325
 Vibration    16          0.725              1.581              1.180
 Vibration    17          0.731              1.564              1.142
 Vibration    18          0.760              1.485              0.988
 Vibration    19          0.791              1.405              0.859
 Vibration    20          0.840              1.286              0.700
 Vibration    21          0.855              1.252              0.660
 Vibration    22          0.957              1.033              0.451

 Optimization completed.
    -- Stationary point found.
 Normal termination of Gaussian 16 at Wed Dec  9 18:31:51 2020.

 ----------------------------------------------------------------------
 # B3LYP/6-311++G(d,p) empiricaldispersion=gd3bj scf=xqc pop=npa geom=c
 heck
 ----------------------------------------------------------------------

 ---------------------------------------
 CID_103377543_JID_2999_Energie_neutraal
 ---------------------------------------
 Structure from the checkpoint file:  "JID_2999.chk"
 Charge =  0 Multiplicity = 1

 SCF Done:  E(RB3LYP) =  -561.008365745     A.U. after   14 cycles
 Normal termination of Gaussian 16 at Wed Dec  9 18:35:14 2020.

 ----------------------------------------------------------------------
 # B3LYP/6-311++G(d,p) empiricaldispersion=gd3bj scf=xqc pop=npa geom=c
 heck
 ----------------------------------------------------------------------

 -------------------------------------
 CID_103377543_JID_2999_Energie_kation
 -------------------------------------
 Structure from the checkpoint file:  "JID_2999.chk"
 Charge =  1 Multiplicity = 2

 SCF Done:  E(UB3LYP) =  -560.691606179     A.U. after   25 cycles
 Normal termination of Gaussian 16 at Wed Dec  9 18:42:57 2020.
 Gaussian 16:  ES64L-G16RevA.03 25-Dec-2016

 ----------------------------------------------------------------------
 # B3LYP/6-311++G(d,p) empiricaldispersion=gd3bj scf=xqc pop=npa geom=c
 heck
 ----------------------------------------------------------------------

 ------------------------------------
 CID_103377543_JID_2999_Energie_anion
 ------------------------------------
 Structure from the checkpoint file:  "JID_2999.chk"
 Charge = -1 Multiplicity = 2

                         Standard orientation:
 ---------------------------------------------------------------------
 Center     Atomic      Atomic             Coordinates (Angstroms)
 Number     Number       Type             X           Y           Z
 ---------------------------------------------------------------------
      1          6           0        1.318075    2.716189    0.531828
      2          6           0        1.311814    1.191062    0.682572
      3          6           0        1.289227    0.442180   -0.664759
      4          6           0        2.652065    0.483803   -1.367913
      5          6           0        0.753755   -1.004458   -0.571006
      6          6           0        1.524208   -1.988905    0.332646
      7          7           0        1.304675   -1.878812    1.773452
      8          8           0       -0.597528   -1.006544   -0.095781
      9          6           0       -1.589519   -0.844575   -1.101615
     10          6           0       -2.938267   -0.641677   -0.423018
     11          6           0       -2.888210    0.462693    0.641635
     12          8           0       -2.274213    1.657382    0.168124
     13          1           0        2.187545    3.065136   -0.035644
     14          1           0        1.341549    3.207941    1.510084
     15          1           0        0.419353    3.066304    0.008897
     16          1           0        2.196685    0.885094    1.257228
     17          1           0        0.438864    0.892650    1.275450
     18          1           0        0.576505    0.973896   -1.315254
     19          1           0        3.430394    0.013548   -0.755768
     20          1           0        2.620105   -0.040601   -2.330160
     21          1           0        2.965823    1.513748   -1.564045
     22          1           0        0.771298   -1.419595   -1.592034
     23          1           0        1.222252   -3.000430    0.035360
     24          1           0        2.598589   -1.913112    0.131282
     25          1           0        1.680040   -1.000560    2.121464
     26          1           0        0.299637   -1.840724    1.935678
     27          1           0       -1.363306    0.031481   -1.725782
     28          1           0       -1.608086   -1.725129   -1.761928
     29          1           0       -3.671135   -0.386409   -1.198172
     30          1           0       -3.267221   -1.575825    0.049907
     31          1           0       -3.903662    0.739857    0.941213
     32          1           0       -2.368795    0.087269    1.533206
     33          1           0       -1.324117    1.472574    0.123895
 ---------------------------------------------------------------------

 SCF Done:  E(UB3LYP) =  -560.993673857     A.U. after   29 cycles

 The electronic state is 2-A.
 Alpha  occ. eigenvalues --  -19.02858 -19.02633 -14.19009 -10.12055 -10.11919
 Alpha  occ. eigenvalues --  -10.11901 -10.09010 -10.07754 -10.07446 -10.07177
 Alpha  occ. eigenvalues --  -10.06383 -10.05902  -0.94324  -0.92633  -0.78269
 Alpha  occ. eigenvalues --   -0.71657  -0.68256  -0.64346  -0.60747  -0.57504
 Alpha  occ. eigenvalues --   -0.55146  -0.51171  -0.49640  -0.45858  -0.42099
 Alpha  occ. eigenvalues --   -0.40578  -0.39691  -0.38090  -0.37759  -0.36069
 Alpha  occ. eigenvalues --   -0.34784  -0.33683  -0.31773  -0.30859  -0.30550
 Alpha  occ. eigenvalues --   -0.29359  -0.28659  -0.28352  -0.27704  -0.26907
 Alpha  occ. eigenvalues --   -0.25766  -0.24069  -0.23747  -0.23689  -0.22441
 Alpha  occ. eigenvalues --   -0.21742  -0.18257  -0.16824  -0.14001   0.04507
 Alpha virt. eigenvalues --    0.06520   0.06950   0.07772   0.08401   0.09052
 Alpha virt. eigenvalues --    0.09256   0.09843   0.10438   0.11282   0.11751
 Alpha virt. eigenvalues --    0.11927   0.12619   0.13095   0.13251   0.13685

  Beta  occ. eigenvalues --  -19.02846 -19.02622 -14.19000 -10.12045 -10.11895
  Beta  occ. eigenvalues --  -10.11888 -10.08991 -10.07745 -10.07430 -10.07159
  Beta  occ. eigenvalues --  -10.06354 -10.05859  -0.94307  -0.92613  -0.78249
  Beta  occ. eigenvalues --   -0.71626  -0.68218  -0.64304  -0.60696  -0.57453
  Beta  occ. eigenvalues --   -0.55070  -0.51112  -0.49590  -0.45800  -0.42072
  Beta  occ. eigenvalues --   -0.40548  -0.39661  -0.38051  -0.37708  -0.36040
  Beta  occ. eigenvalues --   -0.34751  -0.33657  -0.31736  -0.30820  -0.30512
  Beta  occ. eigenvalues --   -0.29322  -0.28618  -0.28314  -0.27666  -0.26863
  Beta  occ. eigenvalues --   -0.25732  -0.24026  -0.23720  -0.23649  -0.22408
  Beta  occ. eigenvalues --   -0.21692  -0.18233  -0.16803  -0.13985
  Beta virt. eigenvalues --    0.06650   0.07314   0.07719   0.08201   0.09037
  Beta virt. eigenvalues --    0.09526   0.09701   0.10187   0.10857   0.11865
  Beta virt. eigenvalues --    0.12176   0.12276   0.12843   0.13302   0.13678

 Mulliken charges and spin densities:
               1          2
     1  C    1.144600  -1.846548
     2  C   -1.543656   1.379346
     3  C   -0.306719   0.833268
     4  C    2.223051  -3.126405
     5  C   -1.421064   0.951744
     6  C    0.848577  -1.535358
     7  N   -0.380487   0.100990
     8  O    0.024865   0.030958
     9  C    0.324860  -0.408038
    10  C    0.149524  -0.408503
    11  C   -0.115420  -0.315672
    12  O   -0.280024   0.032881
    13  H   -0.127029   0.265993
    14  H   -0.216111   0.355177
    15  H   -0.092545   0.234441
    16  H   -0.225711   0.382132
    17  H    0.232808  -0.044819
    18  H    0.045848   0.146583
    19  H   -0.213523   0.352110
    20  H   -0.487729   0.637707
    21  H   -0.207050   0.353139
    22  H   -0.117969   0.323528
    23  H   -0.220475   0.406996
    24  H    0.012146   0.151179
    25  H    0.024747   0.186842
    26  H    0.219692   0.021436
    27  H    0.111229   0.028938
    28  H   -0.646445   0.801149
    29  H   -0.083534   0.244545
    30  H   -0.067277   0.213759
    31  H    0.020304   0.137110
    32  H    0.040443   0.118209
    33  H    0.330073  -0.004815
 Sum of Mulliken charges =  -1.00000   1.00000

 Dipole moment (field-independent basis, Debye):
    X=             -3.0294    Y=              0.8278    Z=              2.7134  Tot=              4.1503
 Quadrupole moment (field-independent basis, Debye-Ang):
   XX=           -136.4172   YY=           -132.5781   ZZ=           -120.6504
   XY=             -1.2027   XZ=              0.3322   YZ=             -3.0926

 Summary of Natural Population Analysis:

                                       Natural Population
                Natural  -----------------------------------------------
    Atom  No    Charge         Core      Valence    Rydberg      Total
 -----------------------------------------------------------------------
      C    1   -0.28505      0.99966     2.27974    0.00564     3.28505
      C    2   -0.19856      0.99961     2.18901    0.00994     3.19856
      C    3   -0.12605      0.99957     2.11442    0.01206     3.12605
      C    4   -0.28556      0.99964     2.27956    0.00636     3.28556
      C    5    0.06599      0.99951     1.91905    0.01545     2.93401
      C    6   -0.09569      0.99960     2.08443    0.01165     3.09569
      N    7   -0.41902      0.99978     2.91048    0.00877     3.91902
      O    8   -0.32160      0.99987     3.31040    0.01132     4.32160
      C    9   -0.01016      0.99957     1.99747    0.01313     3.01016
      C   10   -0.21016      0.99963     2.20159    0.00894     3.21016
      C   11   -0.00876      0.99960     1.99739    0.01177     3.00876
      O   12   -0.37179      0.99990     3.36536    0.00652     4.37179
      H   13    0.09884      0.00000     0.40009    0.00107     0.40116
      H   14    0.09941      0.00000     0.39970    0.00088     0.40059
      H   15    0.09592      0.00000     0.40306    0.00102     0.40408
      H   16    0.09417      0.00000     0.40449    0.00134     0.40583
      H   17    0.09778      0.00000     0.40022    0.00200     0.40222
      H   18    0.09330      0.00000     0.40385    0.00285     0.40670
      H   19    0.09725      0.00000     0.40121    0.00153     0.40275
      H   20    0.10304      0.00000     0.39535    0.00161     0.39696
      H   21    0.10264      0.00000     0.39614    0.00121     0.39736
      H   22    0.08791      0.00000     0.40916    0.00293     0.41209
      H   23    0.09296      0.00000     0.40576    0.00127     0.40704
      H   24    0.09423      0.00000     0.40463    0.00114     0.40577
      H   25    0.17108      0.00000     0.32635    0.00257     0.32892
      H   26    0.17662      0.00000     0.32082    0.00257     0.32338
      H   27    0.08115      0.00000     0.41691    0.00194     0.41885
      H   28    0.08733      0.00000     0.41060    0.00207     0.41267
      H   29    0.09971      0.00000     0.39922    0.00107     0.40029
      H   30    0.09961      0.00000     0.39915    0.00124     0.40039
      H   31    0.08362      0.00000     0.41525    0.00113     0.41638
      H   32    0.07923      0.00000     0.41922    0.00155     0.42077
      H   33    0.23060      0.00000     0.26517    0.00423     0.26940
 =======================================================================
   * Total *    0.00000     11.99595    36.84526    0.15879    49.00000

 Normal termination of Gaussian 16 at Wed Dec  9 18:51:45 2020.
