 Gaussian 16, Revision A.03,

 -----------------------------------------------------------
 # opt freq B3LYP/6-31G(d) empiricaldispersion=gd3bj scf=xqc
 -----------------------------------------------------------

 -------------------------------
 CID_130639422_JID_4635_neutraal
 -------------------------------
 Symbolic Z-matrix:
 Charge =  0 Multiplicity = 1

 SCF Done:  E(RB3LYP) =  -619.786474575     A.U. after   14 cycles
 SCF Done:  E(RB3LYP) =  -619.793276845     A.U. after   13 cycles
 SCF Done:  E(RB3LYP) =  -619.788730608     A.U. after   13 cycles
 SCF Done:  E(RB3LYP) =  -619.793939350     A.U. after   12 cycles
 SCF Done:  E(RB3LYP) =  -619.793891562     A.U. after   11 cycles
 SCF Done:  E(RB3LYP) =  -619.794037301     A.U. after   11 cycles
 SCF Done:  E(RB3LYP) =  -619.794069548     A.U. after   10 cycles
 SCF Done:  E(RB3LYP) =  -619.794096883     A.U. after   11 cycles
 SCF Done:  E(RB3LYP) =  -619.794111452     A.U. after   11 cycles
 SCF Done:  E(RB3LYP) =  -619.794123411     A.U. after   11 cycles
 SCF Done:  E(RB3LYP) =  -619.794127628     A.U. after    9 cycles
 SCF Done:  E(RB3LYP) =  -619.794127937     A.U. after    9 cycles
 SCF Done:  E(RB3LYP) =  -619.794127932     A.U. after    8 cycles
 SCF Done:  E(RB3LYP) =  -619.794127861     A.U. after    8 cycles
 SCF Done:  E(RB3LYP) =  -619.794127838     A.U. after    7 cycles
 Optimization completed.
    -- Stationary point found.
 Normal termination of Gaussian 16 at Thu Dec 10 10:25:37 2020.

 --------------------------------------------------------------------
 #N Geom=AllCheck Guess=TCheck SCRF=Check GenChk RB3LYP/6-31G(d) Freq
 --------------------------------------------------------------------

 Structure from the checkpoint file:  "JID_4635.chk"
 -------------------------------
 CID_130639422_JID_4635_neutraal
 -------------------------------
 Charge =  0 Multiplicity = 1

 SCF Done:  E(RB3LYP) =  -619.794127838     A.U. after    1 cycles

  Exact polarizability: 130.199   1.349 127.639  -1.633  -0.830 113.036
 Approx polarizability: 174.316   8.567 178.087  -1.272  -3.213 170.243

                      1                      2                      3
                      A                      A                      A
 Frequencies --     33.8686                56.5536                76.9825
 Red. masses --      7.0428                 3.4326                 2.3069
 Frc consts  --      0.0048                 0.0065                 0.0081
 IR Inten    --      2.8744                 4.6651                 0.1802

                      4                      5                      6
                      A                      A                      A
 Frequencies --     95.7599                99.7891               143.0554
 Red. masses --      3.1145                 2.4438                 2.5611
 Frc consts  --      0.0168                 0.0143                 0.0309
 IR Inten    --      1.4498                 0.8411                 0.7335

                      7                      8                      9
                      A                      A                      A
 Frequencies --    178.1352               210.3273               224.6009
 Red. masses --      2.8244                 1.8302                 2.0448
 Frc consts  --      0.0528                 0.0477                 0.0608
 IR Inten    --      0.3120                 0.6168                 0.3172

                     10                     11                     12
                      A                      A                      A
 Frequencies --    241.7903               261.2137               270.2977
 Red. masses --      1.1286                 1.7502                 2.4168
 Frc consts  --      0.0389                 0.0704                 0.1040
 IR Inten    --      1.1701                 3.8440                 2.2845

                     13                     14                     15
                      A                      A                      A
 Frequencies --    294.5353               333.3855               355.5306
 Red. masses --      2.1750                 2.1756                 2.7320
 Frc consts  --      0.1112                 0.1425                 0.2035
 IR Inten    --      1.9496                 0.8843                 0.7047

                     16                     17                     18
                      A                      A                      A
 Frequencies --    368.3512               412.0781               444.9584
 Red. masses --      2.8174                 2.9273                 3.5431
 Frc consts  --      0.2252                 0.2929                 0.4133
 IR Inten    --      2.7834                 2.5778                 2.5516

                     19                     20                     21
                      A                      A                      A
 Frequencies --    499.2495               539.4727               589.6238
 Red. masses --      3.1175                 2.8261                 2.5522
 Frc consts  --      0.4578                 0.4846                 0.5228
 IR Inten    --      0.7290                 1.3822                 2.1480

                     22                     23                     24
                      A                      A                      A
 Frequencies --    651.2614               693.7891               752.3255
 Red. masses --      2.1712                 4.5102                 1.6102
 Frc consts  --      0.5426                 1.2791                 0.5369
 IR Inten    --      1.6116                21.3507                 5.8490

                     25                     26                     27
                      A                      A                      A
 Frequencies --    774.5205               787.8462               799.6182
 Red. masses --      3.7036                 1.3720                 1.2380
 Frc consts  --      1.3090                 0.5018                 0.4664
 IR Inten    --      1.7491                 0.9765                 1.6153

                     28                     29                     30
                      A                      A                      A
 Frequencies --    858.3265               889.1747               905.8959
 Red. masses --      1.9268                 2.0987                 1.9713
 Frc consts  --      0.8363                 0.9776                 0.9531
 IR Inten    --     15.6162                15.4793                 7.7683

                     31                     32                     33
                      A                      A                      A
 Frequencies --    914.2950               940.1646               950.7136
 Red. masses --      1.9630                 1.8461                 2.1927
 Frc consts  --      0.9668                 0.9614                 1.1677
 IR Inten    --      1.3015                 1.4304                 2.6679

                     34                     35                     36
                      A                      A                      A
 Frequencies --    965.0650               972.1849               980.3204
 Red. masses --      1.8803                 2.1597                 1.6546
 Frc consts  --      1.0318                 1.2027                 0.9368
 IR Inten    --      2.7180                 2.8553                12.7301

                     37                     38                     39
                      A                      A                      A
 Frequencies --   1001.1045              1017.9518              1028.5060
 Red. masses --      2.3029                 2.0216                 2.1948
 Frc consts  --      1.3598                 1.2342                 1.3679
 IR Inten    --      1.9157                17.1090                57.1291

                     40                     41                     42
                      A                      A                      A
 Frequencies --   1045.0729              1058.5436              1074.2088
 Red. masses --      1.9028                 2.1821                 1.9830
 Frc consts  --      1.2244                 1.4406                 1.3482
 IR Inten    --      4.0241                 3.2765                25.3127

                     43                     44                     45
                      A                      A                      A
 Frequencies --   1098.2458              1125.1842              1153.9138
 Red. masses --      1.7286                 2.0781                 2.1390
 Frc consts  --      1.2284                 1.5501                 1.6781
 IR Inten    --      0.9024                21.3582                49.4443

                     46                     47                     48
                      A                      A                      A
 Frequencies --   1164.0953              1176.0741              1217.0878
 Red. masses --      2.5700                 2.3420                 2.2149
 Frc consts  --      2.0520                 1.9086                 1.9331
 IR Inten    --      9.0024                17.5612                 5.3846

                     49                     50                     51
                      A                      A                      A
 Frequencies --   1218.1077              1259.4027              1265.9612
 Red. masses --      1.3976                 1.9227                 1.3575
 Frc consts  --      1.2218                 1.7967                 1.2819
 IR Inten    --      2.5651                13.8768                 1.3569

                     52                     53                     54
                      A                      A                      A
 Frequencies --   1270.6466              1275.7962              1281.7375
 Red. masses --      1.6027                 1.3458                 1.8533
 Frc consts  --      1.5245                 1.2906                 1.7939
 IR Inten    --      2.2307                 0.5319                 3.3922

                     55                     56                     57
                      A                      A                      A
 Frequencies --   1283.1381              1302.3417              1306.5868
 Red. masses --      1.1850                 1.4912                 1.4227
 Frc consts  --      1.1495                 1.4902                 1.4310
 IR Inten    --      0.6367                 4.9081                 1.1061

                     58                     59                     60
                      A                      A                      A
 Frequencies --   1349.8763              1357.7854              1363.1555
 Red. masses --      1.4596                 1.3660                 1.5691
 Frc consts  --      1.5670                 1.4838                 1.7179
 IR Inten    --      8.3158                 2.3455                 5.3544

                     61                     62                     63
                      A                      A                      A
 Frequencies --   1391.3261              1404.6164              1419.7581
 Red. masses --      1.6097                 1.4862                 1.2529
 Frc consts  --      1.8360                 1.7276                 1.4880
 IR Inten    --      1.3145                 1.7177                 6.6566

                     64                     65                     66
                      A                      A                      A
 Frequencies --   1430.0905              1438.2481              1504.8364
 Red. masses --      1.2224                 1.2670                 1.0852
 Frc consts  --      1.4730                 1.5442                 1.4479
 IR Inten    --      6.1281                 5.8559                 0.3974

                     67                     68                     69
                      A                      A                      A
 Frequencies --   1507.6923              1514.2664              1516.1326
 Red. masses --      1.0825                 1.0628                 1.0819
 Frc consts  --      1.4498                 1.4359                 1.4653
 IR Inten    --      1.3059                 1.8430                 3.0135

                     70                     71                     72
                      A                      A                      A
 Frequencies --   1521.1671              1528.0624              1531.8731
 Red. masses --      1.0577                 1.0759                 1.0425
 Frc consts  --      1.4420                 1.4801                 1.4413
 IR Inten    --      2.4883                 5.4560                 4.3532

                     73                     74                     75
                      A                      A                      A
 Frequencies --   1537.6755              1542.4187              1547.3859
 Red. masses --      1.1044                 1.0824                 1.1078
 Frc consts  --      1.5385                 1.5172                 1.5629
 IR Inten    --      2.9460                 8.5091                 6.3547

                     76                     77                     78
                      A                      A                      A
 Frequencies --   1834.4455              2925.2630              3030.8024
 Red. masses --     10.6323                 1.0850                 1.0618
 Frc consts  --     21.0809                 5.4701                 5.7465
 IR Inten    --    132.1251                88.0863                15.3714

                     79                     80                     81
                      A                      A                      A
 Frequencies --   3043.3924              3051.7179              3062.7251
 Red. masses --      1.0826                 1.0344                 1.0390
 Frc consts  --      5.9081                 5.6760                 5.7424
 IR Inten    --     21.6988                12.9862                25.4643

                     82                     83                     84
                      A                      A                      A
 Frequencies --   3064.8100              3068.1054              3069.0167
 Red. masses --      1.0713                 1.0604                 1.0937
 Frc consts  --      5.9289                 5.8812                 6.0693
 IR Inten    --     38.4769                32.4841                45.1923

                     85                     86                     87
                      A                      A                      A
 Frequencies --   3077.9133              3083.7004              3096.1842
 Red. masses --      1.0597                 1.0614                 1.0635
 Frc consts  --      5.9148                 5.9466                 6.0066
 IR Inten    --     73.2733                10.5703                18.4582

                     88                     89                     90
                      A                      A                      A
 Frequencies --   3112.9585              3114.0696              3125.5753
 Red. masses --      1.1037                 1.1047                 1.0991
 Frc consts  --      6.3015                 6.3116                 6.3265
 IR Inten    --     15.0539                14.0255                25.9576

                     91                     92                     93
                      A                      A                      A
 Frequencies --   3126.0182              3129.9268              3135.5286
 Red. masses --      1.1025                 1.1029                 1.1068
 Frc consts  --      6.3475                 6.3660                 6.4112
 IR Inten    --     28.6012                20.4892                 9.2682

                     94                     95                     96
                      A                      A                      A
 Frequencies --   3141.7655              3146.7339              3148.8734
 Red. masses --      1.1050                 1.1022                 1.1030
 Frc consts  --      6.4262                 6.4304                 6.4439
 IR Inten    --     34.9766                16.7753                54.5341

 - Thermochemistry -
 -------------------
 Temperature   298.150 Kelvin.  Pressure   1.00000 Atm.
 Atom     1 has atomic number  6 and mass  12.00000

 Molecular mass:   196.14633 amu.
 Principal axes and moments of inertia in atomic units:
                           1         2         3
     Eigenvalues --  2090.650372852.634313807.92910
           X            0.99841  -0.05474  -0.01312
           Y            0.05453   0.99839  -0.01588
           Z            0.01397   0.01514   0.99979
 This molecule is an asymmetric top.
 Rotational symmetry number  1.
 Warning -- assumption of classical behavior for rotation
           may cause significant error
 Rotational temperatures (Kelvin)      0.04143     0.03036     0.02275
 Rotational constants (GHZ):           0.86324     0.63266     0.47394
 Zero-point vibrational energy     796621.2 (Joules/Mol)
                                  190.39703 (Kcal/Mol)
 Warning -- explicit consideration of  21 degrees of freedom as
           vibrations may cause significant error
 Vibrational temperatures:     48.73    81.37   110.76   137.78   143.57
          (Kelvin)            205.82   256.30   302.61   323.15   347.88
                              375.83   388.90   423.77   479.67   511.53
                              529.98   592.89   640.20   718.31   776.18
                              848.34   937.02   998.21  1082.43  1114.36
                             1133.53  1150.47  1234.94  1279.32  1303.38
                             1315.47  1352.69  1367.86  1388.51  1398.76
                             1410.46  1440.37  1464.61  1479.79  1503.63
                             1523.01  1545.55  1580.13  1618.89  1660.22
                             1674.87  1692.11  1751.12  1752.59  1812.00
                             1821.44  1828.18  1835.59  1844.13  1846.15
                             1873.78  1879.89  1942.17  1953.55  1961.28
                             2001.81  2020.93  2042.72  2057.58  2069.32
                             2165.12  2169.23  2178.69  2181.38  2188.62
                             2198.54  2204.02  2212.37  2219.20  2226.34
                             2639.36  4208.80  4360.65  4378.76  4390.74
                             4406.58  4409.58  4414.32  4415.63  4428.43
                             4436.76  4454.72  4478.85  4480.45  4497.01
                             4497.64  4503.27  4511.33  4520.30  4527.45
                             4530.53

 Zero-point correction=                           0.303417 (Hartree/Particle)
 Thermal correction to Energy=                    0.318160
 Thermal correction to Enthalpy=                  0.319104
 Thermal correction to Gibbs Free Energy=         0.261691
 Sum of electronic and zero-point Energies=           -619.490711
 Sum of electronic and thermal Energies=              -619.475968
 Sum of electronic and thermal Enthalpies=            -619.475024
 Sum of electronic and thermal Free Energies=         -619.532437

                     E (Thermal)             CV                S
                      KCal/Mol        Cal/Mol-Kelvin    Cal/Mol-Kelvin
 Total                  199.648             56.279            120.835
 Electronic               0.000              0.000              0.000
 Translational            0.889              2.981             41.726
 Rotational               0.889              2.981             31.496
 Vibrational            197.871             50.317             47.612
 Vibration     1          0.594              1.983              5.589
 Vibration     2          0.596              1.975              4.574
 Vibration     3          0.599              1.965              3.966
 Vibration     4          0.603              1.952              3.539
 Vibration     5          0.604              1.949              3.458
 Vibration     6          0.616              1.910              2.763
 Vibration     7          0.629              1.869              2.348
 Vibration     8          0.642              1.825              2.041
 Vibration     9          0.649              1.804              1.922
 Vibration    10          0.658              1.776              1.790
 Vibration    11          0.669              1.744              1.654
 Vibration    12          0.674              1.728              1.594
 Vibration    13          0.689              1.684              1.448
 Vibration    14          0.715              1.609              1.244
 Vibration    15          0.731              1.564              1.142
 Vibration    16          0.741              1.537              1.087
 Vibration    17          0.776              1.444              0.919
 Vibration    18          0.804              1.372              0.811
 Vibration    19          0.855              1.252              0.660
 Vibration    20          0.895              1.163              0.566
 Vibration    21          0.947              1.054              0.468

 Optimization completed.
    -- Stationary point found.
 Normal termination of Gaussian 16 at Thu Dec 10 10:38:00 2020.

 ----------------------------------------------------------------------
 # B3LYP/6-311++G(d,p) empiricaldispersion=gd3bj scf=xqc pop=npa geom=c
 heck
 ----------------------------------------------------------------------

 ---------------------------------------
 CID_130639422_JID_4635_Energie_neutraal
 ---------------------------------------
 Structure from the checkpoint file:  "JID_4635.chk"
 Charge =  0 Multiplicity = 1

 SCF Done:  E(RB3LYP) =  -619.965959378     A.U. after   14 cycles
 Normal termination of Gaussian 16 at Thu Dec 10 10:44:18 2020.

 ----------------------------------------------------------------------
 # B3LYP/6-311++G(d,p) empiricaldispersion=gd3bj scf=xqc pop=npa geom=c
 heck
 ----------------------------------------------------------------------

 -------------------------------------
 CID_130639422_JID_4635_Energie_kation
 -------------------------------------
 Structure from the checkpoint file:  "JID_4635.chk"
 Charge =  1 Multiplicity = 2

 SCF Done:  E(UB3LYP) =  -619.647344255     A.U. after   23 cycles
 Normal termination of Gaussian 16 at Thu Dec 10 10:59:50 2020.
 Gaussian 16:  ES64L-G16RevA.03 25-Dec-2016

 ----------------------------------------------------------------------
 # B3LYP/6-311++G(d,p) empiricaldispersion=gd3bj scf=xqc pop=npa geom=c
 heck
 ----------------------------------------------------------------------

 ------------------------------------
 CID_130639422_JID_4635_Energie_anion
 ------------------------------------
 Structure from the checkpoint file:  "JID_4635.chk"
 Charge = -1 Multiplicity = 2

                         Standard orientation:
 ---------------------------------------------------------------------
 Center     Atomic      Atomic             Coordinates (Angstroms)
 Number     Number       Type             X           Y           Z
 ---------------------------------------------------------------------
      1          6           0        1.969941    2.319762   -1.007310
      2          6           0        1.205240    2.104557    0.299901
      3          6           0        0.565745    0.716599    0.483980
      4          6           0       -0.322146    0.691163    1.752807
      5          6           0       -1.598451   -0.046639    1.328588
      6          6           0       -1.685968    0.235470   -0.176952
      7          8           0       -0.345613    0.504047   -0.624345
      8          6           0       -2.582760    1.427711   -0.527659
      9          6           0       -2.122273   -0.977392   -0.995678
     10          8           0       -2.622730   -1.980968   -0.540917
     11          6           0        1.597212   -0.418463    0.505407
     12          6           0        1.121430   -1.885160    0.713142
     13          6           0        2.235683   -2.341454   -0.260802
     14          6           0        2.292261   -0.892150   -0.802769
     15          1           0        2.883464    1.721193   -1.053684
     16          1           0        2.257859    3.371860   -1.110443
     17          1           0        1.343265    2.052354   -1.863190
     18          1           0        1.862702    2.294597    1.159562
     19          1           0        0.394277    2.841660    0.360429
     20          1           0        0.182699    0.202998    2.591394
     21          1           0       -0.556017    1.715207    2.064076
     22          1           0       -2.486361    0.307693    1.859282
     23          1           0       -1.524784   -1.122436    1.499431
     24          1           0       -2.512372    1.657477   -1.595886
     25          1           0       -3.629560    1.220155   -0.278259
     26          1           0       -2.258717    2.311760    0.031567
     27          1           0       -1.925855   -0.868810   -2.084743
     28          1           0        2.354106   -0.171642    1.261594
     29          1           0        1.124064   -2.285839    1.731956
     30          1           0        0.136013   -2.053239    0.271780
     31          1           0        1.991484   -3.140504   -0.967119
     32          1           0        3.154860   -2.611316    0.270062
     33          1           0        1.625124   -0.754798   -1.658003
     34          1           0        3.275004   -0.477016   -1.043635
 ---------------------------------------------------------------------

 SCF Done:  E(UB3LYP) =  -619.953803200     A.U. after   33 cycles
 SCF Done:  E(UB3LYP) =  -619.953803200     a.u. after    1 cycles

 The electronic state is 2-A.
 Alpha  occ. eigenvalues --  -19.01181 -18.99816 -10.12529 -10.12115 -10.12030
 Alpha  occ. eigenvalues --  -10.06908 -10.06709 -10.06434 -10.06250 -10.06246
 Alpha  occ. eigenvalues --  -10.06208 -10.05931 -10.05633 -10.05163  -0.93765
 Alpha  occ. eigenvalues --   -0.92341  -0.74748  -0.69377  -0.68607  -0.64126
 Alpha  occ. eigenvalues --   -0.58801  -0.55607  -0.55323  -0.52911  -0.50654
 Alpha  occ. eigenvalues --   -0.46778  -0.45016  -0.42579  -0.39569  -0.38186
 Alpha  occ. eigenvalues --   -0.37564  -0.36404  -0.33856  -0.32932  -0.32794
 Alpha  occ. eigenvalues --   -0.31348  -0.30787  -0.29744  -0.29349  -0.28578
 Alpha  occ. eigenvalues --   -0.27976  -0.26392  -0.25797  -0.25619  -0.24674
 Alpha  occ. eigenvalues --   -0.24321  -0.23965  -0.22038  -0.21868  -0.21402
 Alpha  occ. eigenvalues --   -0.19873  -0.19412  -0.16267  -0.12932   0.04676
 Alpha virt. eigenvalues --    0.06257   0.07279   0.07689   0.08136   0.09400
 Alpha virt. eigenvalues --    0.09483   0.09786   0.09988   0.10845   0.11684
 Alpha virt. eigenvalues --    0.12130   0.12562   0.12855   0.12968   0.13532

  Beta  occ. eigenvalues --  -19.01151 -18.99592 -10.12311 -10.12130 -10.12033
  Beta  occ. eigenvalues --  -10.06896 -10.06702 -10.06416 -10.06244 -10.06241
  Beta  occ. eigenvalues --  -10.06202 -10.05906 -10.05577 -10.05149  -0.93559
  Beta  occ. eigenvalues --   -0.92070  -0.74728  -0.69321  -0.68569  -0.64059
  Beta  occ. eigenvalues --   -0.58750  -0.55589  -0.55216  -0.52672  -0.50568
  Beta  occ. eigenvalues --   -0.46692  -0.44876  -0.42500  -0.39509  -0.38141
  Beta  occ. eigenvalues --   -0.37434  -0.36348  -0.33764  -0.32896  -0.32574
  Beta  occ. eigenvalues --   -0.31183  -0.30662  -0.29667  -0.29268  -0.28547
  Beta  occ. eigenvalues --   -0.27912  -0.25964  -0.25727  -0.25150  -0.24647
  Beta  occ. eigenvalues --   -0.24178  -0.23904  -0.22017  -0.21822  -0.21362
  Beta  occ. eigenvalues --   -0.19843  -0.19394  -0.16177  -0.12777
  Beta virt. eigenvalues --    0.06840   0.07731   0.08115   0.08332   0.09016
  Beta virt. eigenvalues --    0.09741   0.09923   0.10189   0.10297   0.11159
  Beta virt. eigenvalues --    0.11909   0.12492   0.12813   0.13152   0.13221

 Mulliken charges and spin densities:
               1          2
     1  C    0.072227  -0.670877
     2  C    0.401812  -0.439991
     3  C   -0.674815   1.291726
     4  C    0.979537  -1.262713
     5  C   -0.669675   0.115711
     6  C   -0.956116   0.980479
     7  O    0.095009   0.017041
     8  C    1.254830  -1.733992
     9  C   -0.049720   0.132753
    10  O   -0.246885   0.066168
    11  C   -0.094160  -0.574507
    12  C   -0.078476  -0.127829
    13  C    0.597899  -1.163064
    14  C   -0.221350  -0.054038
    15  H    0.034694   0.090466
    16  H   -0.467286   0.626273
    17  H    0.184360  -0.025566
    18  H   -0.223537   0.374794
    19  H    0.019296   0.123476
    20  H   -0.106953   0.289466
    21  H   -0.393310   0.580297
    22  H   -0.078494   0.250965
    23  H    0.152373   0.050094
    24  H   -0.114076   0.259996
    25  H   -0.033236   0.179299
    26  H   -0.380797   0.550353
    27  H    0.078231   0.009463
    28  H   -0.329664   0.537372
    29  H    0.009096   0.141756
    30  H    0.043342   0.040224
    31  H    0.175698  -0.039764
    32  H   -0.133786   0.265899
    33  H    0.122335   0.033248
    34  H    0.031598   0.085022
 Sum of Mulliken charges =  -1.00000   1.00000

 Dipole moment (field-independent basis, Debye):
    X=              0.9642    Y=             -3.1166    Z=             -1.5682  Tot=              3.6197
 Quadrupole moment (field-independent basis, Debye-Ang):
   XX=           -142.4980   YY=           -141.8926   ZZ=           -118.2783
   XY=             -3.4806   XZ=             -5.4091   YZ=             -1.4789

 Summary of Natural Population Analysis:

                                       Natural Population
                Natural  -----------------------------------------------
    Atom  No    Charge         Core      Valence    Rydberg      Total
 -----------------------------------------------------------------------
      C    1   -0.28662      0.99966     2.28161    0.00535     3.28662
      C    2   -0.19060      0.99957     2.18120    0.00983     3.19060
      C    3    0.14160      0.99947     1.84037    0.01857     2.85840
      C    4   -0.19732      0.99958     2.18879    0.00895     3.19732
      C    5   -0.20052      0.99959     2.19175    0.00919     3.20052
      C    6    0.08843      0.99952     1.89695    0.01510     2.91157
      O    7   -0.31931      0.99987     3.30934    0.01010     4.31931
      C    8   -0.29112      0.99961     2.28455    0.00697     3.29112
      C    9    0.25349      0.99966     1.72563    0.02122     2.74651
      O   10   -0.26467      0.99988     3.25854    0.00625     4.26467
      C   11   -0.11492      0.99953     2.10223    0.01315     3.11492
      C   12   -0.19145      0.99962     2.18323    0.00860     3.19145
      C   13   -0.18906      0.99965     2.18154    0.00788     3.18906
      C   14   -0.18817      0.99962     2.18027    0.00828     3.18817
      H   15    0.09522      0.00000     0.40367    0.00111     0.40478
      H   16    0.09769      0.00000     0.40145    0.00085     0.40231
      H   17    0.10256      0.00000     0.39624    0.00120     0.39744
      H   18    0.09676      0.00000     0.40183    0.00140     0.40324
      H   19    0.09948      0.00000     0.39882    0.00170     0.40052
      H   20    0.10440      0.00000     0.39452    0.00108     0.39560
      H   21    0.10179      0.00000     0.39649    0.00172     0.39821
      H   22    0.10396      0.00000     0.39507    0.00097     0.39604
      H   23    0.10911      0.00000     0.38949    0.00140     0.39089
      H   24    0.10302      0.00000     0.39589    0.00109     0.39698
      H   25    0.10001      0.00000     0.39893    0.00107     0.39999
      H   26    0.10706      0.00000     0.39048    0.00245     0.39294
      H   27    0.04568      0.00000     0.45205    0.00227     0.45432
      H   28    0.10070      0.00000     0.39765    0.00165     0.39930
      H   29    0.09512      0.00000     0.40401    0.00087     0.40488
      H   30    0.10380      0.00000     0.39468    0.00152     0.39620
      H   31    0.09255      0.00000     0.40674    0.00071     0.40745
      H   32    0.09303      0.00000     0.40578    0.00119     0.40697
      H   33    0.10399      0.00000     0.39468    0.00133     0.39601
      H   34    0.09432      0.00000     0.40479    0.00089     0.40568
 =======================================================================
   * Total *   -0.00000     13.99483    39.82927    0.17590    54.00000

 Normal termination of Gaussian 16 at Thu Dec 10 11:18:12 2020.
