 Gaussian 16, Revision A.03,

 -----------------------------------------------------------
 # opt freq B3LYP/6-31G(d) empiricaldispersion=gd3bj scf=xqc
 -----------------------------------------------------------

 ------------------------------
 CID_80361995_JID_8265_neutraal
 ------------------------------
 Symbolic Z-matrix:
 Charge =  0 Multiplicity = 1

 SCF Done:  E(RB3LYP) =  -816.763639464     A.U. after   15 cycles
 SCF Done:  E(RB3LYP) =  -816.769363327     A.U. after   12 cycles
 SCF Done:  E(RB3LYP) =  -816.770478825     A.U. after   12 cycles
 SCF Done:  E(RB3LYP) =  -816.770933652     A.U. after   12 cycles
 SCF Done:  E(RB3LYP) =  -816.771148182     A.U. after   12 cycles
 SCF Done:  E(RB3LYP) =  -816.771207541     A.U. after   11 cycles
 SCF Done:  E(RB3LYP) =  -816.771251973     A.U. after   11 cycles
 SCF Done:  E(RB3LYP) =  -816.771259393     A.U. after   10 cycles
 SCF Done:  E(RB3LYP) =  -816.771263157     A.U. after   10 cycles
 SCF Done:  E(RB3LYP) =  -816.771264588     A.U. after    9 cycles
 SCF Done:  E(RB3LYP) =  -816.771264934     A.U. after    8 cycles
 SCF Done:  E(RB3LYP) =  -816.771265083     A.U. after    7 cycles
 SCF Done:  E(RB3LYP) =  -816.771265157     A.U. after    7 cycles
 Optimization completed.
    -- Stationary point found.
 Normal termination of Gaussian 16 at Fri Dec 11 19:48:51 2020.

 --------------------------------------------------------------------
 #N Geom=AllCheck Guess=TCheck SCRF=Check GenChk RB3LYP/6-31G(d) Freq
 --------------------------------------------------------------------

 Structure from the checkpoint file:  "JID_8265.chk"
 ------------------------------
 CID_80361995_JID_8265_neutraal
 ------------------------------
 Charge =  0 Multiplicity = 1

 SCF Done:  E(RB3LYP) =  -816.771265157     A.U. after    1 cycles

  Exact polarizability: 281.847 -14.198 186.564   0.593  -0.130  60.250
 Approx polarizability: 408.490 -31.064 330.234   0.614   1.583  95.020

                      1                      2                      3
                      A                      A                      A
 Frequencies --     21.7754                59.1723                87.6759
 Red. masses --      4.7715                 5.4376                 4.8939
 Frc consts  --      0.0013                 0.0112                 0.0222
 IR Inten    --      0.1651                 1.0983                 0.3597

                      4                      5                      6
                      A                      A                      A
 Frequencies --    118.7588               137.8488               188.6553
 Red. masses --      3.5672                 3.5706                 1.6924
 Frc consts  --      0.0296                 0.0400                 0.0355
 IR Inten    --      6.8603                 0.2255                 1.8165

                      7                      8                      9
                      A                      A                      A
 Frequencies --    194.2064               196.0552               240.7594
 Red. masses --      2.4410                 4.1457                 4.2976
 Frc consts  --      0.0542                 0.0939                 0.1468
 IR Inten    --      1.9774                 3.0442                 0.6893

                     10                     11                     12
                      A                      A                      A
 Frequencies --    256.0670               282.6130               308.6695
 Red. masses --      4.7650                 4.6866                 4.4751
 Frc consts  --      0.1841                 0.2205                 0.2512
 IR Inten    --      2.2614                 3.0610                 3.8864

                     13                     14                     15
                      A                      A                      A
 Frequencies --    345.1373               361.1289               379.4603
 Red. masses --      2.6315                 2.1517                 2.1786
 Frc consts  --      0.1847                 0.1653                 0.1848
 IR Inten    --     23.0069                22.0118                17.1015

                     16                     17                     18
                      A                      A                      A
 Frequencies --    487.3384               497.0117               520.9765
 Red. masses --      4.9846                 4.9229                 7.0730
 Frc consts  --      0.6975                 0.7165                 1.1311
 IR Inten    --      1.4785                 2.3389                15.3751

                     19                     20                     21
                      A                      A                      A
 Frequencies --    542.8098               561.5875               569.4302
 Red. masses --      3.3096                 3.2836                 1.7398
 Frc consts  --      0.5745                 0.6101                 0.3324
 IR Inten    --     23.8080                29.4490               211.4668

                     22                     23                     24
                      A                      A                      A
 Frequencies --    580.2154               626.1254               633.4246
 Red. masses --      7.2266                 5.6755                 3.5433
 Frc consts  --      1.4334                 1.3109                 0.8376
 IR Inten    --      7.9053                 2.1960                82.5229

                     25                     26                     27
                      A                      A                      A
 Frequencies --    636.2011               679.9714               716.2270
 Red. masses --      5.2858                 6.4384                 6.1483
 Frc consts  --      1.2605                 1.7539                 1.8583
 IR Inten    --      3.1146                 2.4016                 0.1783

                     28                     29                     30
                      A                      A                      A
 Frequencies --    745.9055               749.6858               771.7827
 Red. masses --      1.8797                 6.6075                 4.6549
 Frc consts  --      0.6162                 2.1880                 1.6336
 IR Inten    --     28.7742                 4.3630                10.7972

                     31                     32                     33
                      A                      A                      A
 Frequencies --    775.2425               814.1279               843.8040
 Red. masses --      3.1048                 1.4588                 1.4263
 Frc consts  --      1.0994                 0.5697                 0.5983
 IR Inten    --     50.8259                14.2471                 2.4949

                     34                     35                     36
                      A                      A                      A
 Frequencies --    861.0301               888.0448               936.4906
 Red. masses --      5.7131                 5.7573                12.4878
 Frc consts  --      2.4955                 2.6751                 6.4527
 IR Inten    --      2.1195                 6.3377                 4.7509

                     37                     38                     39
                      A                      A                      A
 Frequencies --    941.4072               965.6967               981.5467
 Red. masses --      1.2384                 1.3799                 1.3204
 Frc consts  --      0.6467                 0.7582                 0.7495
 IR Inten    --      0.3368                 0.0341                 1.4777

                     40                     41                     42
                      A                      A                      A
 Frequencies --   1036.3100              1038.8230              1059.4785
 Red. masses --      7.9906                 2.2981                 8.3446
 Frc consts  --      5.0560                 1.4612                 5.5187
 IR Inten    --     22.8621                18.5544               128.6932

                     43                     44                     45
                      A                      A                      A
 Frequencies --   1088.4992              1108.0056              1156.2320
 Red. masses --      2.0239                 2.1347                 1.5639
 Frc consts  --      1.4129                 1.5441                 1.2318
 IR Inten    --     14.9384                16.1973                34.3786

                     46                     47                     48
                      A                      A                      A
 Frequencies --   1167.8163              1184.0599              1199.6904
 Red. masses --      1.4147                 1.2669                 1.4745
 Frc consts  --      1.1367                 1.0465                 1.2504
 IR Inten    --      2.1183                 0.6511                 0.4306

                     49                     50                     51
                      A                      A                      A
 Frequencies --   1212.1587              1270.2008              1285.6222
 Red. masses --      1.3837                 3.8128                 2.1815
 Frc consts  --      1.1979                 3.6244                 2.1244
 IR Inten    --      6.5997                23.1127                22.7586

                     52                     53                     54
                      A                      A                      A
 Frequencies --   1308.3480              1314.2454              1337.9314
 Red. masses --      2.6437                 3.1700                 5.8793
 Frc consts  --      2.6663                 3.2260                 6.2007
 IR Inten    --      2.9851                41.2921                18.6380

                     55                     56                     57
                      A                      A                      A
 Frequencies --   1352.5892              1368.0905              1411.6354
 Red. masses --      2.6729                 3.4077                 6.1085
 Frc consts  --      2.8811                 3.7578                 7.1718
 IR Inten    --     53.4381                99.4111                23.8050

                     58                     59                     60
                      A                      A                      A
 Frequencies --   1462.7750              1484.1671              1494.0943
 Red. masses --      1.6930                 2.8280                 2.2792
 Frc consts  --      2.1343                 3.6702                 2.9977
 IR Inten    --    137.5026                 5.1292                26.6751

                     61                     62                     63
                      A                      A                      A
 Frequencies --   1509.9569              1523.6004              1531.6148
 Red. masses --      1.0493                 1.1130                 1.7937
 Frc consts  --      1.4096                 1.5222                 2.4791
 IR Inten    --      4.8712                53.5100                86.4180

                     64                     65                     66
                      A                      A                      A
 Frequencies --   1553.2307              1602.6379              1628.6015
 Red. masses --      3.2430                 7.8222                 6.3688
 Frc consts  --      4.6097                11.8372                 9.9526
 IR Inten    --     68.7366                 8.9124                93.5662

                     67                     68                     69
                      A                      A                      A
 Frequencies --   1643.3073              1666.5901              1670.0478
 Red. masses --      5.5449                 2.2514                 4.8875
 Frc consts  --      8.8222                 3.6844                 8.0314
 IR Inten    --     24.7065                13.4030                44.2996

                     70                     71                     72
                      A                      A                      A
 Frequencies --   1694.5685              3068.4765              3140.1438
 Red. masses --      2.3116                 1.0296                 1.1071
 Frc consts  --      3.9110                 5.7115                 6.4317
 IR Inten    --    221.3412                54.7877                25.1038

                     73                     74                     75
                      A                      A                      A
 Frequencies --   3174.3005              3179.0605              3183.3837
 Red. masses --      1.1064                 1.0898                 1.0873
 Frc consts  --      6.5683                 6.4892                 6.4921
 IR Inten    --     21.9647                19.2413                15.0595

                     76                     77                     78
                      A                      A                      A
 Frequencies --   3202.1123              3219.7341              3236.1787
 Red. masses --      1.0921                 1.0914                 1.0941
 Frc consts  --      6.5974                 6.6660                 6.7512
 IR Inten    --     23.7988                18.6573                 7.4669

                     79                     80                     81
                      A                      A                      A
 Frequencies --   3238.1113              3559.0610              3666.5790
 Red. masses --      1.0944                 1.0469                 1.0999
 Frc consts  --      6.7608                 7.8131                 8.7124
 IR Inten    --      4.3721                24.5675                19.2161

 - Thermochemistry -
 -------------------
 Temperature   298.150 Kelvin.  Pressure   1.00000 Atm.
 Atom     1 has atomic number  6 and mass  12.00000

 Molecular mass:   241.08513 amu.
 Principal axes and moments of inertia in atomic units:
                           1         2         3
     Eigenvalues --  1958.834597008.112568953.90956
           X            1.00000   0.00242   0.00095
           Y           -0.00242   0.99999  -0.00249
           Z           -0.00096   0.00249   1.00000
 This molecule is an asymmetric top.
 Rotational symmetry number  1.
 Warning -- assumption of classical behavior for rotation
           may cause significant error
 Rotational temperatures (Kelvin)      0.04422     0.01236     0.00967
 Rotational constants (GHZ):           0.92133     0.25752     0.20156
 Zero-point vibrational energy     590573.2 (Joules/Mol)
                                  141.15039 (Kcal/Mol)
 Warning -- explicit consideration of  22 degrees of freedom as
           vibrations may cause significant error
 Vibrational temperatures:     31.33    85.14   126.15   170.87   198.33
          (Kelvin)            271.43   279.42   282.08   346.40   368.42
                              406.62   444.11   496.58   519.58   545.96
                              701.17   715.09   749.57   780.98   808.00
                              819.28   834.80   900.85   911.36   915.35
                              978.33  1030.49  1073.19  1078.63  1110.42
                             1115.40  1171.35  1214.05  1238.83  1277.70
                             1347.40  1354.47  1389.42  1412.23  1491.02
                             1494.63  1524.35  1566.11  1594.17  1663.56
                             1680.23  1703.60  1726.09  1744.03  1827.54
                             1849.72  1882.42  1890.91  1924.98  1946.07
                             1968.38  2031.03  2104.61  2135.39  2149.67
                             2172.49  2192.12  2203.65  2234.75  2305.84
                             2343.19  2364.35  2397.85  2402.83  2438.11
                             4414.85  4517.97  4567.11  4573.96  4580.18
                             4607.13  4632.48  4656.14  4658.92  5120.69
                             5275.39

 Zero-point correction=                           0.224937 (Hartree/Particle)
 Thermal correction to Energy=                    0.239405
 Thermal correction to Enthalpy=                  0.240350
 Thermal correction to Gibbs Free Energy=         0.182723
 Sum of electronic and zero-point Energies=           -816.546328
 Sum of electronic and thermal Energies=              -816.531860
 Sum of electronic and thermal Enthalpies=            -816.530916
 Sum of electronic and thermal Free Energies=         -816.588542

                     E (Thermal)             CV                S
                      KCal/Mol        Cal/Mol-Kelvin    Cal/Mol-Kelvin
 Total                  150.229             56.917            121.284
 Electronic               0.000              0.000              0.000
 Translational            0.889              2.981             42.341
 Rotational               0.889              2.981             33.174
 Vibrational            148.452             50.956             45.769
 Vibration     1          0.593              1.985              6.465
 Vibration     2          0.597              1.974              4.485
 Vibration     3          0.601              1.958              3.711
 Vibration     4          0.609              1.934              3.120
 Vibration     5          0.614              1.916              2.834
 Vibration     6          0.633              1.855              2.241
 Vibration     7          0.635              1.848              2.187
 Vibration     8          0.636              1.845              2.170
 Vibration     9          0.658              1.778              1.797
 Vibration    10          0.666              1.753              1.688
 Vibration    11          0.682              1.706              1.518
 Vibration    12          0.698              1.657              1.369
 Vibration    13          0.724              1.585              1.188
 Vibration    14          0.735              1.552              1.117
 Vibration    15          0.749              1.514              1.041
 Vibration    16          0.843              1.278              0.691
 Vibration    17          0.853              1.257              0.666
 Vibration    18          0.876              1.204              0.608
 Vibration    19          0.898              1.155              0.559
 Vibration    20          0.917              1.114              0.521
 Vibration    21          0.925              1.097              0.505
 Vibration    22          0.937              1.074              0.485

 Optimization completed.
    -- Stationary point found.
 Normal termination of Gaussian 16 at Fri Dec 11 19:58:59 2020.

 ----------------------------------------------------------------------
 # B3LYP/6-311++G(d,p) empiricaldispersion=gd3bj scf=xqc pop=npa geom=c
 heck
 ----------------------------------------------------------------------

 --------------------------------------
 CID_80361995_JID_8265_Energie_neutraal
 --------------------------------------
 Structure from the checkpoint file:  "JID_8265.chk"
 Charge =  0 Multiplicity = 1

 SCF Done:  E(RB3LYP) =  -816.990042718     A.U. after   16 cycles
 Normal termination of Gaussian 16 at Fri Dec 11 20:03:01 2020.

 ----------------------------------------------------------------------
 # B3LYP/6-311++G(d,p) empiricaldispersion=gd3bj scf=xqc pop=npa geom=c
 heck
 ----------------------------------------------------------------------

 ------------------------------------
 CID_80361995_JID_8265_Energie_kation
 ------------------------------------
 Structure from the checkpoint file:  "JID_8265.chk"
 Charge =  1 Multiplicity = 2

 SCF Done:  E(UB3LYP) =  -816.723521380     A.U. after   21 cycles
 Normal termination of Gaussian 16 at Fri Dec 11 20:10:30 2020.
 Gaussian 16:  ES64L-G16RevA.03 25-Dec-2016

 ----------------------------------------------------------------------
 # B3LYP/6-311++G(d,p) empiricaldispersion=gd3bj scf=xqc pop=npa geom=c
 heck
 ----------------------------------------------------------------------

 -----------------------------------
 CID_80361995_JID_8265_Energie_anion
 -----------------------------------
 Structure from the checkpoint file:  "JID_8265.chk"
 Charge = -1 Multiplicity = 2

                         Standard orientation:
 ---------------------------------------------------------------------
 Center     Atomic      Atomic             Coordinates (Angstroms)
 Number     Number       Type             X           Y           Z
 ---------------------------------------------------------------------
      1          6           0        2.944353    2.806610   -0.001583
      2          8           0        1.989126    1.742111   -0.005670
      3          6           0        2.469031    0.490107   -0.003715
      4          6           0        1.534260   -0.583266    0.000831
      5          6           0        2.067824   -1.876129    0.001083
      6          6           0        3.447755   -2.068733   -0.002260
      7          6           0        4.261726   -0.942577   -0.005668
      8          7           0        3.785427    0.309781   -0.006572
      9          6           0        0.094271   -0.384930    0.006535
     10          7           0       -0.608844    0.710058    0.010177
     11          6           0       -1.931305    0.281114    0.016576
     12          6           0       -3.116644    1.038452    0.011381
     13          6           0       -4.312794    0.304414   -0.010857
     14          6           0       -4.315681   -1.099177   -0.019097
     15          6           0       -3.142010   -1.859959   -0.006450
     16          6           0       -1.971374   -1.115348    0.010900
     17          8           0       -0.668930   -1.549442    0.007894
     18          7           0       -3.059459    2.420414    0.076910
     19          1           0        2.347166    3.719320    0.001541
     20          1           0        3.580993    2.765252   -0.889892
     21          1           0        3.579727    2.759168    0.887243
     22          1           0        1.389665   -2.721535    0.004594
     23          1           0        3.875565   -3.065251   -0.001719
     24          1           0        5.345869   -1.035998   -0.007791
     25          1           0       -5.258977    0.839009   -0.013490
     26          1           0       -5.272820   -1.612442   -0.035627
     27          1           0       -3.147771   -2.943174   -0.013329
     28          1           0       -2.157832    2.810475   -0.168832
     29          1           0       -3.839507    2.918593   -0.330160
 ---------------------------------------------------------------------

 SCF Done:  E(UB3LYP) =  -817.003634832     A.U. after   25 cycles

 The electronic state is 2-A.
 Alpha  occ. eigenvalues --  -19.04141 -19.02324 -14.20657 -14.15718 -14.14968
 Alpha  occ. eigenvalues --  -10.12158 -10.10580 -10.10291 -10.09607 -10.08729
 Alpha  occ. eigenvalues --  -10.06118 -10.05040 -10.04756 -10.04684 -10.04546
 Alpha  occ. eigenvalues --  -10.03425 -10.02996 -10.02674  -0.97728  -0.94970
 Alpha  occ. eigenvalues --   -0.81042  -0.79158  -0.77044  -0.71670  -0.66987
 Alpha  occ. eigenvalues --   -0.63396  -0.61471  -0.60416  -0.57621  -0.52164
 Alpha  occ. eigenvalues --   -0.49825  -0.47725  -0.46916  -0.45708  -0.40851
 Alpha  occ. eigenvalues --   -0.40217  -0.39009  -0.37616  -0.36587  -0.35142
 Alpha  occ. eigenvalues --   -0.35038  -0.34315  -0.33433  -0.32581  -0.30557
 Alpha  occ. eigenvalues --   -0.28969  -0.28096  -0.27048  -0.25855  -0.25327
 Alpha  occ. eigenvalues --   -0.25160  -0.24129  -0.23172  -0.21799  -0.20453
 Alpha  occ. eigenvalues --   -0.20097  -0.17803  -0.15629  -0.14206  -0.12783
 Alpha  occ. eigenvalues --   -0.11897  -0.09644  -0.07577   0.04075
 Alpha virt. eigenvalues --    0.07450   0.08474   0.08765   0.09477   0.10246
 Alpha virt. eigenvalues --    0.11382   0.11804   0.11897   0.12504   0.12601
 Alpha virt. eigenvalues --    0.13322   0.13431   0.13479   0.14872   0.15499

  Beta  occ. eigenvalues --  -19.04021 -19.02315 -14.20636 -14.15666 -14.14736
  Beta  occ. eigenvalues --  -10.12106 -10.10336 -10.10290 -10.09583 -10.08596
  Beta  occ. eigenvalues --  -10.06158 -10.04917 -10.04805 -10.04677 -10.04118
  Beta  occ. eigenvalues --  -10.03308 -10.03131 -10.02325  -0.97498  -0.94922
  Beta  occ. eigenvalues --   -0.80914  -0.78832  -0.76669  -0.71515  -0.66520
  Beta  occ. eigenvalues --   -0.63102  -0.61369  -0.60251  -0.57414  -0.51599
  Beta  occ. eigenvalues --   -0.49633  -0.47551  -0.46689  -0.45539  -0.40762
  Beta  occ. eigenvalues --   -0.40058  -0.38819  -0.37494  -0.36426  -0.35019
  Beta  occ. eigenvalues --   -0.34881  -0.34222  -0.32792  -0.32429  -0.30437
  Beta  occ. eigenvalues --   -0.28790  -0.28010  -0.26406  -0.25503  -0.25115
  Beta  occ. eigenvalues --   -0.24966  -0.23992  -0.23044  -0.21720  -0.19696
  Beta  occ. eigenvalues --   -0.19443  -0.16982  -0.14257  -0.13922  -0.12671
  Beta  occ. eigenvalues --   -0.11210  -0.09168  -0.06583
  Beta virt. eigenvalues --    0.07424   0.08455   0.08743   0.09436   0.09604
  Beta virt. eigenvalues --    0.10221   0.11372   0.11774   0.12427   0.12592
  Beta virt. eigenvalues --    0.13207   0.13413   0.13478   0.14004   0.14864

 Mulliken charges and spin densities:
               1          2
     1  C   -0.325980   0.000321
     2  O   -0.088497   0.006474
     3  C   -0.521673   0.024209
     4  C    0.695088   0.052724
     5  C   -0.903681   0.291465
     6  C   -0.110747  -0.086951
     7  C   -0.476231   0.334839
     8  N   -0.124822   0.001308
     9  C    0.228384   0.110288
    10  N   -0.076306   0.104714
    11  C    0.363580  -0.013963
    12  C   -0.504629   0.069763
    13  C   -0.114035  -0.034884
    14  C   -0.212920   0.101814
    15  C   -0.744134  -0.003651
    16  C    0.785504   0.036630
    17  O   -0.125541   0.026665
    18  N   -0.400981   0.016518
    19  H    0.113957   0.000077
    20  H    0.165264   0.000856
    21  H    0.166673   0.000419
    22  H    0.147284  -0.020367
    23  H    0.123061   0.007060
    24  H    0.117531  -0.026379
    25  H    0.105506   0.002716
    26  H    0.119402  -0.007830
    27  H    0.118687  -0.000816
    28  H    0.263658   0.001358
    29  H    0.216599   0.004623
 Sum of Mulliken charges =  -1.00000   1.00000

 Dipole moment (field-independent basis, Debye):
    X=             -2.6214    Y=              2.0260    Z=             -0.8699  Tot=              3.4253
 Quadrupole moment (field-independent basis, Debye-Ang):
   XX=           -151.9170   YY=           -109.7754   ZZ=           -115.1416
   XY=              0.1735   XZ=              3.0944   YZ=             -3.0281

 Summary of Natural Population Analysis:

                                       Natural Population
                Natural  -----------------------------------------------
    Atom  No    Charge         Core      Valence    Rydberg      Total
 -----------------------------------------------------------------------
      C    1   -0.10233      0.99961     2.09404    0.00869     3.10233
      O    2   -0.26486      0.99984     3.25330    0.01171     4.26486
      C    3    0.29696      0.99946     1.68854    0.01504     2.70304
      C    4   -0.08186      0.99937     2.07322    0.00927     3.08186
      C    5    0.00763      0.99945     1.98465    0.00827     2.99237
      C    6   -0.18103      0.99959     2.17153    0.00991     3.18103
      C    7    0.10739      0.99961     1.87793    0.01506     2.89261
      N    8   -0.27963      0.99967     2.76906    0.01091     3.77963
      C    9    0.31361      0.99957     1.66908    0.01775     2.68639
      N   10   -0.22780      0.99966     2.71988    0.00826     3.72780
      C   11    0.01887      0.99942     1.96994    0.01178     2.98113
      C   12    0.09778      0.99948     1.89201    0.01073     2.90222
      C   13   -0.15012      0.99944     2.14150    0.00918     3.15012
      C   14   -0.08423      0.99963     2.07464    0.00996     3.08423
      C   15   -0.15215      0.99953     2.14343    0.00920     3.15215
      C   16    0.15084      0.99934     1.83736    0.01245     2.84916
      O   17   -0.24441      0.99986     3.23538    0.00918     4.24441
      N   18   -0.39551      0.99970     2.88609    0.00972     3.89551
      H   19    0.08262      0.00000     0.41649    0.00089     0.41738
      H   20    0.08622      0.00000     0.41244    0.00134     0.41378
      H   21    0.08654      0.00000     0.41213    0.00133     0.41346
      H   22    0.09805      0.00000     0.40089    0.00105     0.40195
      H   23    0.09353      0.00000     0.40527    0.00120     0.40647
      H   24    0.07283      0.00000     0.42587    0.00130     0.42717
      H   25    0.08972      0.00000     0.40810    0.00218     0.41028
      H   26    0.08966      0.00000     0.40920    0.00114     0.41034
      H   27    0.09956      0.00000     0.39893    0.00151     0.40044
      H   28    0.19427      0.00000     0.30402    0.00172     0.30573
      H   29    0.17799      0.00000     0.32037    0.00163     0.32201
 =======================================================================
   * Total *    0.00013     17.99222    44.79528    0.21236    62.99987

 Normal termination of Gaussian 16 at Fri Dec 11 20:19:05 2020.
