 Gaussian 16, Revision A.03,

 -----------------------------------------------------------
 # opt freq B3LYP/6-31G(d) empiricaldispersion=gd3bj scf=xqc
 -----------------------------------------------------------

 -------------------------------
 CID_115024162_JID_5341_neutraal
 -------------------------------
 Symbolic Z-matrix:
 Charge =  0 Multiplicity = 1

 SCF Done:  E(RB3LYP) =  -636.812571914     A.U. after   14 cycles
 SCF Done:  E(RB3LYP) =  -636.820891445     A.U. after   12 cycles
 SCF Done:  E(RB3LYP) =  -636.821247271     A.U. after   12 cycles
 SCF Done:  E(RB3LYP) =  -636.822232380     A.U. after   11 cycles
 SCF Done:  E(RB3LYP) =  -636.822623959     A.U. after   11 cycles
 SCF Done:  E(RB3LYP) =  -636.823271061     A.U. after   12 cycles
 SCF Done:  E(RB3LYP) =  -636.823397108     A.U. after   11 cycles
 SCF Done:  E(RB3LYP) =  -636.823572431     A.U. after   11 cycles
 SCF Done:  E(RB3LYP) =  -636.823780017     A.U. after   12 cycles
 SCF Done:  E(RB3LYP) =  -636.823766452     A.U. after    9 cycles
 SCF Done:  E(RB3LYP) =  -636.824729624     A.U. after   11 cycles
 SCF Done:  E(RB3LYP) =  -636.824724528     A.U. after    9 cycles
 SCF Done:  E(RB3LYP) =  -636.824730459     A.U. after   10 cycles
 SCF Done:  E(RB3LYP) =  -636.824730197     A.U. after    8 cycles
 SCF Done:  E(RB3LYP) =  -636.824730532     A.U. after    8 cycles
 Optimization completed.
    -- Stationary point found.
 Normal termination of Gaussian 16 at Thu Dec 10 15:47:20 2020.

 --------------------------------------------------------------------
 #N Geom=AllCheck Guess=TCheck SCRF=Check GenChk RB3LYP/6-31G(d) Freq
 --------------------------------------------------------------------

 Structure from the checkpoint file:  "JID_5341.chk"
 -------------------------------
 CID_115024162_JID_5341_neutraal
 -------------------------------
 Charge =  0 Multiplicity = 1

 SCF Done:  E(RB3LYP) =  -636.824730532     A.U. after    1 cycles

  Exact polarizability: 176.641 -13.047 144.571 -19.017  -7.072 106.551
 Approx polarizability: 229.217 -21.547 224.522 -38.479 -20.076 170.706

                      1                      2                      3
                      A                      A                      A
 Frequencies --     30.7737                41.6710                58.0505
 Red. masses --      3.3105                 3.4910                 3.4369
 Frc consts  --      0.0018                 0.0036                 0.0068
 IR Inten    --      0.0340                 0.2859                 0.1611

                      4                      5                      6
                      A                      A                      A
 Frequencies --     97.3926               127.2771               150.9902
 Red. masses --      2.6427                 3.5195                 1.9582
 Frc consts  --      0.0148                 0.0336                 0.0263
 IR Inten    --      3.5285                 0.1143                 1.5621

                      7                      8                      9
                      A                      A                      A
 Frequencies --    182.1593               208.3548               227.5357
 Red. masses --      1.4554                 2.9268                 1.2375
 Frc consts  --      0.0285                 0.0749                 0.0377
 IR Inten    --      2.5084                 1.6106                 0.3634

                     10                     11                     12
                      A                      A                      A
 Frequencies --    246.3221               275.7880               300.6926
 Red. masses --      1.6955                 1.5519                 1.8655
 Frc consts  --      0.0606                 0.0695                 0.0994
 IR Inten    --      1.3240                 0.7945                 0.2589

                     13                     14                     15
                      A                      A                      A
 Frequencies --    321.6943               350.4825               359.8073
 Red. masses --      3.3246                 3.4471                 3.1867
 Frc consts  --      0.2027                 0.2495                 0.2431
 IR Inten    --      1.2846                 2.3746                 1.9139

                     16                     17                     18
                      A                      A                      A
 Frequencies --    390.8330               406.2671               449.2952
 Red. masses --      2.5204                 2.5583                 2.0546
 Frc consts  --      0.2268                 0.2488                 0.2444
 IR Inten    --      0.2740                 0.8704                 3.3998

                     19                     20                     21
                      A                      A                      A
 Frequencies --    462.9510               507.2224               545.9650
 Red. masses --      3.0047                 2.8225                 4.6725
 Frc consts  --      0.3794                 0.4278                 0.8206
 IR Inten    --      6.9649                11.1626                 1.3090

                     22                     23                     24
                      A                      A                      A
 Frequencies --    594.4965               608.3449               618.6019
 Red. masses --      4.0125                 4.7321                 3.7553
 Frc consts  --      0.8355                 1.0318                 0.8467
 IR Inten    --      2.1055                 0.5542                 8.7197

                     25                     26                     27
                      A                      A                      A
 Frequencies --    722.4647               754.7181               765.5642
 Red. masses --      2.9227                 2.6105                 1.7502
 Frc consts  --      0.8988                 0.8761                 0.6044
 IR Inten    --     12.5218                14.6922                29.5087

                     28                     29                     30
                      A                      A                      A
 Frequencies --    778.0563               794.8847               848.6812
 Red. masses --      2.5594                 1.8694                 1.4009
 Frc consts  --      0.9129                 0.6959                 0.5945
 IR Inten    --     26.7977                56.7238                 0.6922

                     31                     32                     33
                      A                      A                      A
 Frequencies --    864.6682               880.3542               884.7215
 Red. masses --      1.5980                 2.0600                 3.5394
 Frc consts  --      0.7039                 0.9407                 1.6323
 IR Inten    --      2.0688                 0.0969                 6.8440

                     34                     35                     36
                      A                      A                      A
 Frequencies --    917.7850               929.4844               954.3057
 Red. masses --      2.1297                 1.3644                 2.2257
 Frc consts  --      1.0570                 0.6945                 1.1943
 IR Inten    --      5.9221                 1.3316                 1.2017

                     37                     38                     39
                      A                      A                      A
 Frequencies --    961.7105               975.9606               989.6329
 Red. masses --      1.2280                 1.4525                 1.4141
 Frc consts  --      0.6692                 0.8152                 0.8160
 IR Inten    --      0.0610                 0.5942                 1.0236

                     40                     41                     42
                      A                      A                      A
 Frequencies --   1017.2515              1042.8619              1056.8089
 Red. masses --      1.6688                 6.7192                 2.5674
 Frc consts  --      1.0174                 4.3055                 1.6894
 IR Inten    --      0.5698                50.7627                17.1302

                     43                     44                     45
                      A                      A                      A
 Frequencies --   1072.2037              1096.5638              1110.7748
 Red. masses --      2.0865                 1.2022                 2.1096
 Frc consts  --      1.4132                 0.8517                 1.5336
 IR Inten    --      8.4686                 1.3188                37.9837

                     46                     47                     48
                      A                      A                      A
 Frequencies --   1132.2445              1187.8519              1191.5222
 Red. masses --      1.8184                 1.1260                 1.2531
 Frc consts  --      1.3735                 0.9361                 1.0482
 IR Inten    --     41.2989                 6.1691                 6.1645

                     49                     50                     51
                      A                      A                      A
 Frequencies --   1204.9583              1214.6017              1223.9573
 Red. masses --      1.6934                 1.5599                 1.9894
 Frc consts  --      1.4486                 1.3558                 1.7559
 IR Inten    --     33.7421                23.9495                 3.7372

                     52                     53                     54
                      A                      A                      A
 Frequencies --   1241.3001              1246.9566              1258.5555
 Red. masses --      1.5320                 1.7340                 2.9647
 Frc consts  --      1.3908                 1.5885                 2.7668
 IR Inten    --      1.3034                 8.9833                70.2868

                     55                     56                     57
                      A                      A                      A
 Frequencies --   1292.8585              1299.8083              1313.7271
 Red. masses --      1.7795                 2.7002                 2.0200
 Frc consts  --      1.7525                 2.6878                 2.0540
 IR Inten    --     10.5751               119.6910                 3.8914

                     58                     59                     60
                      A                      A                      A
 Frequencies --   1319.4340              1327.1671              1347.4635
 Red. masses --      1.5235                 2.0404                 4.8254
 Frc consts  --      1.5627                 2.1175                 5.1620
 IR Inten    --      6.2207                25.8403                33.4096

                     61                     62                     63
                      A                      A                      A
 Frequencies --   1395.6450              1431.3090              1447.6875
 Red. masses --      1.3676                 1.2864                 1.2335
 Frc consts  --      1.5694                 1.5528                 1.5232
 IR Inten    --      1.4008                 6.6196                 0.3623

                     64                     65                     66
                      A                      A                      A
 Frequencies --   1477.4212              1500.4868              1502.5335
 Red. masses --      1.4697                 1.1074                 1.3627
 Frc consts  --      1.8902                 1.4689                 1.8126
 IR Inten    --     17.4620                 2.7717                 1.2235

                     67                     68                     69
                      A                      A                      A
 Frequencies --   1513.8444              1515.2263              1516.5056
 Red. masses --      1.0720                 1.0464                 1.0802
 Frc consts  --      1.4475                 1.4154                 1.4636
 IR Inten    --     14.0520                 0.2489                 1.1696

                     70                     71                     72
                      A                      A                      A
 Frequencies --   1528.9498              1530.1237              1533.6445
 Red. masses --      1.8113                 1.1551                 1.0668
 Frc consts  --      2.4947                 1.5933                 1.4784
 IR Inten    --    125.9046                12.2589                 1.1383

                     73                     74                     75
                      A                      A                      A
 Frequencies --   1536.9091              1544.1877              1557.6513
 Red. masses --      1.0522                 1.0574                 2.0321
 Frc consts  --      1.4643                 1.4855                 2.9049
 IR Inten    --      5.3626                 9.2695                35.7825

                     76                     77                     78
                      A                      A                      A
 Frequencies --   1644.7239              1661.8535              3031.7670
 Red. masses --      4.9488                 6.0155                 1.0351
 Frc consts  --      7.8874                 9.7884                 5.6056
 IR Inten    --      3.1767                22.5353                29.1949

                     79                     80                     81
                      A                      A                      A
 Frequencies --   3037.1246              3038.2789              3045.8773
 Red. masses --      1.0345                 1.0368                 1.0600
 Frc consts  --      5.6224                 5.6391                 5.7941
 IR Inten    --     66.8164                37.4040                42.8174

                     82                     83                     84
                      A                      A                      A
 Frequencies --   3054.7317              3095.7683              3100.9648
 Red. masses --      1.0610                 1.1022                 1.1026
 Frc consts  --      5.8335                 6.2239                 6.2466
 IR Inten    --     13.6545                10.2019                 6.2658

                     85                     86                     87
                      A                      A                      A
 Frequencies --   3102.9898              3106.2731              3109.4910
 Red. masses --      1.1024                 1.1032                 1.1017
 Frc consts  --      6.2539                 6.2717                 6.2759
 IR Inten    --     35.2468                50.0040                63.9154

                     88                     89                     90
                      A                      A                      A
 Frequencies --   3109.6820              3110.7258              3150.7878
 Red. masses --      1.1020                 1.1046                 1.1049
 Frc consts  --      6.2785                 6.2977                 6.4627
 IR Inten    --      8.1821                38.1410                25.5565

                     91                     92                     93
                      A                      A                      A
 Frequencies --   3152.7363              3167.0014              3191.3447
 Red. masses --      1.0872                 1.0878                 1.0875
 Frc consts  --      6.3667                 6.4285                 6.5257
 IR Inten    --     15.3988                15.0794                 6.1198

                     94                     95                     96
                      A                      A                      A
 Frequencies --   3203.4595              3215.7894              3509.0691
 Red. masses --      1.0919                 1.0968                 1.0740
 Frc consts  --      6.6020                 6.6828                 7.7921
 IR Inten    --     23.8923                18.4225                 0.8349

 - Thermochemistry -
 -------------------
 Temperature   298.150 Kelvin.  Pressure   1.00000 Atm.
 Atom     1 has atomic number  6 and mass  12.00000

 Molecular mass:   205.14666 amu.
 Principal axes and moments of inertia in atomic units:
                           1         2         3
     Eigenvalues --  1606.159365330.241866098.62362
           X            0.99998   0.00454   0.00359
           Y           -0.00457   0.99997   0.00692
           Z           -0.00356  -0.00694   0.99997
 This molecule is an asymmetric top.
 Rotational symmetry number  1.
 Warning -- assumption of classical behavior for rotation
           may cause significant error
 Rotational temperatures (Kelvin)      0.05393     0.01625     0.01420
 Rotational constants (GHZ):           1.12364     0.33859     0.29593
 Zero-point vibrational energy     784495.5 (Joules/Mol)
                                  187.49891 (Kcal/Mol)
 Warning -- explicit consideration of  24 degrees of freedom as
           vibrations may cause significant error
 Vibrational temperatures:     44.28    59.96    83.52   140.13   183.12
          (Kelvin)            217.24   262.09   299.78   327.37   354.40
                              396.80   432.63   462.85   504.27   517.68
                              562.32   584.53   646.44   666.08   729.78
                              785.52   855.35   875.27   890.03  1039.47
                             1085.87  1101.48  1119.45  1143.66  1221.06
                             1244.06  1266.63  1272.92  1320.49  1337.32
                             1373.03  1383.69  1404.19  1423.86  1463.60
                             1500.45  1520.51  1542.66  1577.71  1598.16
                             1629.05  1709.05  1714.33  1733.67  1747.54
                             1761.00  1785.95  1794.09  1810.78  1860.14
                             1870.13  1890.16  1898.37  1909.50  1938.70
                             2008.02  2059.33  2082.90  2125.68  2158.87
                             2161.81  2178.08  2180.07  2181.91  2199.82
                             2201.51  2206.57  2211.27  2221.74  2241.11
                             2366.39  2391.04  4362.04  4369.74  4371.41
                             4382.34  4395.08  4454.12  4461.60  4464.51
                             4469.23  4473.86  4474.14  4475.64  4533.28
                             4536.08  4556.61  4591.63  4609.06  4626.80
                             5048.77

 Zero-point correction=                           0.298799 (Hartree/Particle)
 Thermal correction to Energy=                    0.313801
 Thermal correction to Enthalpy=                  0.314745
 Thermal correction to Gibbs Free Energy=         0.256285
 Sum of electronic and zero-point Energies=           -636.525932
 Sum of electronic and thermal Energies=              -636.510929
 Sum of electronic and thermal Enthalpies=            -636.509985
 Sum of electronic and thermal Free Energies=         -636.568445

                     E (Thermal)             CV                S
                      KCal/Mol        Cal/Mol-Kelvin    Cal/Mol-Kelvin
 Total                  196.913             58.206            123.040
 Electronic               0.000              0.000              0.000
 Translational            0.889              2.981             41.860
 Rotational               0.889              2.981             32.324
 Vibrational            195.136             52.244             48.857
 Vibration     1          0.594              1.984              5.779
 Vibration     2          0.594              1.981              5.178
 Vibration     3          0.596              1.974              4.522
 Vibration     4          0.603              1.951              3.506
 Vibration     5          0.611              1.926              2.987
 Vibration     6          0.618              1.902              2.660
 Vibration     7          0.630              1.864              2.306
 Vibration     8          0.642              1.828              2.058
 Vibration     9          0.651              1.799              1.898
 Vibration    10          0.661              1.769              1.757
 Vibration    11          0.677              1.718              1.560
 Vibration    12          0.693              1.672              1.413
 Vibration    13          0.707              1.632              1.301
 Vibration    14          0.727              1.574              1.164
 Vibration    15          0.734              1.555              1.123
 Vibration    16          0.759              1.490              0.997
 Vibration    17          0.771              1.457              0.940
 Vibration    18          0.808              1.362              0.798
 Vibration    19          0.821              1.332              0.758
 Vibration    20          0.862              1.234              0.640
 Vibration    21          0.901              1.149              0.553
 Vibration    22          0.952              1.043              0.459
 Vibration    23          0.967              1.014              0.436
 Vibration    24          0.978              0.993              0.419

 Optimization completed.
    -- Stationary point found.
 Normal termination of Gaussian 16 at Thu Dec 10 15:58:03 2020.

 ----------------------------------------------------------------------
 # B3LYP/6-311++G(d,p) empiricaldispersion=gd3bj scf=xqc pop=npa geom=c
 heck
 ----------------------------------------------------------------------

 ---------------------------------------
 CID_115024162_JID_5341_Energie_neutraal
 ---------------------------------------
 Structure from the checkpoint file:  "JID_5341.chk"
 Charge =  0 Multiplicity = 1

 SCF Done:  E(RB3LYP) =  -636.999158737     A.U. after   15 cycles
 Normal termination of Gaussian 16 at Thu Dec 10 16:02:41 2020.

 ----------------------------------------------------------------------
 # B3LYP/6-311++G(d,p) empiricaldispersion=gd3bj scf=xqc pop=npa geom=c
 heck
 ----------------------------------------------------------------------

 -------------------------------------
 CID_115024162_JID_5341_Energie_kation
 -------------------------------------
 Structure from the checkpoint file:  "JID_5341.chk"
 Charge =  1 Multiplicity = 2

 SCF Done:  E(UB3LYP) =  -636.724741505     A.U. after   22 cycles
 Normal termination of Gaussian 16 at Thu Dec 10 16:12:46 2020.
 Gaussian 16:  ES64L-G16RevA.03 25-Dec-2016

 ----------------------------------------------------------------------
 # B3LYP/6-311++G(d,p) empiricaldispersion=gd3bj scf=xqc pop=npa geom=c
 heck
 ----------------------------------------------------------------------

 ------------------------------------
 CID_115024162_JID_5341_Energie_anion
 ------------------------------------
 Structure from the checkpoint file:  "JID_5341.chk"
 Charge = -1 Multiplicity = 2

                         Standard orientation:
 ---------------------------------------------------------------------
 Center     Atomic      Atomic             Coordinates (Angstroms)
 Number     Number       Type             X           Y           Z
 ---------------------------------------------------------------------
      1          6           0       -3.626308    0.824048   -1.203334
      2          6           0       -3.114639   -0.243010   -0.232281
      3          6           0       -2.397702    0.388857    1.002908
      4          6           0       -1.049131    0.207077    0.277898
      5          6           0       -1.731776   -0.816867   -0.673068
      6          7           0        0.077865   -0.200413    1.109222
      7          6           0        1.316031   -0.434364    0.475939
      8          6           0        1.967275   -1.670114    0.600142
      9          6           0        3.204034   -1.905865    0.002316
     10          6           0        3.812427   -0.909083   -0.759334
     11          6           0        3.185203    0.330995   -0.884472
     12          6           0        1.963022    0.578913   -0.264988
     13          8           0        1.397896    1.831226   -0.418504
     14          6           0        1.406697    2.618777    0.776814
     15          6           0       -4.203170   -1.265911    0.074005
     16          1           0       -4.487850    1.355639   -0.780577
     17          1           0       -2.854453    1.567510   -1.432899
     18          1           0       -3.942017    0.368980   -2.150103
     19          1           0       -2.685442    1.402498    1.301072
     20          1           0       -2.466852   -0.265690    1.881213
     21          1           0       -0.756295    1.105221   -0.264904
     22          1           0       -1.587955   -1.844357   -0.316796
     23          1           0       -1.478850   -0.774384   -1.737420
     24          1           0       -0.183034   -1.003896    1.675412
     25          1           0        1.480600   -2.459696    1.169310
     26          1           0        3.678989   -2.875928    0.117924
     27          1           0        4.768375   -1.087428   -1.242233
     28          1           0        3.635454    1.138533   -1.453649
     29          1           0        0.837537    2.131618    1.575453
     30          1           0        2.436908    2.791967    1.113411
     31          1           0        0.943219    3.573143    0.516493
     32          1           0       -3.842278   -2.032745    0.769573
     33          1           0       -5.079920   -0.786157    0.527628
     34          1           0       -4.536134   -1.772469   -0.840703
 ---------------------------------------------------------------------

 SCF Done:  E(UB3LYP) =  -636.984654732     A.U. after   33 cycles
 SCF Done:  E(UB3LYP) =  -636.984654732     a.u. after    1 cycles

 The electronic state is 2-A.
 Alpha  occ. eigenvalues --  -19.04644 -14.22008 -10.13044 -10.12114 -10.11671
 Alpha  occ. eigenvalues --  -10.10051 -10.08492 -10.08074 -10.07967 -10.07843
 Alpha  occ. eigenvalues --  -10.07773 -10.06436 -10.06247 -10.06128 -10.05849
 Alpha  occ. eigenvalues --   -0.96156  -0.83608  -0.76143  -0.74108  -0.65842
 Alpha  occ. eigenvalues --   -0.65402  -0.62487  -0.59174  -0.58977  -0.56441
 Alpha  occ. eigenvalues --   -0.52633  -0.51758  -0.48498  -0.43915  -0.42780
 Alpha  occ. eigenvalues --   -0.40998  -0.39456  -0.37713  -0.37248  -0.36467
 Alpha  occ. eigenvalues --   -0.36039  -0.34250  -0.33750  -0.33525  -0.32037
 Alpha  occ. eigenvalues --   -0.30444  -0.30182  -0.29519  -0.27629  -0.27227
 Alpha  occ. eigenvalues --   -0.27132  -0.26369  -0.26045  -0.24586  -0.22564
 Alpha  occ. eigenvalues --   -0.20743  -0.20278  -0.19423  -0.17956  -0.15178
 Alpha  occ. eigenvalues --   -0.11501   0.04315
 Alpha virt. eigenvalues --    0.06204   0.06470   0.07193   0.07908   0.08217
 Alpha virt. eigenvalues --    0.08592   0.08918   0.09054   0.09750   0.09827
 Alpha virt. eigenvalues --    0.10499   0.11014   0.11287   0.11868   0.12124

  Beta  occ. eigenvalues --  -19.04642 -14.21990 -10.13036 -10.12091 -10.11669
  Beta  occ. eigenvalues --  -10.10048 -10.08492 -10.08070 -10.07952 -10.07835
  Beta  occ. eigenvalues --  -10.07756 -10.06413 -10.06221 -10.06110 -10.05817
  Beta  occ. eigenvalues --   -0.96147  -0.83581  -0.76125  -0.74086  -0.65813
  Beta  occ. eigenvalues --   -0.65376  -0.62453  -0.59136  -0.58923  -0.56393
  Beta  occ. eigenvalues --   -0.52596  -0.51727  -0.48461  -0.43875  -0.42729
  Beta  occ. eigenvalues --   -0.40960  -0.39425  -0.37681  -0.37218  -0.36439
  Beta  occ. eigenvalues --   -0.36004  -0.34224  -0.33722  -0.33493  -0.32011
  Beta  occ. eigenvalues --   -0.30414  -0.30150  -0.29484  -0.27601  -0.27196
  Beta  occ. eigenvalues --   -0.27106  -0.26343  -0.26012  -0.24559  -0.22533
  Beta  occ. eigenvalues --   -0.20715  -0.20253  -0.19400  -0.17936  -0.15149
  Beta  occ. eigenvalues --   -0.11479
  Beta virt. eigenvalues --    0.06277   0.06793   0.07215   0.07736   0.08092
  Beta virt. eigenvalues --    0.08658   0.08968   0.09123   0.09467   0.10008
  Beta virt. eigenvalues --    0.10147   0.10807   0.11481   0.11549   0.12175

 Mulliken charges and spin densities:
               1          2
     1  C    0.322036  -1.009119
     2  C   -0.933167   1.952057
     3  C    0.717669  -1.230473
     4  C   -0.205331  -0.220233
     5  C   -0.402185  -0.375716
     6  N    0.067973   0.105035
     7  C    0.877907  -0.608351
     8  C   -0.464549   0.583665
     9  C    0.817180  -1.148995
    10  C    0.119324  -0.402947
    11  C   -1.310047   1.152202
    12  C   -0.289455  -0.278974
    13  O   -0.080340  -0.010944
    14  C    0.431205  -0.719150
    15  C    0.980434  -1.506392
    16  H   -0.111163   0.245178
    17  H   -0.304568   0.452326
    18  H   -0.027459   0.159362
    19  H   -0.133746   0.313729
    20  H   -0.270593   0.418216
    21  H    0.874595  -0.657760
    22  H   -0.012050   0.189876
    23  H    0.016763   0.164741
    24  H    0.245335   0.001388
    25  H   -0.871780   1.017800
    26  H   -0.188985   0.351875
    27  H   -0.109506   0.255823
    28  H    0.016112   0.157109
    29  H    0.065820   0.124877
    30  H   -0.050435   0.173998
    31  H   -0.178665   0.335260
    32  H   -0.374442   0.520616
    33  H   -0.117939   0.249595
    34  H   -0.115949   0.244325
 Sum of Mulliken charges =  -1.00000   1.00000

 Dipole moment (field-independent basis, Debye):
    X=              3.0408    Y=              2.6505    Z=             -1.8308  Tot=              4.4298
 Quadrupole moment (field-independent basis, Debye-Ang):
   XX=           -168.6822   YY=           -144.7054   ZZ=           -128.1921
   XY=              2.2910   XZ=              0.4849   YZ=              5.2915

 Summary of Natural Population Analysis:

                                       Natural Population
                Natural  -----------------------------------------------
    Atom  No    Charge         Core      Valence    Rydberg      Total
 -----------------------------------------------------------------------
      C    1   -0.28070      0.99962     2.27541    0.00567     3.28070
      C    2   -0.04785      0.99959     2.03532    0.01294     3.04785
      C    3   -0.18355      0.99958     2.17427    0.00970     3.18355
      C    4   -0.01612      0.99956     2.00354    0.01303     3.01612
      C    5   -0.18927      0.99958     2.18140    0.00829     3.18927
      N    6   -0.32026      0.99968     2.80825    0.01232     3.82026
      C    7    0.06818      0.99943     1.92048    0.01191     2.93182
      C    8   -0.11302      0.99953     2.10309    0.01041     3.11302
      C    9   -0.10094      0.99957     2.09092    0.01046     3.10094
      C   10   -0.11468      0.99957     2.10555    0.00957     3.11468
      C   11   -0.11363      0.99951     2.10476    0.00935     3.11363
      C   12    0.13867      0.99932     1.84912    0.01289     2.86133
      O   13   -0.29354      0.99987     3.28409    0.00959     4.29354
      C   14   -0.10185      0.99959     2.09329    0.00897     3.10185
      C   15   -0.28232      0.99961     2.27625    0.00646     3.28232
      H   16    0.09920      0.00000     0.39976    0.00103     0.40080
      H   17    0.09948      0.00000     0.39933    0.00119     0.40052
      H   18    0.09841      0.00000     0.40063    0.00096     0.40159
      H   19    0.09942      0.00000     0.39939    0.00119     0.40058
      H   20    0.09960      0.00000     0.39863    0.00177     0.40040
      H   21    0.10406      0.00000     0.39296    0.00298     0.39594
      H   22    0.10032      0.00000     0.39819    0.00149     0.39968
      H   23    0.09855      0.00000     0.40042    0.00103     0.40145
      H   24    0.18079      0.00000     0.31536    0.00385     0.31921
      H   25    0.10340      0.00000     0.39459    0.00201     0.39660
      H   26    0.10142      0.00000     0.39749    0.00109     0.39858
      H   27    0.09935      0.00000     0.39978    0.00087     0.40065
      H   28    0.10403      0.00000     0.39486    0.00111     0.39597
      H   29    0.09369      0.00000     0.40487    0.00144     0.40631
      H   30    0.08086      0.00000     0.41799    0.00115     0.41914
      H   31    0.08937      0.00000     0.40948    0.00115     0.41063
      H   32    0.10195      0.00000     0.39648    0.00157     0.39805
      H   33    0.09863      0.00000     0.40032    0.00105     0.40137
      H   34    0.09836      0.00000     0.40064    0.00100     0.40164
 =======================================================================
   * Total *    0.00000     14.99361    40.82689    0.17950    56.00000

 Normal termination of Gaussian 16 at Thu Dec 10 16:36:18 2020.
