 Gaussian 16, Revision A.03,

 -----------------------------------------------------------
 # opt freq B3LYP/6-31G(d) empiricaldispersion=gd3bj scf=xqc
 -----------------------------------------------------------

 ------------------------------
 CID_18801372_JID_5703_neutraal
 ------------------------------
 Symbolic Z-matrix:
 Charge =  0 Multiplicity = 1

 SCF Done:  E(RB3LYP) =  -1044.06847286     A.U. after   15 cycles
 SCF Done:  E(RB3LYP) =  -1044.07352223     A.U. after   13 cycles
 SCF Done:  E(RB3LYP) =  -1044.07408852     A.U. after   12 cycles
 SCF Done:  E(RB3LYP) =  -1044.07422380     A.U. after   12 cycles
 SCF Done:  E(RB3LYP) =  -1044.07425439     A.U. after   11 cycles
 SCF Done:  E(RB3LYP) =  -1044.07427036     A.U. after   10 cycles
 SCF Done:  E(RB3LYP) =  -1044.07427348     A.U. after    9 cycles
 SCF Done:  E(RB3LYP) =  -1044.07427463     A.U. after    8 cycles
 Optimization completed.
    -- Stationary point found.
 Normal termination of Gaussian 16 at Thu Dec 10 16:28:19 2020.

 --------------------------------------------------------------------
 #N Geom=AllCheck Guess=TCheck SCRF=Check GenChk RB3LYP/6-31G(d) Freq
 --------------------------------------------------------------------

 Structure from the checkpoint file:  "JID_5703.chk"
 ------------------------------
 CID_18801372_JID_5703_neutraal
 ------------------------------
 Charge =  0 Multiplicity = 1

 SCF Done:  E(RB3LYP) =  -1044.07427463     A.U. after    1 cycles

  Exact polarizability: 228.893  -2.314 140.383  -3.900  -3.490  59.834
 Approx polarizability: 335.573 -14.340 265.603  -9.090  -8.506  98.318

                      1                      2                      3
                      A                      A                      A
 Frequencies --     34.7397                61.6571                77.6994
 Red. masses --      5.9022                10.2584                 6.3944
 Frc consts  --      0.0042                 0.0230                 0.0227
 IR Inten    --      1.9988                 1.4369                 1.9680

                      4                      5                      6
                      A                      A                      A
 Frequencies --     98.7029               163.8516               171.6561
 Red. masses --      7.2549                 5.9892                 5.7217
 Frc consts  --      0.0416                 0.0947                 0.0993
 IR Inten    --      0.1410                 0.4024                 0.2605

                      7                      8                      9
                      A                      A                      A
 Frequencies --    225.1883               264.1365               282.6607
 Red. masses --      3.3788                 8.1799                 4.5700
 Frc consts  --      0.1009                 0.3362                 0.2151
 IR Inten    --      3.2023                 1.6305                 1.5672

                     10                     11                     12
                      A                      A                      A
 Frequencies --    297.8692               337.3028               381.8624
 Red. masses --      1.0900                 5.4228                 6.9541
 Frc consts  --      0.0570                 0.3635                 0.5975
 IR Inten    --     18.3991                 1.0849                 5.5136

                     13                     14                     15
                      A                      A                      A
 Frequencies --    431.6812               456.9047               474.3077
 Red. masses --      4.7164                 5.2358                 4.0806
 Frc consts  --      0.5178                 0.6440                 0.5409
 IR Inten    --      1.7120                 5.6537                18.3396

                     16                     17                     18
                      A                      A                      A
 Frequencies --    500.7213               548.8528               572.0044
 Red. masses --      4.7961                 3.2602                 2.9354
 Frc consts  --      0.7085                 0.5786                 0.5659
 IR Inten    --      1.7688                93.4153                23.1011

                     19                     20                     21
                      A                      A                      A
 Frequencies --    591.8061               613.5919               644.6395
 Red. masses --      1.3015                 2.1038                 6.4843
 Frc consts  --      0.2686                 0.4667                 1.5876
 IR Inten    --    234.5170               136.3541                52.9974

                     22                     23                     24
                      A                      A                      A
 Frequencies --    668.7906               678.8982               726.5487
 Red. masses --      3.2526                 4.9452                 2.2730
 Frc consts  --      0.8571                 1.3429                 0.7069
 IR Inten    --      5.1829                13.0674                 6.9711

                     25                     26                     27
                      A                      A                      A
 Frequencies --    742.9488               752.2389               793.2276
 Red. masses --      5.3724                 3.5093                 1.6869
 Frc consts  --      1.7472                 1.1700                 0.6254
 IR Inten    --     16.2874                21.3442                57.5295

                     28                     29                     30
                      A                      A                      A
 Frequencies --    819.1393               875.4455               893.9635
 Red. masses --      7.2930                 1.7553                 2.1665
 Frc consts  --      2.8832                 0.7926                 1.0201
 IR Inten    --     16.6737                37.3885                 8.0080

                     31                     32                     33
                      A                      A                      A
 Frequencies --    894.4228               904.3590               925.7826
 Red. masses --      1.5109                 1.9006                 1.4853
 Frc consts  --      0.7121                 0.9158                 0.7500
 IR Inten    --      5.0332                 6.0772                 0.4661

                     34                     35                     36
                      A                      A                      A
 Frequencies --    987.5688              1038.5400              1061.9905
 Red. masses --      4.2011                 5.0601                 4.8921
 Frc consts  --      2.4140                 3.2156                 3.2508
 IR Inten    --      0.6843                10.5106                82.6194

                     37                     38                     39
                      A                      A                      A
 Frequencies --   1097.3261              1123.0561              1198.0415
 Red. masses --      1.8525                 1.4983                 1.7080
 Frc consts  --      1.3142                 1.1134                 1.4444
 IR Inten    --     18.2647                11.8594               250.9890

                     40                     41                     42
                      A                      A                      A
 Frequencies --   1221.7315              1236.5651              1256.3662
 Red. masses --      1.7836                 1.3920                 1.8134
 Frc consts  --      1.5685                 1.2540                 1.6865
 IR Inten    --    105.6823                 4.0535                 8.3095

                     43                     44                     45
                      A                      A                      A
 Frequencies --   1318.5377              1340.9467              1370.9325
 Red. masses --      5.5066                 2.1887                 1.7714
 Frc consts  --      5.6405                 2.3188                 1.9616
 IR Inten    --     20.9717                22.9050                32.9880

                     46                     47                     48
                      A                      A                      A
 Frequencies --   1393.6881              1403.0188              1478.3884
 Red. masses --      3.0572                 3.1314                 3.3805
 Frc consts  --      3.4986                 3.6318                 4.3532
 IR Inten    --     75.1163                24.1278               141.1779

                     49                     50                     51
                      A                      A                      A
 Frequencies --   1500.4534              1534.7138              1601.2403
 Red. masses --      4.5652                 3.7098                 6.0781
 Frc consts  --      6.0556                 5.1482                 9.1819
 IR Inten    --     10.1920                24.5704                37.7044

                     52                     53                     54
                      A                      A                      A
 Frequencies --   1622.9349              1656.8704              1694.1587
 Red. masses --      5.2960                 4.5396                 1.2187
 Frc consts  --      8.2186                 7.3425                 2.0609
 IR Inten    --      3.5606                58.6895               116.6640

                     55                     56                     57
                      A                      A                      A
 Frequencies --   1814.3838              3150.1983              3182.4178
 Red. masses --      9.8454                 1.0894                 1.0899
 Frc consts  --     19.0960                 6.3695                 6.5036
 IR Inten    --    396.3110                41.6919                17.6410

                     58                     59                     60
                      A                      A                      A
 Frequencies --   3184.4943              3250.7047              3265.3399
 Red. masses --      1.0907                 1.0932                 1.0929
 Frc consts  --      6.5167                 6.8064                 6.8657
 IR Inten    --      5.9012                 0.0741                 0.7067

                     61                     62                     63
                      A                      A                      A
 Frequencies --   3556.7414              3655.6561              3700.8303
 Red. masses --      1.0477                 1.0987                 1.0642
 Frc consts  --      7.8086                 8.6513                 8.5874
 IR Inten    --     19.2694                11.5143                90.7654

 - Thermochemistry -
 -------------------
 Temperature   298.150 Kelvin.  Pressure   1.00000 Atm.
 Atom     1 has atomic number  6 and mass  12.00000

 Molecular mass:   220.03065 amu.
 Principal axes and moments of inertia in atomic units:
                           1         2         3
     Eigenvalues --  1271.258217282.075738346.96343
           X            0.99992   0.01231  -0.00082
           Y           -0.01231   0.99991  -0.00476
           Z            0.00076   0.00477   0.99999
 This molecule is an asymmetric top.
 Rotational symmetry number  1.
 Warning -- assumption of classical behavior for rotation
           may cause significant error
 Rotational temperatures (Kelvin)      0.06813     0.01189     0.01038
 Rotational constants (GHZ):           1.41965     0.24783     0.21622
 Zero-point vibrational energy     441454.6 (Joules/Mol)
                                  105.51017 (Kcal/Mol)
 Warning -- explicit consideration of  20 degrees of freedom as
           vibrations may cause significant error
 Vibrational temperatures:     49.98    88.71   111.79   142.01   235.75
          (Kelvin)            246.97   324.00   380.03   406.69   428.57
                              485.30   549.41   621.09   657.38   682.42
                              720.43   789.68   822.99   851.48   882.82
                              927.49   962.24   976.78  1045.34  1068.94
                             1082.30  1141.28  1178.56  1259.57  1286.21
                             1286.87  1301.17  1331.99  1420.89  1494.23
                             1527.97  1578.81  1615.83  1723.71  1757.80
                             1779.14  1807.63  1897.08  1929.32  1972.47
                             2005.21  2018.63  2127.07  2158.82  2208.11
                             2303.83  2335.04  2383.87  2437.52  2610.49
                             4532.43  4578.79  4581.78  4677.04  4698.10
                             5117.36  5259.67  5324.67

 Zero-point correction=                           0.168141 (Hartree/Particle)
 Thermal correction to Energy=                    0.181018
 Thermal correction to Enthalpy=                  0.181962
 Thermal correction to Gibbs Free Energy=         0.127601
 Sum of electronic and zero-point Energies=          -1043.906133
 Sum of electronic and thermal Energies=             -1043.893256
 Sum of electronic and thermal Enthalpies=           -1043.892312
 Sum of electronic and thermal Free Energies=        -1043.946673

                     E (Thermal)             CV                S
                      KCal/Mol        Cal/Mol-Kelvin    Cal/Mol-Kelvin
 Total                  113.591             49.332            114.413
 Electronic               0.000              0.000              0.000
 Translational            0.889              2.981             42.069
 Rotational               0.889              2.981             32.713
 Vibrational            111.813             43.370             39.631
 Vibration     1          0.594              1.983              5.539
 Vibration     2          0.597              1.973              4.403
 Vibration     3          0.599              1.964              3.948
 Vibration     4          0.604              1.950              3.480
 Vibration     5          0.623              1.887              2.505
 Vibration     6          0.626              1.877              2.417
 Vibration     7          0.650              1.803              1.917
 Vibration     8          0.671              1.739              1.634
 Vibration     9          0.682              1.706              1.518
 Vibration    10          0.691              1.678              1.429
 Vibration    11          0.718              1.601              1.225
 Vibration    12          0.751              1.509              1.032
 Vibration    13          0.793              1.401              0.853
 Vibration    14          0.815              1.346              0.775
 Vibration    15          0.831              1.307              0.726
 Vibration    16          0.856              1.248              0.656
 Vibration    17          0.904              1.142              0.547
 Vibration    18          0.928              1.092              0.500
 Vibration    19          0.949              1.049              0.464
 Vibration    20          0.973              1.003              0.427

                           ! Non-Optimized Parameters !
 Normal termination of Gaussian 16 at Thu Dec 10 16:35:05 2020.

 ----------------------------------------------------------------------
 # B3LYP/6-311++G(d,p) empiricaldispersion=gd3bj scf=xqc pop=npa geom=c
 heck
 ----------------------------------------------------------------------

 --------------------------------------
 CID_18801372_JID_5703_Energie_neutraal
 --------------------------------------
 Structure from the checkpoint file:  "JID_5703.chk"
 Charge =  0 Multiplicity = 1

 SCF Done:  E(RB3LYP) =  -1044.28938443     A.U. after   16 cycles
 Normal termination of Gaussian 16 at Thu Dec 10 16:38:22 2020.

 ----------------------------------------------------------------------
 # B3LYP/6-311++G(d,p) empiricaldispersion=gd3bj scf=xqc pop=npa geom=c
 heck
 ----------------------------------------------------------------------

 ------------------------------------
 CID_18801372_JID_5703_Energie_kation
 ------------------------------------
 Structure from the checkpoint file:  "JID_5703.chk"
 Charge =  1 Multiplicity = 2

 SCF Done:  E(UB3LYP) =  -1043.99693696     A.U. after   25 cycles
 Normal termination of Gaussian 16 at Thu Dec 10 16:46:23 2020.
 Gaussian 16:  ES64L-G16RevA.03 25-Dec-2016

 ----------------------------------------------------------------------
 # B3LYP/6-311++G(d,p) empiricaldispersion=gd3bj scf=xqc pop=npa geom=c
 heck
 ----------------------------------------------------------------------

 -----------------------------------
 CID_18801372_JID_5703_Energie_anion
 -----------------------------------
 Structure from the checkpoint file:  "JID_5703.chk"
 Charge = -1 Multiplicity = 2

                         Standard orientation:
 ---------------------------------------------------------------------
 Center     Atomic      Atomic             Coordinates (Angstroms)
 Number     Number       Type             X           Y           Z
 ---------------------------------------------------------------------
      1          6           0       -2.406573   -0.713638    0.277979
      2          6           0       -1.393269    0.165389   -0.116931
      3          6           0       -1.769210    1.459292   -0.510721
      4          7           0       -3.035557    1.883355   -0.521189
      5          6           0       -3.989230    1.034087   -0.145283
      6          6           0       -3.739387   -0.289472    0.264793
      7          7           0       -4.774161   -1.108866    0.706327
      8          6           0        0.020856   -0.246169   -0.131447
      9          6           0        0.461295   -1.532890   -0.371903
     10         16           0        2.176972   -1.686819   -0.323809
     11          6           0        2.341170    0.011136    0.030899
     12          6           0        1.120461    0.637011    0.099329
     13          6           0        3.680850    0.567875    0.225351
     14          8           0        4.715104   -0.067543    0.156239
     15          8           0        3.649380    1.897988    0.494927
     16          1           0       -2.158670   -1.714197    0.623885
     17          1           0       -1.019490    2.170533   -0.848955
     18          1           0       -5.012336    1.410636   -0.158701
     19          1           0       -5.695229   -0.855429    0.371619
     20          1           0       -4.605655   -2.103587    0.626736
     21          1           0       -0.147929   -2.394619   -0.609149
     22          1           0        1.017821    1.689294    0.332698
     23          1           0        4.580308    2.165765    0.605130
 ---------------------------------------------------------------------

 SCF Done:  E(UB3LYP) =  -1044.30797918     A.U. after   33 cycles
 SCF Done:  E(UB3LYP) =  -1044.30797918     a.u. after    1 cycles

 The electronic state is 2-A.
 Alpha  occ. eigenvalues --  -88.71936 -19.03247 -18.95891 -14.23001 -14.18672
 Alpha  occ. eigenvalues --  -10.14799 -10.10728 -10.07719 -10.07268 -10.06393
 Alpha  occ. eigenvalues --  -10.05664 -10.04718 -10.04097 -10.03679 -10.03331
 Alpha  occ. eigenvalues --   -7.80602  -5.76898  -5.76534  -5.76235  -0.96789
 Alpha  occ. eigenvalues --   -0.87406  -0.83644  -0.80720  -0.73975  -0.68118
 Alpha  occ. eigenvalues --   -0.63667  -0.60201  -0.58823  -0.52046  -0.51901
 Alpha  occ. eigenvalues --   -0.49657  -0.43286  -0.42573  -0.40767  -0.39989
 Alpha  occ. eigenvalues --   -0.38005  -0.36510  -0.34780  -0.34228  -0.31467
 Alpha  occ. eigenvalues --   -0.30773  -0.29493  -0.28514  -0.27129  -0.25778
 Alpha  occ. eigenvalues --   -0.25151  -0.24413  -0.24022  -0.22844  -0.20293
 Alpha  occ. eigenvalues --   -0.19134  -0.16903  -0.14266  -0.13955  -0.11889
 Alpha  occ. eigenvalues --   -0.11138  -0.09281   0.03830
 Alpha virt. eigenvalues --    0.06120   0.07875   0.08887   0.09097   0.10072
 Alpha virt. eigenvalues --    0.10354   0.11705   0.11972   0.12832   0.14155
 Alpha virt. eigenvalues --    0.14410   0.14880   0.15570   0.15787   0.16289

  Beta  occ. eigenvalues --  -88.71850 -19.03195 -18.95691 -14.23001 -14.18571
  Beta  occ. eigenvalues --  -10.14586 -10.10752 -10.07637 -10.07309 -10.06322
  Beta  occ. eigenvalues --  -10.05572 -10.04591 -10.04194 -10.03210 -10.03155
  Beta  occ. eigenvalues --   -7.80525  -5.76860  -5.76497  -5.75948  -0.96564
  Beta  occ. eigenvalues --   -0.87098  -0.83577  -0.80622  -0.73614  -0.67919
  Beta  occ. eigenvalues --   -0.63550  -0.59548  -0.58557  -0.51771  -0.51710
  Beta  occ. eigenvalues --   -0.49288  -0.43142  -0.42414  -0.40501  -0.39717
  Beta  occ. eigenvalues --   -0.37897  -0.36353  -0.34601  -0.34071  -0.30654
  Beta  occ. eigenvalues --   -0.30437  -0.29241  -0.28441  -0.27005  -0.25595
  Beta  occ. eigenvalues --   -0.24859  -0.24204  -0.23489  -0.22300  -0.19902
  Beta  occ. eigenvalues --   -0.18270  -0.16188  -0.14077  -0.13812  -0.11372
  Beta  occ. eigenvalues --   -0.09776  -0.07876
  Beta virt. eigenvalues --    0.06070   0.08467   0.08929   0.09081   0.09987
  Beta virt. eigenvalues --    0.10067   0.10572   0.11671   0.11940   0.12855
  Beta virt. eigenvalues --    0.14146   0.14425   0.14915   0.15576   0.15838

 Mulliken charges and spin densities:
               1          2
     1  C    0.130832   0.185433
     2  C    0.151528  -0.008795
     3  C   -0.542825  -0.106206
     4  N   -0.050955   0.042360
     5  C   -0.319671   0.120105
     6  C   -0.257705  -0.021019
     7  N   -0.337123  -0.004578
     8  C   -1.260758  -0.092826
     9  C    0.675407   0.386975
    10  S   -0.696538   0.142711
    11  C   -0.309823  -0.023819
    12  C    0.316052   0.142334
    13  C    0.609146   0.170122
    14  O   -0.391979   0.070620
    15  O   -0.226639   0.011426
    16  H    0.151318  -0.011820
    17  H    0.146323   0.007342
    18  H    0.120632  -0.003481
    19  H    0.230529   0.000408
    20  H    0.210134   0.014117
    21  H    0.200374  -0.015476
    22  H    0.186523  -0.005582
    23  H    0.265217  -0.000353
 Sum of Mulliken charges =  -1.00000   1.00000

 Dipole moment (field-independent basis, Debye):
    X=             -5.7735    Y=             -1.0897    Z=              0.3629  Tot=              5.8867
 Quadrupole moment (field-independent basis, Debye-Ang):
   XX=           -143.0024   YY=           -105.7810   ZZ=           -105.7820
   XY=             22.4314   XZ=              1.4522   YZ=              1.5799

 Summary of Natural Population Analysis:

                                       Natural Population
                Natural  -----------------------------------------------
    Atom  No    Charge         Core      Valence    Rydberg      Total
 -----------------------------------------------------------------------
      C    1   -0.09611      0.99951     2.08824    0.00835     3.09611
      C    2   -0.00253      0.99939     1.99430    0.00884     3.00253
      C    3    0.00077      0.99957     1.98556    0.01410     2.99923
      N    4   -0.21661      0.99971     2.70401    0.01288     3.71661
      C    5   -0.00068      0.99956     1.98604    0.01508     3.00068
      C    6    0.05929      0.99950     1.93182    0.00939     2.94071
      N    7   -0.40189      0.99972     2.89282    0.00935     3.90189
      C    8   -0.09487      0.99949     2.08510    0.01028     3.09487
      C    9   -0.07583      0.99950     2.06590    0.01042     3.07583
      S   10    0.24349      4.99943     2.73287    0.02420     7.75651
      C   11   -0.14444      0.99944     2.13253    0.01247     3.14444
      C   12   -0.07206      0.99947     2.06371    0.00888     3.07206
      C   13    0.40681      0.99960     1.56904    0.02455     2.59319
      O   14   -0.31307      0.99987     3.30549    0.00771     4.31307
      O   15   -0.35076      0.99988     3.34504    0.00584     4.35076
      H   16    0.09764      0.00000     0.40070    0.00166     0.40236
      H   17    0.09014      0.00000     0.40829    0.00158     0.40986
      H   18    0.07751      0.00000     0.42082    0.00167     0.42249
      H   19    0.18057      0.00000     0.31798    0.00145     0.31943
      H   20    0.18201      0.00000     0.31646    0.00153     0.31799
      H   21    0.09431      0.00000     0.40467    0.00103     0.40569
      H   22    0.10557      0.00000     0.39322    0.00121     0.39443
      H   23    0.23075      0.00000     0.26608    0.00318     0.26925
 =======================================================================
   * Total *    0.00000     18.99364    37.81069    0.19566    57.00000

 Normal termination of Gaussian 16 at Thu Dec 10 16:56:01 2020.
