 Gaussian 16, Revision A.03,

 -----------------------------------------------------------
 # opt freq B3LYP/6-31G(d) empiricaldispersion=gd3bj scf=xqc
 -----------------------------------------------------------

 -------------------------------
 CID_106036374_JID_7464_neutraal
 -------------------------------
 Symbolic Z-matrix:
 Charge =  0 Multiplicity = 1

 SCF Done:  E(RB3LYP) =  -712.849248307     A.U. after   14 cycles
 SCF Done:  E(RB3LYP) =  -712.854398194     A.U. after   12 cycles
 SCF Done:  E(RB3LYP) =  -712.854327374     A.U. after   12 cycles
 SCF Done:  E(RB3LYP) =  -712.855198544     A.U. after   11 cycles
 SCF Done:  E(RB3LYP) =  -712.855219218     A.U. after   11 cycles
 SCF Done:  E(RB3LYP) =  -712.855514756     A.U. after   11 cycles
 SCF Done:  E(RB3LYP) =  -712.855660942     A.U. after   11 cycles
 SCF Done:  E(RB3LYP) =  -712.855746517     A.U. after   11 cycles
 SCF Done:  E(RB3LYP) =  -712.855772932     A.U. after   11 cycles
 SCF Done:  E(RB3LYP) =  -712.855791846     A.U. after   11 cycles
 SCF Done:  E(RB3LYP) =  -712.862913576     A.U. after    9 cycles
 SCF Done:  E(RB3LYP) =  -712.862914052     A.U. after    9 cycles
 SCF Done:  E(RB3LYP) =  -712.862914187     A.U. after    7 cycles
 SCF Done:  E(RB3LYP) =  -712.862914217     A.U. after    6 cycles
 SCF Done:  E(RB3LYP) =  -712.862914235     A.U. after    6 cycles
 Optimization completed.
    -- Stationary point found.
 Normal termination of Gaussian 16 at Sun Dec 13 13:04:17 2020.

 --------------------------------------------------------------------
 #N Geom=AllCheck Guess=TCheck SCRF=Check GenChk RB3LYP/6-31G(d) Freq
 --------------------------------------------------------------------

 Structure from the checkpoint file:  "JID_7464.chk"
 -------------------------------
 CID_106036374_JID_7464_neutraal
 -------------------------------
 Charge =  0 Multiplicity = 1

 SCF Done:  E(RB3LYP) =  -712.862914235     A.U. after    1 cycles

  Exact polarizability: 205.935  12.495 182.431 -16.365   7.633 123.380
 Approx polarizability: 273.062  18.179 281.032 -31.627  14.503 182.108

                      1                      2                      3
                      A                      A                      A
 Frequencies --     13.5161                22.9212                42.1531
 Red. masses --      3.4326                 3.9351                 1.4064
 Frc consts  --      0.0004                 0.0012                 0.0015
 IR Inten    --      0.0276                 0.0602                 0.3053

                      4                      5                      6
                      A                      A                      A
 Frequencies --     45.7828                70.9392               116.6926
 Red. masses --      1.8416                 3.2400                 2.5873
 Frc consts  --      0.0023                 0.0096                 0.0208
 IR Inten    --      0.2038                 1.7952                 0.8131

                      7                      8                      9
                      A                      A                      A
 Frequencies --    140.0591               145.4083               155.3962
 Red. masses --      3.1008                 3.0119                 2.7616
 Frc consts  --      0.0358                 0.0375                 0.0393
 IR Inten    --      0.3910                 0.7436                 4.1807

                     10                     11                     12
                      A                      A                      A
 Frequencies --    196.6748               217.4330               223.7617
 Red. masses --      2.1417                 1.2393                 1.2371
 Frc consts  --      0.0488                 0.0345                 0.0365
 IR Inten    --      2.8391                 0.8738                 0.6292

                     13                     14                     15
                      A                      A                      A
 Frequencies --    232.1205               249.8912               254.4625
 Red. masses --      2.6238                 1.2728                 1.7961
 Frc consts  --      0.0833                 0.0468                 0.0685
 IR Inten    --      2.2234                 1.5624                 0.2055

                     16                     17                     18
                      A                      A                      A
 Frequencies --    286.1932               308.9499               328.3636
 Red. masses --      2.2004                 2.6621                 2.2861
 Frc consts  --      0.1062                 0.1497                 0.1452
 IR Inten    --      1.0402                 0.7641                 1.8542

                     19                     20                     21
                      A                      A                      A
 Frequencies --    343.2944               351.2098               352.6335
 Red. masses --      1.9939                 3.1363                 2.0645
 Frc consts  --      0.1384                 0.2279                 0.1513
 IR Inten    --      1.0848                 1.7433                13.2916

                     22                     23                     24
                      A                      A                      A
 Frequencies --    378.3716               422.5207               452.7214
 Red. masses --      2.0192                 2.7369                 2.8104
 Frc consts  --      0.1703                 0.2879                 0.3394
 IR Inten    --      2.4532                 0.9751                11.5780

                     25                     26                     27
                      A                      A                      A
 Frequencies --    458.4674               477.8488               499.6969
 Red. masses --      2.0809                 4.6501                 2.8218
 Frc consts  --      0.2577                 0.6256                 0.4151
 IR Inten    --      4.5789                 2.2322                 4.6706

                     28                     29                     30
                      A                      A                      A
 Frequencies --    528.6793               557.1593               597.8202
 Red. masses --      3.1063                 2.6295                 3.3358
 Frc consts  --      0.5115                 0.4809                 0.7024
 IR Inten    --      7.7366                 0.9318                 8.7475

                     31                     32                     33
                      A                      A                      A
 Frequencies --    607.8217               690.4542               712.4769
 Red. masses --      3.6961                 1.9469                 2.6288
 Frc consts  --      0.8045                 0.5468                 0.7862
 IR Inten    --     19.0517                73.9972                20.9445

                     34                     35                     36
                      A                      A                      A
 Frequencies --    721.6964               757.7044               791.5710
 Red. masses --      3.5839                 2.6401                 1.6020
 Frc consts  --      1.0998                 0.8930                 0.5914
 IR Inten    --     23.7725                25.6841               103.3158

                     37                     38                     39
                      A                      A                      A
 Frequencies --    814.4170               840.8265               860.9616
 Red. masses --      2.0988                 1.8128                 1.5686
 Frc consts  --      0.8202                 0.7551                 0.6851
 IR Inten    --     40.3969                18.7961                87.8399

                     40                     41                     42
                      A                      A                      A
 Frequencies --    865.1736               898.2333               906.0431
 Red. masses --      1.6157                 1.9559                 1.2759
 Frc consts  --      0.7126                 0.9298                 0.6171
 IR Inten    --     70.8309                 5.6260                 4.3642

                     43                     44                     45
                      A                      A                      A
 Frequencies --    919.6892               931.0236               954.4654
 Red. masses --      2.5434                 1.2634                 1.5019
 Frc consts  --      1.2675                 0.6452                 0.8061
 IR Inten    --      4.5216                 0.6145                 2.1535

                     46                     47                     48
                      A                      A                      A
 Frequencies --    958.5211               992.1829              1028.3004
 Red. masses --      1.6737                 1.9375                 1.9781
 Frc consts  --      0.9060                 1.1238                 1.2324
 IR Inten    --      1.9613                10.0543                12.8480

                     49                     50                     51
                      A                      A                      A
 Frequencies --   1042.6162              1074.3140              1089.7208
 Red. masses --      1.8003                 1.4770                 2.5083
 Frc consts  --      1.1531                 1.0044                 1.7549
 IR Inten    --      7.0303                 4.0984                 6.0324

                     52                     53                     54
                      A                      A                      A
 Frequencies --   1106.5148              1113.1660              1118.9156
 Red. masses --      2.3890                 1.7538                 1.7185
 Frc consts  --      1.7234                 1.2804                 1.2677
 IR Inten    --     18.8148                19.1922                10.6666

                     55                     56                     57
                      A                      A                      A
 Frequencies --   1144.0808              1148.5924              1170.7772
 Red. masses --      1.7616                 2.0226                 1.6463
 Frc consts  --      1.3585                 1.5722                 1.3295
 IR Inten    --     20.3286                 6.1109                 9.1225

                     58                     59                     60
                      A                      A                      A
 Frequencies --   1177.4950              1185.6601              1204.4649
 Red. masses --      1.8649                 1.2407                 2.3173
 Frc consts  --      1.5234                 1.0276                 1.9807
 IR Inten    --      8.0392                10.1651                15.0388

                     61                     62                     63
                      A                      A                      A
 Frequencies --   1226.9007              1246.7706              1271.4293
 Red. masses --      2.1479                 1.4462                 1.9579
 Frc consts  --      1.9050                 1.3245                 1.8648
 IR Inten    --     18.0632                12.2634                54.2022

                     64                     65                     66
                      A                      A                      A
 Frequencies --   1279.9440              1287.3415              1317.5238
 Red. masses --      1.7096                 1.6666                 3.1606
 Frc consts  --      1.6502                 1.6273                 3.2325
 IR Inten    --     16.5937                16.8039                97.5394

                     67                     68                     69
                      A                      A                      A
 Frequencies --   1345.2711              1361.0146              1374.7414
 Red. masses --      1.4254                 1.2090                 1.3187
 Frc consts  --      1.5198                 1.3195                 1.4684
 IR Inten    --      9.5544                13.4816                 7.8078

                     70                     71                     72
                      A                      A                      A
 Frequencies --   1396.8273              1405.9563              1415.4176
 Red. masses --      1.3115                 3.0985                 1.5610
 Frc consts  --      1.5076                 3.6086                 1.8426
 IR Inten    --      7.5216                13.0517                 1.6399

                     73                     74                     75
                      A                      A                      A
 Frequencies --   1426.4449              1427.6464              1442.5375
 Red. masses --      1.2655                 1.2379                 1.2463
 Frc consts  --      1.5172                 1.4865                 1.5281
 IR Inten    --      8.9110                 2.7908                 0.3647

                     76                     77                     78
                      A                      A                      A
 Frequencies --   1444.4940              1450.1466              1480.9778
 Red. masses --      1.2512                 1.2765                 3.2425
 Frc consts  --      1.5382                 1.5816                 4.1901
 IR Inten    --      7.0196                13.0552                34.4351

                     79                     80                     81
                      A                      A                      A
 Frequencies --   1494.3917              1504.3317              1515.4218
 Red. masses --      1.1779                 1.2466                 1.0505
 Frc consts  --      1.5499                 1.6621                 1.4213
 IR Inten    --      0.5568                22.3525                 4.3158

                     82                     83                     84
                      A                      A                      A
 Frequencies --   1515.9000              1518.3275              1519.6591
 Red. masses --      1.0771                 1.0695                 1.1657
 Frc consts  --      1.4582                 1.4527                 1.5861
 IR Inten    --      4.9470                14.3916                 8.3880

                     85                     86                     87
                      A                      A                      A
 Frequencies --   1524.0733              1529.3230              1530.6548
 Red. masses --      1.0690                 1.0522                 1.1472
 Frc consts  --      1.4631                 1.4499                 1.5836
 IR Inten    --      5.1956                 8.5732                14.9110

                     88                     89                     90
                      A                      A                      A
 Frequencies --   1537.9715              1543.2171              1552.7820
 Red. masses --      1.0767                 1.0607                 1.0848
 Frc consts  --      1.5005                 1.4884                 1.5410
 IR Inten    --      3.5243                 0.8847                 5.5229

                     91                     92                     93
                      A                      A                      A
 Frequencies --   1556.0768              1573.3195              1651.6972
 Red. masses --      1.0920                 2.6518                 3.4870
 Frc consts  --      1.5578                 3.8675                 5.6048
 IR Inten    --     34.7561               127.5149                30.3595

                     94                     95                     96
                      A                      A                      A
 Frequencies --   1664.3090              1693.1703              2937.4566
 Red. masses --      2.5340                 1.7917                 1.0620
 Frc consts  --      4.1355                 3.0263                 5.3989
 IR Inten    --     16.4901                61.8468                81.6678

                     97                     98                     99
                      A                      A                      A
 Frequencies --   2968.3583              2984.7240              3028.0583
 Red. masses --      1.0752                 1.0716                 1.0732
 Frc consts  --      5.5818                 5.6245                 5.7978
 IR Inten    --     61.2136                46.4952                28.5907

                    100                    101                    102
                      A                      A                      A
 Frequencies --   3036.3230              3040.7918              3054.6779
 Red. masses --      1.0382                 1.0838                 1.0377
 Frc consts  --      5.6391                 5.9043                 5.7050
 IR Inten    --     47.8804                18.4570                23.9937

                    103                    104                    105
                      A                      A                      A
 Frequencies --   3061.3936              3072.0958              3078.5279
 Red. masses --      1.0414                 1.0767                 1.0813
 Frc consts  --      5.7503                 5.9869                 6.0377
 IR Inten    --     21.2406                13.2837                79.4835

                    106                    107                    108
                      A                      A                      A
 Frequencies --   3085.1953              3105.9305              3111.4344
 Red. masses --      1.1003                 1.0869                 1.0919
 Frc consts  --      6.1708                 6.1779                 6.2279
 IR Inten    --     26.5448                17.9605                40.5790

                    109                    110                    111
                      A                      A                      A
 Frequencies --   3115.0583              3118.5820              3120.5196
 Red. masses --      1.1013                 1.1025                 1.1001
 Frc consts  --      6.2966                 6.3173                 6.3117
 IR Inten    --     27.1485                54.0082                22.1980

                    112                    113                    114
                      A                      A                      A
 Frequencies --   3124.7953              3136.7147              3158.4819
 Red. masses --      1.0989                 1.0997                 1.0970
 Frc consts  --      6.3221                 6.3749                 6.4476
 IR Inten    --     23.5382                21.8105                37.7812

                    115                    116                    117
                      A                      A                      A
 Frequencies --   3166.4116              3190.7590              3200.4062
 Red. masses --      1.0875                 1.0931                 1.0889
 Frc consts  --      6.4242                 6.5568                 6.5713
 IR Inten    --     21.5633                32.4583                11.3066

                    118                    119                    120
                      A                      A                      A
 Frequencies --   3481.4112              3502.4559              3595.7909
 Red. masses --      1.0520                 1.0741                 1.0922
 Frc consts  --      7.5124                 7.7631                 8.3200
 IR Inten    --      4.0698                 8.5083                 6.7601

 - Thermochemistry -
 -------------------
 Temperature   298.150 Kelvin.  Pressure   1.00000 Atm.
 Atom     1 has atomic number  6 and mass  12.00000

 Molecular mass:   235.20485 amu.
 Principal axes and moments of inertia in atomic units:
                           1         2         3
     Eigenvalues --  2324.097548172.112249238.72276
           X            0.99997   0.00759   0.00272
           Y           -0.00762   0.99991   0.01139
           Z           -0.00264  -0.01141   0.99993
 This molecule is an asymmetric top.
 Rotational symmetry number  1.
 Warning -- assumption of classical behavior for rotation
           may cause significant error
 Rotational temperatures (Kelvin)      0.03727     0.01060     0.00938
 Rotational constants (GHZ):           0.77653     0.22084     0.19535
 Zero-point vibrational energy     997693.9 (Joules/Mol)
                                  238.45456 (Kcal/Mol)
 Warning -- explicit consideration of  31 degrees of freedom as
           vibrations may cause significant error
 Vibrational temperatures:     19.45    32.98    60.65    65.87   102.07
          (Kelvin)            167.89   201.51   209.21   223.58   282.97
                              312.84   321.94   333.97   359.54   366.11
                              411.77   444.51   472.44   493.92   505.31
                              507.36   544.39   607.91   651.37   659.63
                              687.52   718.95   760.65   801.63   860.13
                              874.52   993.41  1025.10  1038.36  1090.17
                             1138.89  1171.76  1209.76  1238.73  1244.79
                             1292.36  1303.59  1323.23  1339.54  1373.26
                             1379.10  1427.53  1479.49  1500.09  1545.70
                             1567.87  1592.03  1601.60  1609.87  1646.08
                             1652.57  1684.49  1694.15  1705.90  1732.96
                             1765.24  1793.82  1829.30  1841.55  1852.20
                             1895.62  1935.55  1958.20  1977.95  2009.72
                             2022.86  2036.47  2052.34  2054.06  2075.49
                             2078.30  2086.44  2130.80  2150.10  2164.40
                             2180.35  2181.04  2184.53  2186.45  2192.80
                             2200.35  2202.27  2212.80  2220.35  2234.11
                             2238.85  2263.66  2376.42  2394.57  2436.09
                             4226.34  4270.81  4294.35  4356.70  4368.59
                             4375.02  4395.00  4404.66  4420.06  4429.32
                             4438.91  4468.74  4476.66  4481.87  4486.94
                             4489.73  4495.88  4513.03  4544.35  4555.76
                             4590.79  4604.67  5008.97  5039.25  5173.54

 Zero-point correction=                           0.380002 (Hartree/Particle)
 Thermal correction to Energy=                    0.399137
 Thermal correction to Enthalpy=                  0.400081
 Thermal correction to Gibbs Free Energy=         0.331080
 Sum of electronic and zero-point Energies=           -712.482913
 Sum of electronic and thermal Energies=              -712.463778
 Sum of electronic and thermal Enthalpies=            -712.462834
 Sum of electronic and thermal Free Energies=         -712.531834

                     E (Thermal)             CV                S
                      KCal/Mol        Cal/Mol-Kelvin    Cal/Mol-Kelvin
 Total                  250.462             72.552            145.224
 Electronic               0.000              0.000              0.000
 Translational            0.889              2.981             42.267
 Rotational               0.889              2.981             33.528
 Vibrational            248.684             66.591             69.428
 Vibration     1          0.593              1.986              7.412
 Vibration     2          0.593              1.985              6.364
 Vibration     3          0.595              1.980              5.155
 Vibration     4          0.595              1.979              4.992
 Vibration     5          0.598              1.968              4.127
 Vibration     6          0.608              1.936              3.154
 Vibration     7          0.615              1.913              2.803
 Vibration     8          0.617              1.908              2.731
 Vibration     9          0.620              1.897              2.605
 Vibration    10          0.636              1.845              2.164
 Vibration    11          0.646              1.815              1.980
 Vibration    12          0.649              1.805              1.928
 Vibration    13          0.653              1.792              1.862
 Vibration    14          0.663              1.763              1.731
 Vibration    15          0.665              1.755              1.699
 Vibration    16          0.684              1.699              1.496
 Vibration    17          0.698              1.657              1.368
 Vibration    18          0.712              1.619              1.268
 Vibration    19          0.722              1.589              1.197
 Vibration    20          0.728              1.573              1.161
 Vibration    21          0.729              1.570              1.154
 Vibration    22          0.749              1.516              1.046
 Vibration    23          0.785              1.421              0.883
 Vibration    24          0.811              1.355              0.788
 Vibration    25          0.816              1.342              0.771
 Vibration    26          0.834              1.299              0.716
 Vibration    27          0.855              1.251              0.659
 Vibration    28          0.884              1.187              0.590
 Vibration    29          0.913              1.124              0.530
 Vibration    30          0.956              1.036              0.453
 Vibration    31          0.967              1.015              0.436

 Optimization completed.
    -- Stationary point found.
 Normal termination of Gaussian 16 at Sun Dec 13 13:22:35 2020.

 ----------------------------------------------------------------------
 # B3LYP/6-311++G(d,p) empiricaldispersion=gd3bj scf=xqc pop=npa geom=c
 heck
 ----------------------------------------------------------------------

 ---------------------------------------
 CID_106036374_JID_7464_Energie_neutraal
 ---------------------------------------
 Structure from the checkpoint file:  "JID_7464.chk"
 Charge =  0 Multiplicity = 1

 SCF Done:  E(RB3LYP) =  -713.066218738     A.U. after   14 cycles
 Normal termination of Gaussian 16 at Sun Dec 13 13:31:48 2020.

 ----------------------------------------------------------------------
 # B3LYP/6-311++G(d,p) empiricaldispersion=gd3bj scf=xqc pop=npa geom=c
 heck
 ----------------------------------------------------------------------

 -------------------------------------
 CID_106036374_JID_7464_Energie_kation
 -------------------------------------
 Structure from the checkpoint file:  "JID_7464.chk"
 Charge =  1 Multiplicity = 2

 SCF Done:  E(UB3LYP) =  -712.817542701     A.U. after   21 cycles
 Normal termination of Gaussian 16 at Sun Dec 13 13:51:34 2020.
 Gaussian 16:  ES64L-G16RevA.03 25-Dec-2016

 ----------------------------------------------------------------------
 # B3LYP/6-311++G(d,p) empiricaldispersion=gd3bj scf=xqc pop=npa geom=c
 heck
 ----------------------------------------------------------------------

 ------------------------------------
 CID_106036374_JID_7464_Energie_anion
 ------------------------------------
 Structure from the checkpoint file:  "JID_7464.chk"
 Charge = -1 Multiplicity = 2

                         Standard orientation:
 ---------------------------------------------------------------------
 Center     Atomic      Atomic             Coordinates (Angstroms)
 Number     Number       Type             X           Y           Z
 ---------------------------------------------------------------------
      1          6           0       -4.017401   -2.587896   -0.030257
      2          6           0       -3.514169   -1.167253    0.060021
      3          6           0       -2.216345   -0.852421   -0.373906
      4          6           0       -1.717002    0.448063   -0.295478
      5          6           0       -2.532179    1.471007    0.250572
      6          6           0       -3.822766    1.161617    0.664226
      7          6           0       -4.314633   -0.144303    0.563785
      8          7           0       -1.994266    2.777660    0.295327
      9          7           0       -0.425456    0.820659   -0.696641
     10          6           0        0.428855   -0.135617   -1.381609
     11          6           0        1.788691    0.490134   -1.704353
     12          6           0        2.587514    1.039881   -0.503797
     13          7           0        3.691847    0.200072   -0.019769
     14          6           0        4.614435    1.012809    0.766334
     15          6           0        3.341085   -1.048503    0.696488
     16          6           0        2.216705   -0.907542    1.737652
     17          6           0        3.105357   -2.219970   -0.265989
     18          1           0       -3.908604   -2.990784   -1.044963
     19          1           0       -3.462113   -3.256215    0.640838
     20          1           0       -5.075796   -2.651487    0.241609
     21          1           0       -1.598034   -1.639297   -0.794296
     22          1           0       -4.449677    1.948232    1.079428
     23          1           0       -5.325649   -0.362659    0.897135
     24          1           0       -1.061383    2.782201    0.703859
     25          1           0       -2.589356    3.422209    0.805479
     26          1           0       -0.431529    1.735830   -1.141618
     27          1           0        0.544715   -1.000980   -0.724199
     28          1           0       -0.030303   -0.510037   -2.313401
     29          1           0        2.406583   -0.228792   -2.251231
     30          1           0        1.604870    1.319761   -2.401826
     31          1           0        3.059592    1.973301   -0.827142
     32          1           0        1.884697    1.320580    0.299109
     33          1           0        4.174342    1.432590    1.692012
     34          1           0        5.485615    0.413723    1.050205
     35          1           0        4.970127    1.853571    0.160784
     36          1           0        4.250565   -1.307911    1.252088
     37          1           0        1.245637   -0.695583    1.280496
     38          1           0        2.117830   -1.834950    2.312634
     39          1           0        2.433249   -0.099043    2.445045
     40          1           0        3.931961   -2.284969   -0.979915
     41          1           0        3.052907   -3.160449    0.295188
     42          1           0        2.175976   -2.127604   -0.831866
 ---------------------------------------------------------------------

 SCF Done:  E(UB3LYP) =  -713.053258393     A.U. after   33 cycles
 SCF Done:  E(UB3LYP) =  -713.053258393     a.u. after    1 cycles

 The electronic state is 2-A.
 Alpha  occ. eigenvalues --  -14.22616 -14.21655 -14.20609 -10.11207 -10.10995
 Alpha  occ. eigenvalues --  -10.10882 -10.10601 -10.09249 -10.08910 -10.08200
 Alpha  occ. eigenvalues --  -10.08145 -10.07896 -10.07208 -10.07097 -10.06968
 Alpha  occ. eigenvalues --  -10.06664 -10.06209  -0.85150  -0.82470  -0.80486
 Alpha  occ. eigenvalues --   -0.74593  -0.69053  -0.67780  -0.66213  -0.63495
 Alpha  occ. eigenvalues --   -0.59945  -0.59527  -0.57981  -0.55418  -0.52720
 Alpha  occ. eigenvalues --   -0.50042  -0.49118  -0.45586  -0.42811  -0.41979
 Alpha  occ. eigenvalues --   -0.40291  -0.39339  -0.38030  -0.36922  -0.35558
 Alpha  occ. eigenvalues --   -0.35011  -0.34709  -0.34075  -0.33575  -0.33260
 Alpha  occ. eigenvalues --   -0.33026  -0.31519  -0.31422  -0.29693  -0.29533
 Alpha  occ. eigenvalues --   -0.29167  -0.28769  -0.27836  -0.26443  -0.25877
 Alpha  occ. eigenvalues --   -0.25399  -0.25142  -0.24789  -0.23734  -0.23264
 Alpha  occ. eigenvalues --   -0.20848  -0.19863  -0.13472  -0.11913  -0.09934
 Alpha  occ. eigenvalues --    0.04126
 Alpha virt. eigenvalues --    0.05838   0.06027   0.06771   0.07229   0.07726
 Alpha virt. eigenvalues --    0.08397   0.08610   0.08893   0.09326   0.09606
 Alpha virt. eigenvalues --    0.09779   0.10389   0.11032   0.11129   0.11476

  Beta  occ. eigenvalues --  -14.22602 -14.21603 -14.20602 -10.11205 -10.10991
  Beta  occ. eigenvalues --  -10.10880 -10.10592 -10.09231 -10.08883 -10.08200
  Beta  occ. eigenvalues --  -10.08138 -10.07883 -10.07194 -10.07093 -10.06964
  Beta  occ. eigenvalues --  -10.06652 -10.06188  -0.85125  -0.82450  -0.80431
  Beta  occ. eigenvalues --   -0.74575  -0.69029  -0.67756  -0.66188  -0.63476
  Beta  occ. eigenvalues --   -0.59912  -0.59492  -0.57945  -0.55370  -0.52685
  Beta  occ. eigenvalues --   -0.50014  -0.49086  -0.45541  -0.42770  -0.41941
  Beta  occ. eigenvalues --   -0.40257  -0.39311  -0.37993  -0.36889  -0.35522
  Beta  occ. eigenvalues --   -0.34982  -0.34677  -0.34051  -0.33546  -0.33249
  Beta  occ. eigenvalues --   -0.32998  -0.31499  -0.31400  -0.29670  -0.29514
  Beta  occ. eigenvalues --   -0.29147  -0.28749  -0.27812  -0.26425  -0.25852
  Beta  occ. eigenvalues --   -0.25375  -0.25103  -0.24769  -0.23706  -0.23235
  Beta  occ. eigenvalues --   -0.20816  -0.19849  -0.13456  -0.11877  -0.09909
  Beta virt. eigenvalues --    0.05835   0.06427   0.06874   0.07146   0.07624
  Beta virt. eigenvalues --    0.08047   0.08483   0.08906   0.09149   0.09497
  Beta virt. eigenvalues --    0.09917   0.10020   0.10511   0.11154   0.11276

 Mulliken charges and spin densities:
               1          2
     1  C    0.163465  -0.698566
     2  C    0.276181   0.512559
     3  C   -0.326778   0.210378
     4  C   -0.230902  -0.190258
     5  C    0.026827  -0.134522
     6  C    0.346975  -0.337737
     7  C   -0.476023  -0.360193
     8  N   -0.388510   0.004328
     9  N    0.057219  -0.062929
    10  C    0.570819  -0.399816
    11  C   -0.498911  -0.246106
    12  C   -0.092855  -0.380410
    13  N    0.193771   0.035467
    14  C    0.774248  -1.018817
    15  C   -1.272436   1.238754
    16  C    0.498992  -1.079779
    17  C    0.030520  -0.575207
    18  H    0.073384   0.067531
    19  H    0.084296   0.069598
    20  H    0.012143   0.135072
    21  H    0.219796  -0.078428
    22  H   -0.471531   0.623838
    23  H    0.002159   0.094868
    24  H   -0.219328   0.479460
    25  H   -0.267931   0.530625
    26  H    0.189717   0.074889
    27  H   -0.481734   0.490778
    28  H    0.076124   0.099664
    29  H    0.170309  -0.015334
    30  H   -0.104230   0.277138
    31  H   -0.269844   0.406113
    32  H    0.556458  -0.377098
    33  H   -0.235026   0.354458
    34  H   -0.189835   0.310760
    35  H   -0.071538   0.207245
    36  H   -0.036669   0.213386
    37  H    0.451305  -0.304722
    38  H   -0.136198   0.271973
    39  H   -0.141729   0.284095
    40  H   -0.041551   0.192955
    41  H   -0.032276   0.150961
    42  H    0.211129  -0.076973
 Sum of Mulliken charges =  -1.00000   1.00000

 Dipole moment (field-independent basis, Debye):
    X=             -1.3874    Y=             -5.3771    Z=             -3.1251  Tot=              6.3722
 Quadrupole moment (field-independent basis, Debye-Ang):
   XX=           -197.3993   YY=           -164.0766   ZZ=           -143.7223
   XY=              8.2269   XZ=             -1.6005   YZ=             -2.4734

 Summary of Natural Population Analysis:

                                       Natural Population
                Natural  -----------------------------------------------
    Atom  No    Charge         Core      Valence    Rydberg      Total
 -----------------------------------------------------------------------
      C    1   -0.28925      0.99964     2.28486    0.00475     3.28925
      C    2   -0.02671      0.99953     2.01912    0.00806     3.02671
      C    3   -0.12756      0.99949     2.12098    0.00710     3.12756
      C    4    0.08051      0.99946     1.90878    0.01126     2.91949
      C    5    0.06975      0.99945     1.91938    0.01143     2.93025
      C    6   -0.11705      0.99952     2.10704    0.01049     3.11705
      C    7   -0.11362      0.99952     2.10506    0.00904     3.11362
      N    8   -0.40720      0.99973     2.89658    0.01089     3.90720
      N    9   -0.32230      0.99968     2.81276    0.00986     3.82230
      C   10   -0.08824      0.99962     2.07922    0.00940     3.08824
      C   11   -0.19947      0.99962     2.19095    0.00890     3.19947
      C   12   -0.09120      0.99959     2.07879    0.01281     3.09120
      N   13   -0.28395      0.99972     2.77089    0.01335     3.78395
      C   14   -0.17388      0.99964     2.16556    0.00868     3.17388
      C   15   -0.00620      0.99960     1.99389    0.01272     3.00620
      C   16   -0.29955      0.99964     2.29383    0.00608     3.29955
      C   17   -0.28642      0.99963     2.28030    0.00649     3.28642
      H   18    0.09914      0.00000     0.39963    0.00123     0.40086
      H   19    0.10071      0.00000     0.39797    0.00132     0.39929
      H   20    0.09911      0.00000     0.40003    0.00087     0.40089
      H   21    0.09889      0.00000     0.39946    0.00164     0.40111
      H   22    0.09970      0.00000     0.39919    0.00111     0.40030
      H   23    0.09610      0.00000     0.40304    0.00086     0.40390
      H   24    0.18814      0.00000     0.30846    0.00341     0.31186
      H   25    0.18661      0.00000     0.30901    0.00438     0.31339
      H   26    0.18820      0.00000     0.30836    0.00343     0.31180
      H   27    0.09211      0.00000     0.40522    0.00267     0.40789
      H   28    0.08507      0.00000     0.41367    0.00127     0.41493
      H   29    0.10579      0.00000     0.39289    0.00132     0.39421
      H   30    0.09731      0.00000     0.40154    0.00115     0.40269
      H   31    0.09704      0.00000     0.40139    0.00157     0.40296
      H   32    0.09086      0.00000     0.40673    0.00242     0.40914
      H   33    0.08128      0.00000     0.41721    0.00150     0.41872
      H   34    0.09332      0.00000     0.40540    0.00127     0.40668
      H   35    0.09425      0.00000     0.40456    0.00119     0.40575
      H   36    0.09213      0.00000     0.40631    0.00156     0.40787
      H   37    0.10085      0.00000     0.39790    0.00124     0.39915
      H   38    0.10035      0.00000     0.39876    0.00089     0.39965
      H   39    0.10280      0.00000     0.39618    0.00102     0.39720
      H   40    0.10204      0.00000     0.39666    0.00130     0.39796
      H   41    0.09719      0.00000     0.40210    0.00071     0.40281
      H   42    0.09334      0.00000     0.40539    0.00127     0.40666
 =======================================================================
   * Total *    0.00000     16.99305    47.80502    0.20193    65.00000

 Normal termination of Gaussian 16 at Sun Dec 13 14:19:05 2020.
