 Gaussian 16, Revision A.03,

 -----------------------------------------------------------
 # opt freq B3LYP/6-31G(d) empiricaldispersion=gd3bj scf=xqc
 -----------------------------------------------------------

 -------------------------------
 CID_154394637_JID_4895_neutraal
 -------------------------------
 Symbolic Z-matrix:
 Charge =  0 Multiplicity = 1

 SCF Done:  E(RB3LYP) =  -560.377745379     A.U. after   13 cycles
 SCF Done:  E(RB3LYP) =  -560.381845641     A.U. after   12 cycles
 SCF Done:  E(RB3LYP) =  -560.382443645     A.U. after   12 cycles
 SCF Done:  E(RB3LYP) =  -560.382808469     A.U. after   11 cycles
 SCF Done:  E(RB3LYP) =  -560.383168615     A.U. after   11 cycles
 SCF Done:  E(RB3LYP) =  -560.383223969     A.U. after   13 cycles
 SCF Done:  E(RB3LYP) =  -560.384058367     A.U. after   10 cycles
 SCF Done:  E(RB3LYP) =  -560.386204046     A.U. after   13 cycles
 SCF Done:  E(RB3LYP) =  -560.386655936     A.U. after   11 cycles
 SCF Done:  E(RB3LYP) =  -560.386857309     A.U. after   10 cycles
 SCF Done:  E(RB3LYP) =  -560.386920928     A.U. after    9 cycles
 SCF Done:  E(RB3LYP) =  -560.386921422     A.U. after    8 cycles
 SCF Done:  E(RB3LYP) =  -560.386921816     A.U. after    7 cycles
 SCF Done:  E(RB3LYP) =  -560.386921881     A.U. after    6 cycles
 SCF Done:  E(RB3LYP) =  -560.386921909     A.U. after    6 cycles
 Optimization completed.
    -- Stationary point found.
 Normal termination of Gaussian 16 at Thu Dec 10 10:54:17 2020.

 --------------------------------------------------------------------
 #N Geom=AllCheck Guess=TCheck SCRF=Check GenChk RB3LYP/6-31G(d) Freq
 --------------------------------------------------------------------

 Structure from the checkpoint file:  "JID_4895.chk"
 -------------------------------
 CID_154394637_JID_4895_neutraal
 -------------------------------
 Charge =  0 Multiplicity = 1

 SCF Done:  E(RB3LYP) =  -560.386921909     A.U. after    1 cycles

  Exact polarizability: 159.087   7.231 138.568 -14.204   7.441 101.856
 Approx polarizability: 216.367  10.729 218.043 -28.796  20.061 158.983

                      1                      2                      3
                      A                      A                      A
 Frequencies --     54.8065                63.4056                71.0651
 Red. masses --      2.7856                 3.1457                 3.0889
 Frc consts  --      0.0049                 0.0075                 0.0092
 IR Inten    --      0.0748                 0.3489                 0.0306

                      4                      5                      6
                      A                      A                      A
 Frequencies --    120.8859               170.4508               188.4984
 Red. masses --      2.9279                 2.2836                 2.8404
 Frc consts  --      0.0252                 0.0391                 0.0595
 IR Inten    --      0.8644                 0.8114                 1.0170

                      7                      8                      9
                      A                      A                      A
 Frequencies --    241.5815               251.7897               275.5809
 Red. masses --      1.3475                 2.5841                 3.3185
 Frc consts  --      0.0463                 0.0965                 0.1485
 IR Inten    --      0.3339                 2.4000                 1.1981

                     10                     11                     12
                      A                      A                      A
 Frequencies --    334.0113               361.5795               430.2497
 Red. masses --      2.6018                 2.7982                 3.0936
 Frc consts  --      0.1710                 0.2155                 0.3374
 IR Inten    --      0.1504                 1.0364                 2.0518

                     13                     14                     15
                      A                      A                      A
 Frequencies --    435.4786               492.5669               518.8185
 Red. masses --      2.9954                 3.6934                 3.2641
 Frc consts  --      0.3347                 0.5280                 0.5177
 IR Inten    --      1.3058                 0.6595                 1.8442

                     16                     17                     18
                      A                      A                      A
 Frequencies --    536.8092               573.0078               621.9028
 Red. masses --      2.9509                 3.5980                 3.5600
 Frc consts  --      0.5010                 0.6960                 0.8112
 IR Inten    --      8.0174                 2.5555                 0.8973

                     19                     20                     21
                      A                      A                      A
 Frequencies --    642.4487               713.1256               745.3878
 Red. masses --      3.5949                 3.0178                 2.5017
 Frc consts  --      0.8742                 0.9042                 0.8189
 IR Inten    --      0.0994                 2.1914                 1.0252

                     22                     23                     24
                      A                      A                      A
 Frequencies --    767.1620               786.7050               802.1256
 Red. masses --      1.4822                 1.7279                 1.3432
 Frc consts  --      0.5140                 0.6301                 0.5092
 IR Inten    --     31.7243                12.5154                 2.6431

                     25                     26                     27
                      A                      A                      A
 Frequencies --    821.6962               851.3631               875.9074
 Red. masses --      1.4808                 2.9982                 1.6774
 Frc consts  --      0.5891                 1.2804                 0.7582
 IR Inten    --      8.4194                 1.8228                 2.5344

                     28                     29                     30
                      A                      A                      A
 Frequencies --    899.1202               919.4730               947.0550
 Red. masses --      1.5467                 2.7631                 1.3704
 Frc consts  --      0.7367                 1.3763                 0.7242
 IR Inten    --      0.5552                15.9485                 0.5416

                     31                     32                     33
                      A                      A                      A
 Frequencies --    956.5374               970.6595               986.1690
 Red. masses --      3.0105                 2.3676                 1.2539
 Frc consts  --      1.6229                 1.3143                 0.7185
 IR Inten    --     11.1498                 2.3314                 0.2785

                     34                     35                     36
                      A                      A                      A
 Frequencies --    993.4089              1037.8964              1054.9037
 Red. masses --      2.6140                 1.8051                 2.1231
 Frc consts  --      1.5199                 1.1457                 1.3920
 IR Inten    --      0.7211                 7.6391                 2.9677

                     37                     38                     39
                      A                      A                      A
 Frequencies --   1058.7441              1070.9090              1078.8401
 Red. masses --      1.7017                 1.8434                 1.4592
 Frc consts  --      1.1239                 1.2456                 1.0006
 IR Inten    --     15.2628                12.3613                 5.1452

                     40                     41                     42
                      A                      A                      A
 Frequencies --   1100.3649              1120.1197              1152.6991
 Red. masses --      2.1530                 2.0524                 1.1194
 Frc consts  --      1.5359                 1.5172                 0.8764
 IR Inten    --     38.0146                12.6089                 4.1202

                     43                     44                     45
                      A                      A                      A
 Frequencies --   1161.4105              1174.6998              1188.5374
 Red. masses --      1.3418                 1.3486                 1.3595
 Frc consts  --      1.0663                 1.0964                 1.1315
 IR Inten    --      8.8524                 0.6047                 0.3964

                     46                     47                     48
                      A                      A                      A
 Frequencies --   1190.3442              1208.6850              1221.1267
 Red. masses --      1.3973                 1.4072                 1.6047
 Frc consts  --      1.1665                 1.2112                 1.4098
 IR Inten    --      1.1635                 0.4482                 0.2436

                     49                     50                     51
                      A                      A                      A
 Frequencies --   1225.0306              1247.6521              1255.6264
 Red. masses --      1.8623                 2.2913                 2.3077
 Frc consts  --      1.6466                 2.1015                 2.1436
 IR Inten    --      1.2266                 6.5176                11.0215

                     52                     53                     54
                      A                      A                      A
 Frequencies --   1284.4584              1302.0854              1320.2058
 Red. masses --      1.9983                 1.3443                 1.7583
 Frc consts  --      1.9424                 1.3428                 1.8056
 IR Inten    --     34.9236                 3.7096                 8.1936

                     55                     56                     57
                      A                      A                      A
 Frequencies --   1341.9937              1342.6669              1378.1309
 Red. masses --      1.4079                 1.6212                 4.0509
 Frc consts  --      1.4939                 1.7219                 4.5330
 IR Inten    --      4.9504                 9.6421                 7.2875

                     58                     59                     60
                      A                      A                      A
 Frequencies --   1421.0360              1442.2511              1484.3718
 Red. masses --      1.5207                 1.2951                 1.1248
 Frc consts  --      1.8092                 1.5872                 1.4602
 IR Inten    --     35.9198                 7.2181                 2.3237

                     61                     62                     63
                      A                      A                      A
 Frequencies --   1493.0929              1507.2646              1511.2682
 Red. masses --      1.1772                 2.0727                 1.3023
 Frc consts  --      1.5462                 2.7744                 1.7525
 IR Inten    --      0.7106                 4.1229                 4.0642

                     64                     65                     66
                      A                      A                      A
 Frequencies --   1523.4141              1529.1213              1530.5732
 Red. masses --      1.0904                 1.3986                 1.4984
 Frc consts  --      1.4909                 1.9268                 2.0682
 IR Inten    --     20.7937                 4.8631                 6.9500

                     67                     68                     69
                      A                      A                      A
 Frequencies --   1539.1553              1546.0068              1648.5797
 Red. masses --      1.3373                 1.0574                 6.4632
 Frc consts  --      1.8666                 1.4890                10.3495
 IR Inten    --      8.6775                 7.5274                 0.8845

                     70                     71                     72
                      A                      A                      A
 Frequencies --   1667.7824              2963.3036              3006.4858
 Red. masses --      6.4792                 1.0607                 1.0833
 Frc consts  --     10.6182                 5.4879                 5.7691
 IR Inten    --      0.8009                69.8874                32.8824

                     73                     74                     75
                      A                      A                      A
 Frequencies --   3027.2782              3076.3068              3084.9079
 Red. masses --      1.0685                 1.0777                 1.0759
 Frc consts  --      5.7694                 6.0092                 6.0326
 IR Inten    --     38.7674                19.2958                30.9095

                     76                     77                     78
                      A                      A                      A
 Frequencies --   3087.5886              3126.2859              3132.2105
 Red. masses --      1.0729                 1.1061                 1.0995
 Frc consts  --      6.0262                 6.3692                 6.3552
 IR Inten    --     44.7249                28.3365                25.1663

                     79                     80                     81
                      A                      A                      A
 Frequencies --   3146.4731              3154.7694              3176.4004
 Red. masses --      1.0539                 1.0586                 1.0858
 Frc consts  --      6.1475                 6.2073                 6.4545
 IR Inten    --     16.3665                23.8765                 3.2110

                     82                     83                     84
                      A                      A                      A
 Frequencies --   3184.5614              3186.4437              3198.4626
 Red. masses --      1.0892                 1.0888                 1.0926
 Frc consts  --      6.5081                 6.5137                 6.5854
 IR Inten    --      5.6727                13.2924                30.8810

                     85                     86                     87
                      A                      A                      A
 Frequencies --   3208.0567              3221.7832              3236.5052
 Red. masses --      1.0965                 1.1178                 1.1139
 Frc consts  --      6.6491                 6.8358                 6.8745
 IR Inten    --     25.0257                 0.4859                25.9509

 - Thermochemistry -
 -------------------
 Temperature   298.150 Kelvin.  Pressure   1.00000 Atm.
 Atom     1 has atomic number  6 and mass  12.00000

 Molecular mass:   187.13610 amu.
 Principal axes and moments of inertia in atomic units:
                           1         2         3
     Eigenvalues --  1478.722483689.063864205.97777
           X            0.99999   0.00003  -0.00515
           Y           -0.00005   1.00000  -0.00304
           Z            0.00515   0.00304   0.99998
 This molecule is an asymmetric top.
 Rotational symmetry number  1.
 Warning -- assumption of classical behavior for rotation
           may cause significant error
 Rotational temperatures (Kelvin)      0.05857     0.02348     0.02059
 Rotational constants (GHZ):           1.22047     0.48921     0.42909
 Zero-point vibrational energy     717757.6 (Joules/Mol)
                                  171.54819 (Kcal/Mol)
 Warning -- explicit consideration of  17 degrees of freedom as
           vibrations may cause significant error
 Vibrational temperatures:     78.85    91.23   102.25   173.93   245.24
          (Kelvin)            271.21   347.58   362.27   396.50   480.57
                              520.23   619.03   626.56   708.69   746.46
                              772.35   824.43   894.78   924.34  1026.03
                             1072.45  1103.77  1131.89  1154.08  1182.24
                             1224.92  1260.24  1293.63  1322.92  1362.60
                             1376.24  1396.56  1418.88  1429.29  1493.30
                             1517.77  1523.30  1540.80  1552.21  1583.18
                             1611.60  1658.48  1671.01  1690.13  1710.04
                             1712.64  1739.03  1756.93  1762.55  1795.09
                             1806.57  1848.05  1873.41  1899.48  1930.83
                             1931.80  1982.82  2044.55  2075.08  2135.68
                             2148.23  2168.62  2174.38  2191.85  2200.06
                             2202.15  2214.50  2224.36  2371.94  2399.57
                             4263.53  4325.66  4355.58  4426.12  4438.49
                             4442.35  4498.03  4506.55  4527.07  4539.01
                             4570.13  4581.87  4584.58  4601.87  4615.68
                             4635.43  4656.61

 Zero-point correction=                           0.273379 (Hartree/Particle)
 Thermal correction to Energy=                    0.285778
 Thermal correction to Enthalpy=                  0.286722
 Thermal correction to Gibbs Free Energy=         0.234483
 Sum of electronic and zero-point Energies=           -560.113542
 Sum of electronic and thermal Energies=              -560.101144
 Sum of electronic and thermal Enthalpies=            -560.100200
 Sum of electronic and thermal Free Energies=         -560.152439

                     E (Thermal)             CV                S
                      KCal/Mol        Cal/Mol-Kelvin    Cal/Mol-Kelvin
 Total                  179.328             49.629            109.946
 Electronic               0.000              0.000              0.000
 Translational            0.889              2.981             41.586
 Rotational               0.889              2.981             31.507
 Vibrational            177.551             43.667             36.854
 Vibration     1          0.596              1.976              4.636
 Vibration     2          0.597              1.972              4.348
 Vibration     3          0.598              1.968              4.124
 Vibration     4          0.609              1.932              3.086
 Vibration     5          0.626              1.879              2.431
 Vibration     6          0.633              1.856              2.243
 Vibration     7          0.658              1.777              1.791
 Vibration     8          0.664              1.760              1.718
 Vibration     9          0.677              1.719              1.561
 Vibration    10          0.716              1.608              1.241
 Vibration    11          0.736              1.551              1.115
 Vibration    12          0.791              1.404              0.858
 Vibration    13          0.796              1.393              0.841
 Vibration    14          0.848              1.267              0.677
 Vibration    15          0.874              1.208              0.613
 Vibration    16          0.892              1.169              0.572
 Vibration    17          0.929              1.090              0.498

 Optimization completed.
    -- Stationary point found.
 Normal termination of Gaussian 16 at Thu Dec 10 11:04:08 2020.

 ----------------------------------------------------------------------
 # B3LYP/6-311++G(d,p) empiricaldispersion=gd3bj scf=xqc pop=npa geom=c
 heck
 ----------------------------------------------------------------------

 ---------------------------------------
 CID_154394637_JID_4895_Energie_neutraal
 ---------------------------------------
 Structure from the checkpoint file:  "JID_4895.chk"
 Charge =  0 Multiplicity = 1

 SCF Done:  E(RB3LYP) =  -560.531243704     A.U. after   14 cycles
 Normal termination of Gaussian 16 at Thu Dec 10 11:07:46 2020.

 ----------------------------------------------------------------------
 # B3LYP/6-311++G(d,p) empiricaldispersion=gd3bj scf=xqc pop=npa geom=c
 heck
 ----------------------------------------------------------------------

 -------------------------------------
 CID_154394637_JID_4895_Energie_kation
 -------------------------------------
 Structure from the checkpoint file:  "JID_4895.chk"
 Charge =  1 Multiplicity = 2

 SCF Done:  E(UB3LYP) =  -560.257921786     A.U. after   24 cycles
 Normal termination of Gaussian 16 at Thu Dec 10 11:15:47 2020.
 Gaussian 16:  ES64L-G16RevA.03 25-Dec-2016

 ----------------------------------------------------------------------
 # B3LYP/6-311++G(d,p) empiricaldispersion=gd3bj scf=xqc pop=npa geom=c
 heck
 ----------------------------------------------------------------------

 ------------------------------------
 CID_154394637_JID_4895_Energie_anion
 ------------------------------------
 Structure from the checkpoint file:  "JID_4895.chk"
 Charge = -1 Multiplicity = 2

                         Standard orientation:
 ---------------------------------------------------------------------
 Center     Atomic      Atomic             Coordinates (Angstroms)
 Number     Number       Type             X           Y           Z
 ---------------------------------------------------------------------
      1          6           0        2.670861    0.453171   -1.452512
      2          7           0        1.532299   -0.163551   -0.793226
      3          6           0        1.790655   -0.752907    0.502273
      4          6           0        3.046599   -1.504662    0.831930
      5          6           0        2.744313   -0.200607    1.547311
      6          6           0        0.342487    0.690883   -0.815948
      7          6           0        0.305093    1.918642    0.145500
      8          6           0       -1.195602    2.164502    0.429602
      9          6           0       -1.813597    0.795991    0.235609
     10          6           0       -3.065666    0.328673    0.629193
     11          6           0       -3.430727   -0.983752    0.314869
     12          6           0       -2.555462   -1.815270   -0.391587
     13          6           0       -1.302755   -1.343636   -0.792676
     14          6           0       -0.941320   -0.039246   -0.468524
     15          1           0        3.478960   -0.273708   -1.569456
     16          1           0        3.076641    1.337429   -0.928722
     17          1           0        2.366662    0.772298   -2.454645
     18          1           0        0.881779   -1.192164    0.901925
     19          1           0        2.943860   -2.438305    1.378089
     20          1           0        3.871044   -1.504246    0.125999
     21          1           0        3.360939    0.653806    1.284575
     22          1           0        2.444619   -0.226499    2.591796
     23          1           0        0.259745    1.050654   -1.852505
     24          1           0        0.813593    1.644440    1.074876
     25          1           0        0.811539    2.795945   -0.267488
     26          1           0       -1.379301    2.582596    1.425898
     27          1           0       -1.617948    2.876653   -0.293999
     28          1           0       -3.748469    0.970570    1.180763
     29          1           0       -4.400786   -1.362344    0.625642
     30          1           0       -2.851003   -2.834288   -0.626204
     31          1           0       -0.607234   -1.978673   -1.334193
 ---------------------------------------------------------------------

 SCF Done:  E(UB3LYP) =  -560.514255898     A.U. after   33 cycles
 SCF Done:  E(UB3LYP) =  -560.514255897     a.u. after    1 cycles

 The electronic state is 2-A.
 Alpha  occ. eigenvalues --  -14.20783 -10.10287 -10.10041 -10.08427 -10.07510
 Alpha  occ. eigenvalues --  -10.07463 -10.07394 -10.07392 -10.07229 -10.07164
 Alpha  occ. eigenvalues --  -10.07098 -10.07042 -10.06985 -10.06142  -0.83510
 Alpha  occ. eigenvalues --   -0.76924  -0.73937  -0.70365  -0.65455  -0.61535
 Alpha  occ. eigenvalues --   -0.59930  -0.56857  -0.51203  -0.50591  -0.49761
 Alpha  occ. eigenvalues --   -0.47701  -0.45216  -0.41805  -0.40243  -0.38037
 Alpha  occ. eigenvalues --   -0.37034  -0.36112  -0.34925  -0.33697  -0.32017
 Alpha  occ. eigenvalues --   -0.31380  -0.30641  -0.29229  -0.27690  -0.27475
 Alpha  occ. eigenvalues --   -0.26702  -0.26509  -0.25221  -0.24016  -0.23655
 Alpha  occ. eigenvalues --   -0.22845  -0.21734  -0.20004  -0.15209  -0.14136
 Alpha  occ. eigenvalues --   -0.10535   0.04578
 Alpha virt. eigenvalues --    0.06297   0.06932   0.07283   0.07953   0.08354
 Alpha virt. eigenvalues --    0.08589   0.08928   0.09487   0.09749   0.10653
 Alpha virt. eigenvalues --    0.10731   0.11375   0.11980   0.12372   0.12809

  Beta  occ. eigenvalues --  -14.20781 -10.10284 -10.10031 -10.08389 -10.07509
  Beta  occ. eigenvalues --  -10.07452 -10.07381 -10.07381 -10.07198 -10.07146
  Beta  occ. eigenvalues --  -10.07086 -10.07028 -10.06967 -10.06124  -0.83498
  Beta  occ. eigenvalues --   -0.76895  -0.73921  -0.70331  -0.65408  -0.61498
  Beta  occ. eigenvalues --   -0.59879  -0.56813  -0.51143  -0.50539  -0.49722
  Beta  occ. eigenvalues --   -0.47665  -0.45174  -0.41771  -0.40204  -0.37994
  Beta  occ. eigenvalues --   -0.37006  -0.36069  -0.34886  -0.33662  -0.31986
  Beta  occ. eigenvalues --   -0.31346  -0.30609  -0.29191  -0.27658  -0.27428
  Beta  occ. eigenvalues --   -0.26677  -0.26478  -0.25175  -0.23987  -0.23622
  Beta  occ. eigenvalues --   -0.22806  -0.21714  -0.19981  -0.15084  -0.14091
  Beta  occ. eigenvalues --   -0.10519
  Beta virt. eigenvalues --    0.06602   0.07177   0.07492   0.07726   0.08390
  Beta virt. eigenvalues --    0.08806   0.08996   0.09043   0.09968   0.10220
  Beta virt. eigenvalues --    0.10993   0.11289   0.11682   0.12328   0.12682

 Mulliken charges and spin densities:
               1          2
     1  C    1.224082  -1.453137
     2  N    0.218722   0.093057
     3  C   -1.682133   1.306160
     4  C    1.178470  -1.449023
     5  C    0.113143  -0.539057
     6  C   -0.104269   0.091303
     7  C    0.191323  -0.280766
     8  C    1.589078  -2.588679
     9  C   -1.303591   1.494041
    10  C   -0.124362  -0.256194
    11  C    0.617717  -0.934726
    12  C    0.023552  -0.399308
    13  C   -0.547900   0.440987
    14  C    0.061833   0.324334
    15  H   -0.286332   0.416668
    16  H   -0.340780   0.472674
    17  H   -0.233078   0.378553
    18  H    0.170344   0.016550
    19  H   -0.037452   0.174183
    20  H    0.042426   0.087637
    21  H   -0.001626   0.159861
    22  H   -0.138589   0.283853
    23  H   -0.245778   0.438662
    24  H    0.167204   0.002277
    25  H   -0.315183   0.496583
    26  H   -0.133476   0.307513
    27  H   -0.076723   0.247933
    28  H   -0.437398   0.594451
    29  H   -0.373482   0.527493
    30  H   -0.202721   0.363669
    31  H   -0.013019   0.182446
 Sum of Mulliken charges =  -1.00000   1.00000

 Dipole moment (field-independent basis, Debye):
    X=             -0.1170    Y=             -2.5003    Z=              1.4517  Tot=              2.8935
 Quadrupole moment (field-independent basis, Debye-Ang):
   XX=           -158.8212   YY=           -130.5010   ZZ=           -123.4243
   XY=             -5.6971   XZ=              6.3307   YZ=              4.9171

 Summary of Natural Population Analysis:

                                       Natural Population
                Natural  -----------------------------------------------
    Atom  No    Charge         Core      Valence    Rydberg      Total
 -----------------------------------------------------------------------
      C    1   -0.17887      0.99964     2.16977    0.00946     3.17887
      N    2   -0.27335      0.99970     2.75941    0.01424     3.77335
      C    3   -0.01158      0.99955     1.99844    0.01360     3.01158
      C    4   -0.20262      0.99962     2.19621    0.00678     3.20262
      C    5   -0.21640      0.99963     2.20922    0.00756     3.21640
      C    6   -0.00700      0.99954     1.99276    0.01471     3.00700
      C    7   -0.19421      0.99963     2.18663    0.00795     3.19421
      C    8   -0.19586      0.99961     2.18810    0.00815     3.19586
      C    9   -0.01125      0.99946     2.00161    0.01017     3.01125
      C   10   -0.09632      0.99951     2.08724    0.00957     3.09632
      C   11   -0.10236      0.99957     2.09226    0.01053     3.10236
      C   12   -0.10298      0.99957     2.09405    0.00936     3.10298
      C   13   -0.09505      0.99950     2.08658    0.00897     3.09505
      C   14   -0.01720      0.99945     2.00666    0.01110     3.01720
      H   15    0.09457      0.00000     0.40381    0.00163     0.40543
      H   16    0.08319      0.00000     0.41488    0.00193     0.41681
      H   17    0.09947      0.00000     0.39899    0.00154     0.40053
      H   18    0.10655      0.00000     0.39165    0.00180     0.39345
      H   19    0.10020      0.00000     0.39890    0.00091     0.39980
      H   20    0.10250      0.00000     0.39635    0.00115     0.39750
      H   21    0.10462      0.00000     0.39428    0.00110     0.39538
      H   22    0.10066      0.00000     0.39823    0.00110     0.39934
      H   23    0.10243      0.00000     0.39596    0.00161     0.39757
      H   24    0.10086      0.00000     0.39731    0.00183     0.39914
      H   25    0.10224      0.00000     0.39610    0.00166     0.39776
      H   26    0.10158      0.00000     0.39743    0.00100     0.39842
      H   27    0.10333      0.00000     0.39508    0.00159     0.39667
      H   28    0.09974      0.00000     0.39876    0.00150     0.40026
      H   29    0.09932      0.00000     0.39957    0.00112     0.40068
      H   30    0.09851      0.00000     0.40059    0.00090     0.40149
      H   31    0.10527      0.00000     0.39290    0.00183     0.39473
 =======================================================================
   * Total *    0.00000     13.99395    36.83970    0.16634    51.00000

 Normal termination of Gaussian 16 at Thu Dec 10 11:26:51 2020.
