 Gaussian 16, Revision A.03,

 -----------------------------------------------------------
 # opt freq B3LYP/6-31G(d) empiricaldispersion=gd3bj scf=xqc
 -----------------------------------------------------------

 ------------------------------
 CID_154523024_JID_793_neutraal
 ------------------------------
 Symbolic Z-matrix:
 Charge =  0 Multiplicity = 1

 SCF Done:  E(RB3LYP) =  -421.555219248     A.U. after   14 cycles
 SCF Done:  E(RB3LYP) =  -421.560199242     A.U. after   12 cycles
 SCF Done:  E(RB3LYP) =  -421.562061921     A.U. after   12 cycles
 SCF Done:  E(RB3LYP) =  -421.563022389     A.U. after   12 cycles
 SCF Done:  E(RB3LYP) =  -421.563218419     A.U. after   12 cycles
 SCF Done:  E(RB3LYP) =  -421.563270525     A.U. after   11 cycles
 SCF Done:  E(RB3LYP) =  -421.563286113     A.U. after   10 cycles
 SCF Done:  E(RB3LYP) =  -421.563297682     A.U. after   10 cycles
 SCF Done:  E(RB3LYP) =  -421.563305764     A.U. after   10 cycles
 SCF Done:  E(RB3LYP) =  -421.563308733     A.U. after    9 cycles
 SCF Done:  E(RB3LYP) =  -421.563309242     A.U. after    8 cycles
 SCF Done:  E(RB3LYP) =  -421.563309330     A.U. after    7 cycles
 Optimization completed.
    -- Stationary point found.

 1\1\GINC-NODE115\FOpt\RB3LYP\6-31G(d)\C8H12N2\VSC10255\08-Dec-2020\0\\
 # opt freq B3LYP/6-31G(d) empiricaldispersion=gd3bj scf=xqc\\CID_15452
 3024_JID_793_neutraal\\0,1\C,0.974513765,-0.2238169213,-0.0967205927\C
 ,0.7271346565,-0.6739651743,1.3581109821\C,1.3256531457,-2.0277898989,
 1.6702082891\C,0.9108663413,-3.1967045528,1.1262663622\C,-0.2919341428
 ,-3.3489177401,0.3234410564\C,-1.4224975264,-2.6052590937,0.3865311095
 \C,-1.6910419238,-1.4680376201,1.2550551413\C,-0.7345567086,-0.6433009
 573,1.748039105\N,-3.0485200284,-1.316118636,1.6248703558\N,1.66222751

 Normal termination of Gaussian 16 at Tue Dec  8 12:32:29 2020.

 --------------------------------------------------------------------
 #N Geom=AllCheck Guess=TCheck SCRF=Check GenChk RB3LYP/6-31G(d) Freq
 --------------------------------------------------------------------

 Structure from the checkpoint file:  "JID_793.chk"
 ------------------------------
 CID_154523024_JID_793_neutraal
 ------------------------------
 Charge =  0 Multiplicity = 1

 SCF Done:  E(RB3LYP) =  -421.563309330     A.U. after    1 cycles

  Exact polarizability: 118.178   0.099 103.244   1.125 -16.586  67.038
 Approx polarizability: 175.543   0.210 170.864  -0.509 -42.731 105.463

                      1                      2                      3
                      A                      A                      A
 Frequencies --    107.9384               153.5429               165.1815
 Red. masses --      3.6696                 2.8574                 3.2149
 Frc consts  --      0.0252                 0.0397                 0.0517
 IR Inten    --      4.0084                 0.7240                 0.7537

                      4                      5                      6
                      A                      A                      A
 Frequencies --    218.3500               252.6695               293.4986
 Red. masses --      1.1470                 1.0437                 1.9160
 Frc consts  --      0.0322                 0.0393                 0.0972
 IR Inten    --     17.2715                 0.0505                14.4266

                      7                      8                      9
                      A                      A                      A
 Frequencies --    315.8526               332.8231               354.9924
 Red. masses --      2.7671                 2.6875                 1.4951
 Frc consts  --      0.1626                 0.1754                 0.1110
 IR Inten    --     11.9713                 7.2424                25.6771

                     10                     11                     12
                      A                      A                      A
 Frequencies --    384.3884               398.2982               444.2629
 Red. masses --      3.7072                 3.4129                 3.0182
 Frc consts  --      0.3227                 0.3190                 0.3510
 IR Inten    --      0.8341                 6.1751                12.5827

                     13                     14                     15
                      A                      A                      A
 Frequencies --    498.7119               515.7894               653.5779
 Red. masses --      2.1832                 3.1717                 2.1550
 Frc consts  --      0.3199                 0.4972                 0.5424
 IR Inten    --     33.9807                 4.1393               143.6560

                     16                     17                     18
                      A                      A                      A
 Frequencies --    681.5677               703.8172               734.7425
 Red. masses --      3.1204                 1.9169                 2.3851
 Frc consts  --      0.8540                 0.5595                 0.7586
 IR Inten    --      7.4342               177.2107                59.6374

                     19                     20                     21
                      A                      A                      A
 Frequencies --    771.4026               811.0150               819.0222
 Red. masses --      1.6166                 1.8666                 2.0399
 Frc consts  --      0.5668                 0.7234                 0.8062
 IR Inten    --     69.0186                19.4378                51.4703

                     22                     23                     24
                      A                      A                      A
 Frequencies --    825.2666               837.7332               893.1194
 Red. masses --      2.1383                 1.8744                 2.6562
 Frc consts  --      0.8580                 0.7750                 1.2483
 IR Inten    --     39.8488               106.0060                 4.6297

                     25                     26                     27
                      A                      A                      A
 Frequencies --    942.4837               989.9870              1024.7476
 Red. masses --      2.9224                 1.2518                 1.6997
 Frc consts  --      1.5294                 0.7228                 1.0516
 IR Inten    --      4.1630                 0.2827                 6.3057

                     28                     29                     30
                      A                      A                      A
 Frequencies --   1031.7511              1116.4270              1130.5433
 Red. masses --      1.6016                 2.3168                 1.4611
 Frc consts  --      1.0045                 1.7013                 1.1003
 IR Inten    --      9.0130                 3.3007                 4.8900

                     31                     32                     33
                      A                      A                      A
 Frequencies --   1181.8663              1210.6642              1237.4981
 Red. masses --      1.5432                 1.2836                 2.8467
 Frc consts  --      1.2700                 1.1085                 2.5685
 IR Inten    --      1.8188                 2.9482                61.9515

                     34                     35                     36
                      A                      A                      A
 Frequencies --   1256.5862              1284.4033              1367.4097
 Red. masses --      1.4101                 1.8297                 1.2690
 Frc consts  --      1.3118                 1.7784                 1.3980
 IR Inten    --     25.2181                 5.8482                 6.5315

                     37                     38                     39
                      A                      A                      A
 Frequencies --   1379.2569              1382.9202              1415.9000
 Red. masses --      1.5498                 1.3265                 1.4597
 Frc consts  --      1.7370                 1.4947                 1.7242
 IR Inten    --      6.4507                 2.4979                 8.7970

                     40                     41                     42
                      A                      A                      A
 Frequencies --   1433.0906              1514.1509              1519.1858
 Red. masses --      1.3901                 2.0171                 1.0442
 Frc consts  --      1.6821                 2.7247                 1.4198
 IR Inten    --      7.9402                28.5901                 5.7071

                     43                     44                     45
                      A                      A                      A
 Frequencies --   1529.8308              1621.9706              1679.8263
 Red. masses --      1.0759                 7.4126                 1.5354
 Frc consts  --      1.4836                11.4897                 2.5526
 IR Inten    --      0.0211                 2.6778                18.9775

                     46                     47                     48
                      A                      A                      A
 Frequencies --   1691.8914              1706.2638              1723.8053
 Red. masses --      1.1350                 2.8171                 4.4205
 Frc consts  --      1.9142                 4.8322                 7.7392
 IR Inten    --     29.6781                98.4278                41.5355

                     49                     50                     51
                      A                      A                      A
 Frequencies --   3044.4411              3051.1501              3107.2183
 Red. masses --      1.0447                 1.0763                 1.1028
 Frc consts  --      5.7050                 5.9034                 6.2734
 IR Inten    --     32.0242                42.2347                34.3354

                     52                     53                     54
                      A                      A                      A
 Frequencies --   3134.6279              3141.5529              3143.0477
 Red. masses --      1.0852                 1.0898                 1.0966
 Frc consts  --      6.2825                 6.3368                 6.3828
 IR Inten    --     19.1213                38.8888                20.5113

                     55                     56                     57
                      A                      A                      A
 Frequencies --   3147.0153              3167.5609              3504.3119
 Red. masses --      1.0905                 1.0911                 1.0490
 Frc consts  --      6.3632                 6.4500                 7.5900
 IR Inten    --     42.1828                22.7929                 1.5192

                     58                     59                     60
                      A                      A                      A
 Frequencies --   3533.7201              3603.3392              3630.6657
 Red. masses --      1.0482                 1.0952                 1.0967
 Frc consts  --      7.7117                 8.3782                 8.5178
 IR Inten    --      3.0581                 2.6529                 3.5103

 - Thermochemistry -
 -------------------
 Temperature   298.150 Kelvin.  Pressure   1.00000 Atm.
 Atom     1 has atomic number  6 and mass  12.00000

 Molecular mass:   136.10005 amu.
 Principal axes and moments of inertia in atomic units:
                           1         2         3
     Eigenvalues --   956.209091585.205452107.35469
           X            0.99995   0.00266   0.00998
           Y           -0.00264   1.00000  -0.00146
           Z           -0.00998   0.00144   0.99995
 This molecule is an asymmetric top.
 Rotational symmetry number  1.
 Warning -- assumption of classical behavior for rotation
           may cause significant error
 Rotational temperatures (Kelvin)      0.09058     0.05464     0.04110
 Rotational constants (GHZ):           1.88739     1.13849     0.85640
 Zero-point vibrational energy     500928.3 (Joules/Mol)
                                  119.72474 (Kcal/Mol)
 Warning -- explicit consideration of  14 degrees of freedom as
           vibrations may cause significant error
 Vibrational temperatures:    155.30   220.91   237.66   314.16   363.54
          (Kelvin)            422.28   454.44   478.86   510.75   553.05
                              573.06   639.20   717.54   742.11   940.35
                              980.62  1012.64  1057.13  1109.88  1166.87
                             1178.39  1187.37  1205.31  1285.00  1356.02
                             1424.37  1474.38  1484.46  1606.29  1626.60
                             1700.44  1741.88  1780.48  1807.95  1847.97
                             1967.40  1984.44  1989.71  2037.16  2061.90
                             2178.53  2185.77  2201.09  2333.65  2416.90
                             2434.25  2454.93  2480.17  4380.27  4389.92
                             4470.59  4510.03  4519.99  4522.14  4527.85
                             4557.41  5041.92  5084.24  5184.40  5223.72

 Zero-point correction=                           0.190794 (Hartree/Particle)
 Thermal correction to Energy=                    0.200750
 Thermal correction to Enthalpy=                  0.201694
 Thermal correction to Gibbs Free Energy=         0.156662
 Sum of electronic and zero-point Energies=           -421.372516
 Sum of electronic and thermal Energies=              -421.362559
 Sum of electronic and thermal Enthalpies=            -421.361615
 Sum of electronic and thermal Free Energies=         -421.406647

                     E (Thermal)             CV                S
                      KCal/Mol        Cal/Mol-Kelvin    Cal/Mol-Kelvin
 Total                  125.972             39.532             94.778
 Electronic               0.000              0.000              0.000
 Translational            0.889              2.981             40.637
 Rotational               0.889              2.981             29.548
 Vibrational            124.195             33.570             24.593
 Vibration     1          0.606              1.943              3.306
 Vibration     2          0.619              1.899              2.628
 Vibration     3          0.624              1.885              2.490
 Vibration     4          0.646              1.813              1.973
 Vibration     5          0.664              1.758              1.712
 Vibration     6          0.688              1.686              1.454
 Vibration     7          0.703              1.643              1.331
 Vibration     8          0.715              1.610              1.246
 Vibration     9          0.731              1.565              1.144
 Vibration    10          0.753              1.504              1.022
 Vibration    11          0.765              1.474              0.969
 Vibration    12          0.804              1.374              0.813
 Vibration    13          0.854              1.253              0.661
 Vibration    14          0.871              1.215              0.620

 Optimization completed.
    -- Stationary point found.

 1\1\GINC-NODE115\Freq\RB3LYP\6-31G(d)\C8H12N2\VSC10255\08-Dec-2020\0\\
 #N Geom=AllCheck Guess=TCheck SCRF=Check GenChk RB3LYP/6-31G(d) Freq\\
 CID_154523024_JID_793_neutraal\\0,1\C,0.974513765,-0.2238169213,-0.096
 7205927\C,0.7271346565,-0.6739651743,1.3581109821\C,1.3256531457,-2.02
 77898989,1.6702082891\C,0.9108663413,-3.1967045528,1.1262663622\C,-0.2
 919341428,-3.3489177401,0.3234410564\C,-1.4224975264,-2.6052590937,0.3
 865311095\C,-1.6910419238,-1.4680376201,1.2550551413\C,-0.7345567086,-
 0.6433009573,1.748039105\N,-3.0485200284,-1.316118636,1.6248703558\N,1

 Normal termination of Gaussian 16 at Tue Dec  8 12:42:36 2020.

 ----------------------------------------------------------------------
 # B3LYP/6-311++G(d,p) empiricaldispersion=gd3bj scf=xqc pop=npa geom=c
 heck
 ----------------------------------------------------------------------

 --------------------------------------
 CID_154523024_JID_793_Energie_neutraal
 --------------------------------------
 Structure from the checkpoint file:  "JID_793.chk"
 Charge =  0 Multiplicity = 1

 SCF Done:  E(RB3LYP) =  -421.694637095     A.U. after   15 cycles
 Normal termination of Gaussian 16 at Tue Dec  8 12:49:40 2020.

 ----------------------------------------------------------------------
 # B3LYP/6-311++G(d,p) empiricaldispersion=gd3bj scf=xqc pop=npa geom=c
 heck
 ----------------------------------------------------------------------

 ------------------------------------
 CID_154523024_JID_793_Energie_kation
 ------------------------------------
 Structure from the checkpoint file:  "JID_793.chk"
 Charge =  1 Multiplicity = 2

 SCF Done:  E(UB3LYP) =  -421.421857307     A.U. after   28 cycles
 Normal termination of Gaussian 16 at Tue Dec  8 13:04:49 2020.
 Gaussian 16:  ES64L-G16RevA.03 25-Dec-2016

 -----------------------------------
 CID_154523024_JID_793_Energie_anion
 -----------------------------------
 Structure from the checkpoint file:  "JID_793.chk"
 Charge = -1 Multiplicity = 2

                         Standard orientation:
 ---------------------------------------------------------------------
 Center     Atomic      Atomic             Coordinates (Angstroms)
 Number     Number       Type             X           Y           Z
 ---------------------------------------------------------------------
      1          6           0       -0.023576    2.102376    1.110006
      2          6           0       -0.010465    1.563832   -0.335734
      3          6           0       -1.242522    0.756022   -0.679172
      4          6           0       -1.559118   -0.438381   -0.124690
      5          6           0       -0.668846   -1.211675    0.726109
      6          6           0        0.685782   -1.212737    0.713400
      7          6           0        1.567300   -0.426166   -0.137455
      8          6           0        1.240741    0.779266   -0.665074
      9          7           0        2.797438   -1.051819   -0.450357
     10          7           0       -2.838752   -1.026737   -0.287406
     11          1           0        0.858602    2.727181    1.293772
     12          1           0       -0.017625    1.282171    1.832432
     13          1           0       -0.921744    2.705837    1.286591
     14          1           0       -0.013753    2.437308   -0.997874
     15          1           0       -1.951137    1.198161   -1.379571
     16          1           0       -1.166324   -1.922068    1.384342
     17          1           0        1.180338   -1.939387    1.358862
     18          1           0        1.950985    1.238687   -1.352196
     19          1           0        3.546652   -0.396738   -0.641625
     20          1           0        3.095845   -1.727233    0.243909
     21          1           0       -2.793420   -2.006024   -0.554383
     22          1           0       -3.414998   -0.523227   -0.954258
 ---------------------------------------------------------------------

 SCF Done:  E(UB3LYP) =  -421.683747624     A.U. after   33 cycles
 SCF Done:  E(UB3LYP) =  -421.683747624     a.u. after    1 cycles

 The electronic state is 2-A.
 Alpha  occ. eigenvalues --  -14.18043 -14.17116 -10.06185 -10.05796 -10.04477
 Alpha  occ. eigenvalues --  -10.02636 -10.02299 -10.02077 -10.01436 -10.00725
 Alpha  occ. eigenvalues --   -0.77734  -0.76856  -0.67894  -0.63191  -0.58998
 Alpha  occ. eigenvalues --   -0.55984  -0.49794  -0.48617  -0.40940  -0.38614
 Alpha  occ. eigenvalues --   -0.37584  -0.34684  -0.33878  -0.31868  -0.30826
 Alpha  occ. eigenvalues --   -0.28754  -0.26987  -0.26467  -0.24700  -0.22535
 Alpha  occ. eigenvalues --   -0.21089  -0.20771  -0.19723  -0.18186  -0.13237
 Alpha  occ. eigenvalues --   -0.07289  -0.06395   0.05483
 Alpha virt. eigenvalues --    0.07515   0.08777   0.09278   0.10033   0.10567
 Alpha virt. eigenvalues --    0.11315   0.12289   0.12620   0.13971   0.14222
 Alpha virt. eigenvalues --    0.15251   0.15868   0.16548   0.17919   0.19075

  Beta  occ. eigenvalues --  -14.17995 -14.17053 -10.06218 -10.05810 -10.04494
  Beta  occ. eigenvalues --  -10.02629 -10.02110 -10.01891 -10.01264 -10.00524
  Beta  occ. eigenvalues --   -0.77603  -0.76745  -0.67690  -0.62850  -0.58727
  Beta  occ. eigenvalues --   -0.55813  -0.49305  -0.48547  -0.40790  -0.38437
  Beta  occ. eigenvalues --   -0.37495  -0.34518  -0.33679  -0.31760  -0.30717
  Beta  occ. eigenvalues --   -0.28644  -0.26861  -0.26283  -0.24475  -0.22422
  Beta  occ. eigenvalues --   -0.20868  -0.20548  -0.19572  -0.18046  -0.12470
  Beta  occ. eigenvalues --   -0.06586  -0.05574
  Beta virt. eigenvalues --    0.08180   0.08721   0.09358   0.10110   0.10812
  Beta virt. eigenvalues --    0.11049   0.11358   0.12522   0.12894   0.14082
  Beta virt. eigenvalues --    0.14214   0.15546   0.15755   0.16876   0.17899

 Mulliken charges and spin densities:
               1          2
     1  C   -0.542530  -0.105066
     2  C    0.230029  -0.030425
     3  C   -0.107125   0.144133
     4  C   -0.018990  -0.279041
     5  C   -0.151871   0.008252
     6  C    0.289004  -0.182428
     7  C   -0.317598  -0.203132
     8  C   -0.016859   0.098967
     9  N   -0.217579  -0.127029
    10  N   -0.281125  -0.073351
    11  H    0.034974   0.071330
    12  H    0.143382   0.001172
    13  H    0.103835   0.002557
    14  H    0.130083   0.001322
    15  H    0.029021   0.083480
    16  H    0.119618   0.004804
    17  H    0.003051   0.120937
    18  H    0.037683   0.090222
    19  H   -0.299160   0.537528
    20  H   -0.097765   0.320142
    21  H    0.050568   0.171170
    22  H   -0.120646   0.344457
 Sum of Mulliken charges =  -1.00000   1.00000

 Dipole moment (field-independent basis, Debye):
    X=             -2.2939    Y=              1.7646    Z=              0.7314  Tot=              2.9851
 Quadrupole moment (field-independent basis, Debye-Ang):
   XX=           -116.4625   YY=            -81.4232   ZZ=            -77.4586
   XY=              2.2378   XZ=              3.1176   YZ=             -2.8421

 Summary of Natural Population Analysis:

                                       Natural Population
                Natural  -----------------------------------------------
    Atom  No    Charge         Core      Valence    Rydberg      Total
 -----------------------------------------------------------------------
      C    1   -0.27903      0.99965     2.27440    0.00498     3.27903
      C    2   -0.13885      0.99960     2.12866    0.01058     3.13885
      C    3   -0.08504      0.99949     2.07474    0.01081     3.08504
      C    4    0.05615      0.99944     1.93382    0.01059     2.94385
      C    5   -0.08343      0.99952     2.07337    0.01054     3.08343
      C    6   -0.07434      0.99952     2.06475    0.01007     3.07434
      C    7    0.05923      0.99944     1.93027    0.01105     2.94077
      C    8   -0.07994      0.99949     2.06914    0.01131     3.07994
      N    9   -0.40795      0.99973     2.89589    0.01233     3.90795
      N   10   -0.40754      0.99973     2.89655    0.01126     3.90754
      H   11    0.09140      0.00000     0.40762    0.00098     0.40860
      H   12    0.10328      0.00000     0.39598    0.00074     0.39672
      H   13    0.08971      0.00000     0.40951    0.00078     0.41029
      H   14    0.09237      0.00000     0.40622    0.00141     0.40763
      H   15    0.08487      0.00000     0.41407    0.00106     0.41513
      H   16    0.09063      0.00000     0.40807    0.00130     0.40937
      H   17    0.08616      0.00000     0.41243    0.00142     0.41384
      H   18    0.08736      0.00000     0.41155    0.00109     0.41264
      H   19    0.18219      0.00000     0.31246    0.00536     0.31781
      H   20    0.17892      0.00000     0.31873    0.00235     0.32108
      H   21    0.17648      0.00000     0.32187    0.00165     0.32352
      H   22    0.17737      0.00000     0.32041    0.00221     0.32263
 =======================================================================
   * Total *    0.00000      9.99561    26.88050    0.12389    37.00000

 Normal termination of Gaussian 16 at Tue Dec  8 13:12:06 2020.
