 Gaussian 16, Revision A.03,

 -----------------------------------------------------------
 # opt freq B3LYP/6-31G(d) empiricaldispersion=gd3bj scf=xqc
 -----------------------------------------------------------

 -----------------------------
 CID_11457738_JID_228_neutraal
 -----------------------------
 Symbolic Z-matrix:
 Charge =  0 Multiplicity = 1

 SCF Done:  E(RB3LYP) =  -462.522089475     A.U. after   15 cycles
 SCF Done:  E(RB3LYP) =  -462.523928843     A.U. after   12 cycles
 SCF Done:  E(RB3LYP) =  -462.522233004     A.U. after   14 cycles
 SCF Done:  E(RB3LYP) =  -462.524387394     A.U. after   12 cycles
 SCF Done:  E(RB3LYP) =  -462.524519780     A.U. after   12 cycles
 SCF Done:  E(RB3LYP) =  -462.524705870     A.U. after   11 cycles
 SCF Done:  E(RB3LYP) =  -462.524728898     A.U. after   12 cycles
 SCF Done:  E(RB3LYP) =  -462.524735981     A.U. after   11 cycles
 SCF Done:  E(RB3LYP) =  -462.524738338     A.U. after   11 cycles
 SCF Done:  E(RB3LYP) =  -462.524744764     A.U. after   10 cycles
 SCF Done:  E(RB3LYP) =  -462.524750361     A.U. after   11 cycles
 SCF Done:  E(RB3LYP) =  -462.524752356     A.U. after   10 cycles
 SCF Done:  E(RB3LYP) =  -462.524757618     A.U. after   12 cycles
 SCF Done:  E(RB3LYP) =  -462.524759748     A.U. after   11 cycles
 SCF Done:  E(RB3LYP) =  -462.524760123     A.U. after   10 cycles
 SCF Done:  E(RB3LYP) =  -462.524760171     A.U. after    8 cycles
 Optimization completed.
    -- Stationary point found.

 1\1\GINC-NODE121\FOpt\RB3LYP\6-31G(d)\C8H12O2\VSC10255\08-Dec-2020\0\\
 # opt freq B3LYP/6-31G(d) empiricaldispersion=gd3bj scf=xqc\\CID_11457
 738_JID_228_neutraal\\0,1\C,1.1285867504,-0.0473887693,-0.035449548\C,
 1.1033074131,0.155906573,-1.5609747906\C,1.5830073311,-1.0928232453,-2
 .2889985529\O,0.7828672872,-1.9125261056,-2.7184970372\C,3.0374291638,
 -1.3492351265,-2.4390531493\C,4.0248434461,-0.5322113493,-2.0466418911
 \C,5.486160311,-0.8220529052,-2.2309597045\C,6.1701343889,0.1017276493
 ,-3.2776356349\C,6.0896299263,1.5567689208,-2.8741025082\O,6.992720061

 Normal termination of Gaussian 16 at Tue Dec  8 10:22:31 2020.

 --------------------------------------------------------------------
 #N Geom=AllCheck Guess=TCheck SCRF=Check GenChk RB3LYP/6-31G(d) Freq
 --------------------------------------------------------------------

 Structure from the checkpoint file:  "JID_228.chk"
 -----------------------------
 CID_11457738_JID_228_neutraal
 -----------------------------
 Charge =  0 Multiplicity = 1

 SCF Done:  E(RB3LYP) =  -462.524760171     A.U. after    1 cycles

  Exact polarizability: 119.758   7.742  85.308  10.902  -1.118  64.921
 Approx polarizability: 170.000  32.193 127.098  23.150   3.801  94.480

                      1                      2                      3
                      A                      A                      A
 Frequencies --     17.0712                33.9651                57.7488
 Red. masses --      5.8249                 5.0010                 3.2050
 Frc consts  --      0.0010                 0.0034                 0.0063
 IR Inten    --     10.2939                 2.8008                 2.5870

                      4                      5                      6
                      A                      A                      A
 Frequencies --     72.0191               102.0225               153.6383
 Red. masses --      2.7043                 3.3604                 3.2293
 Frc consts  --      0.0083                 0.0206                 0.0449
 IR Inten    --      0.8884                 1.8954                 1.7308

                      7                      8                      9
                      A                      A                      A
 Frequencies --    183.0606               224.2685               247.0754
 Red. masses --      1.9985                 1.2795                 2.6834
 Frc consts  --      0.0395                 0.0379                 0.0965
 IR Inten    --      1.8093                 1.0867                 1.1524

                     10                     11                     12
                      A                      A                      A
 Frequencies --    292.2993               370.6772               418.2993
 Red. masses --      2.6469                 2.5118                 2.8664
 Frc consts  --      0.1332                 0.2033                 0.2955
 IR Inten    --      1.5513                 0.5198                 2.5232

                     13                     14                     15
                      A                      A                      A
 Frequencies --    503.8896               527.7418               540.3973
 Red. masses --      2.3107                 3.6770                 2.9502
 Frc consts  --      0.3457                 0.6034                 0.5076
 IR Inten    --      6.6412                 4.6474                15.9869

                     16                     17                     18
                      A                      A                      A
 Frequencies --    691.4401               771.1685               817.8181
 Red. masses --      3.3379                 2.3052                 1.2209
 Frc consts  --      0.9402                 0.8077                 0.4811
 IR Inten    --      2.6279                 8.4210                 0.8289

                     19                     20                     21
                      A                      A                      A
 Frequencies --    829.4963               860.1388               898.3805
 Red. masses --      1.9364                 2.1984                 2.0127
 Frc consts  --      0.7850                 0.9583                 0.9571
 IR Inten    --      9.6850                 1.5346                 4.2664

                     22                     23                     24
                      A                      A                      A
 Frequencies --    961.5407               991.7392              1021.5695
 Red. masses --      1.6988                 2.2000                 1.8729
 Frc consts  --      0.9254                 1.2749                 1.1516
 IR Inten    --      1.7241                 6.6900                10.0362

                     25                     26                     27
                      A                      A                      A
 Frequencies --   1031.5394              1075.5014              1087.9547
 Red. masses --      1.2273                 1.9182                 2.1622
 Frc consts  --      0.7694                 1.3073                 1.5079
 IR Inten    --     21.7529                29.9198                24.7429

                     28                     29                     30
                      A                      A                      A
 Frequencies --   1089.8408              1134.1166              1197.4592
 Red. masses --      1.7840                 2.4193                 1.2537
 Frc consts  --      1.2485                 1.8334                 1.0592
 IR Inten    --      4.2275                 5.7813                12.3988

                     31                     32                     33
                      A                      A                      A
 Frequencies --   1241.8055              1255.4917              1309.2940
 Red. masses --      1.4068                 1.5655                 1.2807
 Frc consts  --      1.2782                 1.4539                 1.2935
 IR Inten    --     23.4330                44.0760                26.0898

                     34                     35                     36
                      A                      A                      A
 Frequencies --   1327.0282              1339.2281              1350.0390
 Red. masses --      1.5748                 1.2055                 1.3031
 Frc consts  --      1.6339                 1.2738                 1.3994
 IR Inten    --     19.2866                 2.6938                 1.8567

                     37                     38                     39
                      A                      A                      A
 Frequencies --   1359.2866              1384.0406              1435.8670
 Red. masses --      1.7595                 1.3919                 1.2163
 Frc consts  --      1.9154                 1.5710                 1.4775
 IR Inten    --     28.3356                 7.0292                 3.4091

                     40                     41                     42
                      A                      A                      A
 Frequencies --   1444.4749              1502.1763              1516.5327
 Red. masses --      1.2097                 1.1057                 1.1001
 Frc consts  --      1.4871                 1.4701                 1.4907
 IR Inten    --      6.6420                 6.1466                 7.5097

                     43                     44                     45
                      A                      A                      A
 Frequencies --   1516.8154              1528.5173              1539.5127
 Red. masses --      1.0788                 1.0421                 1.0687
 Frc consts  --      1.4623                 1.4345                 1.4924
 IR Inten    --      1.6519                 5.7908                 9.3907

                     46                     47                     48
                      A                      A                      A
 Frequencies --   1721.0764              1769.7358              1835.8702
 Red. masses --      5.9061                10.4379                 9.4695
 Frc consts  --     10.3075                19.2611                18.8045
 IR Inten    --     25.9636               208.3244               168.8430

                     49                     50                     51
                      A                      A                      A
 Frequencies --   2900.2250              3046.5805              3058.6921
 Red. masses --      1.0835                 1.0637                 1.0605
 Frc consts  --      5.3696                 5.8168                 5.8456
 IR Inten    --    109.4110                12.1267                13.5194

                     52                     53                     54
                      A                      A                      A
 Frequencies --   3059.0028              3064.9931              3102.6475
 Red. masses --      1.0346                 1.0632                 1.0999
 Frc consts  --      5.7043                 5.8846                 6.2383
 IR Inten    --     21.1105                19.4629                11.9333

                     55                     56                     57
                      A                      A                      A
 Frequencies --   3115.8990              3126.2997              3131.5139
 Red. masses --      1.1008                 1.1041                 1.1025
 Frc consts  --      6.2968                 6.3579                 6.3700
 IR Inten    --      0.5765                17.0626                27.6296

                     58                     59                     60
                      A                      A                      A
 Frequencies --   3137.5497              3168.8660              3176.5015
 Red. masses --      1.1036                 1.0918                 1.0866
 Frc consts  --      6.4007                 6.4595                 6.4600
 IR Inten    --     36.8937                 3.4678                18.5823

 - Thermochemistry -
 -------------------
 Temperature   298.150 Kelvin.  Pressure   1.00000 Atm.
 Atom     1 has atomic number  6 and mass  12.00000

 Molecular mass:   140.08373 amu.
 Principal axes and moments of inertia in atomic units:
                           1         2         3
     Eigenvalues --   754.555503396.810583805.43482
           X            0.99929  -0.03769  -0.00292
           Y            0.03766   0.99925  -0.00871
           Z            0.00325   0.00860   0.99996
 This molecule is an asymmetric top.
 Rotational symmetry number  1.
 Warning -- assumption of classical behavior for rotation
           may cause significant error
 Rotational temperatures (Kelvin)      0.11479     0.02550     0.02276
 Rotational constants (GHZ):           2.39179     0.53130     0.47425
 Zero-point vibrational energy     488491.7 (Joules/Mol)
                                  116.75233 (Kcal/Mol)
 Warning -- explicit consideration of  15 degrees of freedom as
           vibrations may cause significant error
 Vibrational temperatures:     24.56    48.87    83.09   103.62   146.79
          (Kelvin)            221.05   263.38   322.67   355.49   420.55
                              533.32   601.84   724.98   759.30   777.51
                              994.83  1109.54  1176.66  1193.46  1237.55
                             1292.57  1383.44  1426.89  1469.81  1484.16
                             1547.41  1565.32  1568.04  1631.74  1722.88
                             1786.68  1806.37  1883.78  1909.30  1926.85
                             1942.40  1955.71  1991.33  2065.89  2078.28
                             2161.30  2181.95  2182.36  2199.20  2215.02
                             2476.25  2546.26  2641.41  4172.78  4383.35
                             4400.78  4401.22  4409.84  4464.02  4483.08
                             4498.05  4505.55  4514.23  4559.29  4570.28

 Zero-point correction=                           0.186057 (Hartree/Particle)
 Thermal correction to Energy=                    0.197778
 Thermal correction to Enthalpy=                  0.198722
 Thermal correction to Gibbs Free Energy=         0.145509
 Sum of electronic and zero-point Energies=           -462.338703
 Sum of electronic and thermal Energies=              -462.326982
 Sum of electronic and thermal Enthalpies=            -462.326038
 Sum of electronic and thermal Free Energies=         -462.379251

                     E (Thermal)             CV                S
                      KCal/Mol        Cal/Mol-Kelvin    Cal/Mol-Kelvin
 Total                  124.107             39.806            111.996
 Electronic               0.000              0.000              0.000
 Translational            0.889              2.981             40.723
 Rotational               0.889              2.981             30.657
 Vibrational            122.330             33.844             40.617
 Vibration     1          0.593              1.986              6.949
 Vibration     2          0.594              1.983              5.583
 Vibration     3          0.596              1.974              4.533
 Vibration     4          0.598              1.967              4.097
 Vibration     5          0.604              1.948              3.415
 Vibration     6          0.619              1.899              2.627
 Vibration     7          0.631              1.863              2.297
 Vibration     8          0.649              1.804              1.924
 Vibration     9          0.661              1.768              1.751
 Vibration    10          0.688              1.688              1.461
 Vibration    11          0.743              1.532              1.077
 Vibration    12          0.781              1.430              0.898
 Vibration    13          0.859              1.241              0.648
 Vibration    14          0.883              1.189              0.592
 Vibration    15          0.895              1.161              0.564

 Optimization completed.
    -- Stationary point found.

 1\1\GINC-NODE121\Freq\RB3LYP\6-31G(d)\C8H12O2\VSC10255\08-Dec-2020\0\\
 #N Geom=AllCheck Guess=TCheck SCRF=Check GenChk RB3LYP/6-31G(d) Freq\\
 CID_11457738_JID_228_neutraal\\0,1\C,1.1285867504,-0.0473887693,-0.035
 449548\C,1.1033074131,0.155906573,-1.5609747906\C,1.5830073311,-1.0928
 232453,-2.2889985529\O,0.7828672872,-1.9125261056,-2.7184970372\C,3.03
 74291638,-1.3492351265,-2.4390531493\C,4.0248434461,-0.5322113493,-2.0
 466418911\C,5.486160311,-0.8220529052,-2.2309597045\C,6.1701343889,0.1
 017276493,-3.2776356349\C,6.0896299263,1.5567689208,-2.8741025082\O,6.

 Normal termination of Gaussian 16 at Tue Dec  8 10:25:54 2020.

 ----------------------------------------------------------------------
 # B3LYP/6-311++G(d,p) empiricaldispersion=gd3bj scf=xqc pop=npa geom=c
 heck
 ----------------------------------------------------------------------

 -------------------------------------
 CID_11457738_JID_228_Energie_neutraal
 -------------------------------------
 Structure from the checkpoint file:  "JID_228.chk"
 Charge =  0 Multiplicity = 1

 SCF Done:  E(RB3LYP) =  -462.664339255     A.U. after   14 cycles
 Normal termination of Gaussian 16 at Tue Dec  8 10:27:26 2020.

 ----------------------------------------------------------------------
 # B3LYP/6-311++G(d,p) empiricaldispersion=gd3bj scf=xqc pop=npa geom=c
 heck
 ----------------------------------------------------------------------

 -----------------------------------
 CID_11457738_JID_228_Energie_kation
 -----------------------------------
 Structure from the checkpoint file:  "JID_228.chk"
 Charge =  1 Multiplicity = 2

 SCF Done:  E(UB3LYP) =  -462.331333264     A.U. after   28 cycles
 Normal termination of Gaussian 16 at Tue Dec  8 10:31:40 2020.
 Gaussian 16:  ES64L-G16RevA.03 25-Dec-2016

 ----------------------------------
 CID_11457738_JID_228_Energie_anion
 ----------------------------------
 Structure from the checkpoint file:  "JID_228.chk"
 Charge = -1 Multiplicity = 2

                         Standard orientation:
 ---------------------------------------------------------------------
 Center     Atomic      Atomic             Coordinates (Angstroms)
 Number     Number       Type             X           Y           Z
 ---------------------------------------------------------------------
      1          6           0       -2.689464    1.708258    0.737654
      2          6           0       -2.350543    0.978304   -0.574403
      3          6           0       -2.169958   -0.515701   -0.340322
      4          8           0       -3.093099   -1.294987   -0.533016
      5          6           0       -0.877475   -1.033203    0.174735
      6          6           0        0.225379   -0.306874    0.404215
      7          6           0        1.520062   -0.872120    0.911878
      8          6           0        2.656218   -0.858559   -0.149106
      9          6           0        2.975155    0.546979   -0.606496
     10          8           0        3.904002    1.201121   -0.186817
     11          1           0       -3.596141    1.287726    1.184337
     12          1           0       -2.862426    2.773126    0.552090
     13          1           0       -1.879377    1.616604    1.468573
     14          1           0       -3.173644    1.088740   -1.285731
     15          1           0       -1.453013    1.415593   -1.026883
     16          1           0       -0.880629   -2.105168    0.366503
     17          1           0        0.211100    0.764272    0.208191
     18          1           0        1.860757   -0.293885    1.780972
     19          1           0        1.370436   -1.904944    1.243603
     20          1           0        3.561662   -1.291965    0.286298
     21          1           0        2.343940   -1.459984   -1.011931
     22          1           0        2.273876    0.978310   -1.356284
 ---------------------------------------------------------------------

 SCF Done:  E(UB3LYP) =  -462.674226052     A.U. after   29 cycles

 The electronic state is 2-A.
 Alpha  occ. eigenvalues --  -18.98759 -18.91659 -10.11937 -10.06304 -10.05395
 Alpha  occ. eigenvalues --  -10.05204 -10.03955 -10.03114 -10.01132 -10.00465
 Alpha  occ. eigenvalues --   -0.91934  -0.85756  -0.67870  -0.64212  -0.60920
 Alpha  occ. eigenvalues --   -0.53691  -0.50303  -0.45945  -0.42007  -0.38039
 Alpha  occ. eigenvalues --   -0.35773  -0.33580  -0.32600  -0.30166  -0.29837
 Alpha  occ. eigenvalues --   -0.29151  -0.27951  -0.26305  -0.25631  -0.24032
 Alpha  occ. eigenvalues --   -0.23746  -0.22429  -0.21510  -0.20433  -0.20054
 Alpha  occ. eigenvalues --   -0.13142  -0.11683  -0.07879   0.05081
 Alpha virt. eigenvalues --    0.07815   0.08801   0.09610   0.10449   0.11431
 Alpha virt. eigenvalues --    0.11680   0.11948   0.12736   0.13703   0.14593
 Alpha virt. eigenvalues --    0.14850   0.15526   0.16009   0.17451   0.17755

  Beta  occ. eigenvalues --  -18.98560 -18.91124 -10.11746 -10.06028 -10.05361
  Beta  occ. eigenvalues --  -10.05217 -10.03926 -10.03137 -10.00699 -10.00409
  Beta  occ. eigenvalues --   -0.91554  -0.84804  -0.67492  -0.64004  -0.60498
  Beta  occ. eigenvalues --   -0.53274  -0.50165  -0.45372  -0.41391  -0.37717
  Beta  occ. eigenvalues --   -0.35544  -0.33375  -0.32400  -0.30021  -0.29488
  Beta  occ. eigenvalues --   -0.28502  -0.27558  -0.26031  -0.25172  -0.23851
  Beta  occ. eigenvalues --   -0.23063  -0.22176  -0.21298  -0.19944  -0.18366
  Beta  occ. eigenvalues --   -0.12810  -0.09716  -0.07408
  Beta virt. eigenvalues --    0.08557   0.09031   0.09811   0.10560   0.11353
  Beta virt. eigenvalues --    0.11568   0.11680   0.12553   0.12824   0.13608
  Beta virt. eigenvalues --    0.14582   0.14798   0.15494   0.15907   0.17528

 Mulliken charges and spin densities:
               1          2
     1  C   -0.368105  -0.168258
     2  C   -0.045503   0.056532
     3  C   -0.308798   0.165191
     4  O   -0.406390   0.176248
     5  C   -0.065039   0.004621
     6  C    0.143863   0.313216
     7  C   -0.456084   0.060240
     8  C   -0.195898  -0.046585
     9  C   -0.136454   0.076621
    10  O   -0.302321   0.057950
    11  H    0.131425  -0.004414
    12  H   -0.036205   0.142969
    13  H    0.128086  -0.002120
    14  H    0.085242   0.077015
    15  H    0.068196   0.028872
    16  H    0.138520  -0.006020
    17  H    0.133281  -0.028012
    18  H    0.124987   0.015964
    19  H    0.129458  -0.000451
    20  H    0.100686   0.036374
    21  H    0.122626  -0.007968
    22  H    0.014426   0.052016
 Sum of Mulliken charges =  -1.00000   1.00000

 Dipole moment (field-independent basis, Debye):
    X=              2.0181    Y=              0.3698    Z=              0.9617  Tot=              2.2659
 Quadrupole moment (field-independent basis, Debye-Ang):
   XX=           -123.5438   YY=            -78.8246   ZZ=            -70.2826
   XY=            -16.7746   XZ=             -3.3157   YZ=             -1.9877

 Summary of Natural Population Analysis:

                                       Natural Population
                Natural  -----------------------------------------------
    Atom  No    Charge         Core      Valence    Rydberg      Total
 -----------------------------------------------------------------------
      C    1   -0.27993      0.99967     2.27564    0.00463     3.27993
      C    2   -0.23223      0.99961     2.22302    0.00960     3.23223
      C    3    0.28880      0.99964     1.68942    0.02214     2.71120
      O    4   -0.25887      0.99988     3.25186    0.00713     4.25887
      C    5   -0.13874      0.99949     2.12916    0.01010     3.13874
      C    6   -0.00267      0.99953     1.99496    0.00817     3.00267
      C    7   -0.19735      0.99962     2.19066    0.00707     3.19735
      C    8   -0.22990      0.99962     2.22171    0.00857     3.22990
      C    9    0.24840      0.99974     1.73088    0.02098     2.75160
      O   10   -0.27340      0.99988     3.26573    0.00779     4.27340
      H   11    0.09557      0.00000     0.40300    0.00143     0.40443
      H   12    0.08878      0.00000     0.40960    0.00162     0.41122
      H   13    0.09790      0.00000     0.40084    0.00126     0.40210
      H   14    0.09917      0.00000     0.39858    0.00225     0.40083
      H   15    0.09558      0.00000     0.40283    0.00159     0.40442
      H   16    0.08823      0.00000     0.40971    0.00206     0.41177
      H   17    0.08096      0.00000     0.41765    0.00139     0.41904
      H   18    0.09737      0.00000     0.40107    0.00157     0.40263
      H   19    0.09340      0.00000     0.40477    0.00183     0.40660
      H   20    0.09676      0.00000     0.40128    0.00196     0.40324
      H   21    0.10113      0.00000     0.39747    0.00140     0.39887
      H   22    0.04105      0.00000     0.45650    0.00245     0.45895
 =======================================================================
   * Total *    0.00000      9.99668    27.87634    0.12698    38.00000

 Normal termination of Gaussian 16 at Tue Dec  8 10:38:24 2020.
