 Gaussian 16, Revision A.03,

 -----------------------------------------------------------
 # opt freq B3LYP/6-31G(d) empiricaldispersion=gd3bj scf=xqc
 -----------------------------------------------------------

 -------------------------------
 CID_133667333_JID_3312_neutraal
 -------------------------------
 Symbolic Z-matrix:
 Charge =  0 Multiplicity = 1

 SCF Done:  E(RB3LYP) =  -576.619406115     A.U. after   14 cycles
 SCF Done:  E(RB3LYP) =  -576.628763100     A.U. after   13 cycles
 SCF Done:  E(RB3LYP) =  -576.628801635     A.U. after   13 cycles
 SCF Done:  E(RB3LYP) =  -576.630588568     A.U. after   12 cycles
 SCF Done:  E(RB3LYP) =  -576.630975762     A.U. after   11 cycles
 SCF Done:  E(RB3LYP) =  -576.631378371     A.U. after   11 cycles
 SCF Done:  E(RB3LYP) =  -576.631633799     A.U. after   11 cycles
 SCF Done:  E(RB3LYP) =  -576.631837991     A.U. after   11 cycles
 SCF Done:  E(RB3LYP) =  -576.631915577     A.U. after   11 cycles
 SCF Done:  E(RB3LYP) =  -576.631985043     A.U. after   11 cycles
 SCF Done:  E(RB3LYP) =  -576.633227317     A.U. after   11 cycles
 SCF Done:  E(RB3LYP) =  -576.633390178     A.U. after   12 cycles
 SCF Done:  E(RB3LYP) =  -576.633446457     A.U. after   11 cycles
 SCF Done:  E(RB3LYP) =  -576.633464732     A.U. after    9 cycles
 SCF Done:  E(RB3LYP) =  -576.633468979     A.U. after    8 cycles
 SCF Done:  E(RB3LYP) =  -576.633469214     A.U. after    7 cycles
 Optimization completed.
    -- Stationary point found.
 Normal termination of Gaussian 16 at Wed Dec  9 23:01:54 2020.

 --------------------------------------------------------------------
 #N Geom=AllCheck Guess=TCheck SCRF=Check GenChk RB3LYP/6-31G(d) Freq
 --------------------------------------------------------------------

 Structure from the checkpoint file:  "JID_3312.chk"
 -------------------------------
 CID_133667333_JID_3312_neutraal
 -------------------------------
 Charge =  0 Multiplicity = 1

 SCF Done:  E(RB3LYP) =  -576.633469214     A.U. after    1 cycles

  Exact polarizability: 146.524  -7.693 110.713   3.050   4.045  99.897
 Approx polarizability: 180.863 -17.884 169.600   1.197  10.665 150.184

                      1                      2                      3
                      A                      A                      A
 Frequencies --     43.2263                60.5683                79.9593
 Red. masses --      2.9469                 3.5164                 3.4527
 Frc consts  --      0.0032                 0.0076                 0.0130
 IR Inten    --      0.5256                 0.5719                 0.0511

                      4                      5                      6
                      A                      A                      A
 Frequencies --    118.7836               169.7252               222.0102
 Red. masses --      2.9058                 3.0649                 3.1530
 Frc consts  --      0.0242                 0.0520                 0.0916
 IR Inten    --      1.4295                 0.0379                 0.9761

                      7                      8                      9
                      A                      A                      A
 Frequencies --    235.0629               237.8257               281.4022
 Red. masses --      2.2126                 2.2006                 3.1120
 Frc consts  --      0.0720                 0.0733                 0.1452
 IR Inten    --      2.4018                 1.1804                 1.2838

                     10                     11                     12
                      A                      A                      A
 Frequencies --    310.2301               341.0523               427.6484
 Red. masses --      2.9756                 1.7720                 3.3142
 Frc consts  --      0.1687                 0.1214                 0.3571
 IR Inten    --      5.8143                 1.1356                 1.3671

                     13                     14                     15
                      A                      A                      A
 Frequencies --    440.2063               455.6235               502.0462
 Red. masses --      2.7182                 2.3265                 2.1985
 Frc consts  --      0.3103                 0.2846                 0.3265
 IR Inten    --      0.1022                 2.0669                 5.9834

                     16                     17                     18
                      A                      A                      A
 Frequencies --    560.1632               565.6727               657.6160
 Red. masses --      3.0124                 3.6023                 3.4455
 Frc consts  --      0.5569                 0.6791                 0.8779
 IR Inten    --      0.3818                12.0350                 4.8888

                     19                     20                     21
                      A                      A                      A
 Frequencies --    693.3599               768.3734               802.7339
 Red. masses --      3.1543                 2.1143                 2.2907
 Frc consts  --      0.8935                 0.7355                 0.8697
 IR Inten    --     47.9270                51.2662                 3.9063

                     22                     23                     24
                      A                      A                      A
 Frequencies --    804.8628               829.8165               861.2566
 Red. masses --      1.5073                 2.3126                 1.9015
 Frc consts  --      0.5753                 0.9382                 0.8310
 IR Inten    --      1.4397                39.5878                 7.9755

                     25                     26                     27
                      A                      A                      A
 Frequencies --    879.6190               904.9384               914.6257
 Red. masses --      1.9412                 1.8001                 1.8786
 Frc consts  --      0.8850                 0.8685                 0.9259
 IR Inten    --      2.4420                14.5993                 1.7545

                     28                     29                     30
                      A                      A                      A
 Frequencies --    944.2371               953.4474               985.2848
 Red. masses --      1.5839                 3.1007                 2.1034
 Frc consts  --      0.8321                 1.6607                 1.2031
 IR Inten    --      1.4579                23.4818                 8.2361

                     31                     32                     33
                      A                      A                      A
 Frequencies --    987.7392              1003.4800              1043.9309
 Red. masses --      2.1882                 1.6317                 1.7666
 Frc consts  --      1.2578                 0.9681                 1.1343
 IR Inten    --     11.2050                 5.9950                 0.7559

                     34                     35                     36
                      A                      A                      A
 Frequencies --   1074.7864              1086.9433              1094.1494
 Red. masses --      1.6552                 1.8284                 2.9779
 Frc consts  --      1.1265                 1.2727                 2.1004
 IR Inten    --      2.0531                 9.3579                49.4844

                     37                     38                     39
                      A                      A                      A
 Frequencies --   1101.2751              1107.2841              1121.8728
 Red. masses --      1.1705                 3.2168                 2.9197
 Frc consts  --      0.8364                 2.3238                 2.1651
 IR Inten    --      4.6745                21.9999                14.9463

                     40                     41                     42
                      A                      A                      A
 Frequencies --   1149.8101              1190.7833              1206.4701
 Red. masses --      5.1051                 2.2579                 1.5406
 Frc consts  --      3.9766                 1.8864                 1.3212
 IR Inten    --     81.5488                 0.8427                35.2200

                     43                     44                     45
                      A                      A                      A
 Frequencies --   1219.1456              1234.9771              1244.1712
 Red. masses --      1.4622                 1.5158                 1.8703
 Frc consts  --      1.2805                 1.3621                 1.7057
 IR Inten    --      4.8492                 8.9389                 4.0802

                     46                     47                     48
                      A                      A                      A
 Frequencies --   1278.2035              1289.8730              1300.7684
 Red. masses --      1.3485                 1.3361                 1.2576
 Frc consts  --      1.2981                 1.3097                 1.2537
 IR Inten    --      7.7892                 3.0892                 7.9868

                     49                     50                     51
                      A                      A                      A
 Frequencies --   1303.2804              1307.4621              1351.3228
 Red. masses --      1.2606                 1.2852                 1.2468
 Frc consts  --      1.2615                 1.2945                 1.3414
 IR Inten    --      2.1078                 3.2384                 1.7399

                     52                     53                     54
                      A                      A                      A
 Frequencies --   1353.9389              1367.9306              1386.3731
 Red. masses --      1.2828                 1.3630                 1.4006
 Frc consts  --      1.3855                 1.5028                 1.5861
 IR Inten    --      0.1939                 5.4887                 1.1340

                     55                     56                     57
                      A                      A                      A
 Frequencies --   1397.7647              1402.8563              1403.7556
 Red. masses --      1.3803                 1.4846                 1.4664
 Frc consts  --      1.5889                 1.7214                 1.7025
 IR Inten    --      1.1586                 6.8176                 0.7210

                     58                     59                     60
                      A                      A                      A
 Frequencies --   1414.3349              1418.6897              1499.0873
 Red. masses --      1.3496                 1.4716                 1.0870
 Frc consts  --      1.5905                 1.7451                 1.4392
 IR Inten    --     17.7798                 1.5119                 2.4722

                     61                     62                     63
                      A                      A                      A
 Frequencies --   1513.1822              1515.7104              1518.7765
 Red. masses --      1.0867                 1.0918                 1.0978
 Frc consts  --      1.4660                 1.4778                 1.4920
 IR Inten    --      0.2565                 1.5133                 3.1902

                     64                     65                     66
                      A                      A                      A
 Frequencies --   1523.7983              1525.5218              1537.8775
 Red. masses --      1.0875                 1.0865                 1.0986
 Frc consts  --      1.4878                 1.4898                 1.5308
 IR Inten    --      7.5536                 1.3242                 1.4681

                     67                     68                     69
                      A                      A                      A
 Frequencies --   1547.1350              1549.7992              1758.6757
 Red. masses --      1.1068                 1.1814                 7.1000
 Frc consts  --      1.5609                 1.6719                12.9384
 IR Inten    --      3.4028                24.5644                 4.9360

                     70                     71                     72
                      A                      A                      A
 Frequencies --   2961.5228              2987.6832              3010.9266
 Red. masses --      1.0727                 1.0736                 1.0695
 Frc consts  --      5.5430                 5.6463                 5.7125
 IR Inten    --     60.5079                82.9060                21.2387

                     73                     74                     75
                      A                      A                      A
 Frequencies --   3019.8903              3025.6137              3030.9598
 Red. masses --      1.0704                 1.0680                 1.0660
 Frc consts  --      5.7512                 5.7603                 5.7699
 IR Inten    --      7.7112                18.2135                 2.4269

                     76                     77                     78
                      A                      A                      A
 Frequencies --   3033.0652              3053.2601              3072.1583
 Red. masses --      1.0620                 1.0639                 1.0823
 Frc consts  --      5.7561                 5.8436                 6.0183
 IR Inten    --     54.6954                 5.2825                21.4643

                     79                     80                     81
                      A                      A                      A
 Frequencies --   3077.2910              3077.8756              3082.7663
 Red. masses --      1.0956                 1.0951                 1.0990
 Frc consts  --      6.1129                 6.1123                 6.1538
 IR Inten    --     50.0849                55.9314                51.4175

                     82                     83                     84
                      A                      A                      A
 Frequencies --   3090.3572              3096.7200              3101.5222
 Red. masses --      1.0942                 1.0969                 1.0986
 Frc consts  --      6.1571                 6.1977                 6.2267
 IR Inten    --     50.2683                47.4332                22.1616

                     85                     86                     87
                      A                      A                      A
 Frequencies --   3124.1926              3131.1078              3524.9002
 Red. masses --      1.0936                 1.0915                 1.0755
 Frc consts  --      6.2888                 6.3047                 7.8732
 IR Inten    --     42.0839                20.0314                 1.7064

 - Thermochemistry -
 -------------------
 Temperature   298.150 Kelvin.  Pressure   1.00000 Atm.
 Atom     1 has atomic number  6 and mass  12.00000

 Molecular mass:   182.14191 amu.
 Principal axes and moments of inertia in atomic units:
                           1         2         3
     Eigenvalues --  1007.608854668.946345009.10570
           X            1.00000  -0.00179   0.00143
           Y            0.00179   1.00000  -0.00210
           Z           -0.00142   0.00210   1.00000
 This molecule is an asymmetric top.
 Rotational symmetry number  1.
 Warning -- assumption of classical behavior for rotation
           may cause significant error
 Rotational temperatures (Kelvin)      0.08596     0.01855     0.01729
 Rotational constants (GHZ):           1.79111     0.38654     0.36029
 Zero-point vibrational energy     735022.3 (Joules/Mol)
                                  175.67454 (Kcal/Mol)
 Warning -- explicit consideration of  17 degrees of freedom as
           vibrations may cause significant error
 Vibrational temperatures:     62.19    87.14   115.04   170.90   244.20
          (Kelvin)            319.42   338.20   342.18   404.88   446.35
                              490.70   615.29   633.36   655.54   722.33
                              805.95   813.88   946.16   997.59  1105.52
                             1154.96  1158.02  1193.92  1239.16  1265.58
                             1302.00  1315.94  1358.55  1371.80  1417.61
                             1421.14  1443.78  1501.98  1546.38  1563.87
                             1574.24  1584.49  1593.13  1614.12  1654.32
                             1713.27  1735.84  1754.08  1776.86  1790.08
                             1839.05  1855.84  1871.52  1875.13  1881.15
                             1944.25  1948.02  1968.15  1994.68  2011.07
                             2018.40  2019.69  2034.91  2041.18  2156.85
                             2177.13  2180.77  2185.18  2192.41  2194.89
                             2212.66  2225.98  2229.82  2530.34  4260.97
                             4298.61  4332.05  4344.95  4353.18  4360.88
                             4363.90  4392.96  4420.15  4427.54  4428.38
                             4435.41  4446.33  4455.49  4462.40  4495.02
                             4504.97  5071.55

 Zero-point correction=                           0.279955 (Hartree/Particle)
 Thermal correction to Energy=                    0.292132
 Thermal correction to Enthalpy=                  0.293076
 Thermal correction to Gibbs Free Energy=         0.241001
 Sum of electronic and zero-point Energies=           -576.353514
 Sum of electronic and thermal Energies=              -576.341338
 Sum of electronic and thermal Enthalpies=            -576.340393
 Sum of electronic and thermal Free Energies=         -576.392468

                     E (Thermal)             CV                S
                      KCal/Mol        Cal/Mol-Kelvin    Cal/Mol-Kelvin
 Total                  183.315             47.696            109.601
 Electronic               0.000              0.000              0.000
 Translational            0.889              2.981             41.505
 Rotational               0.889              2.981             31.533
 Vibrational            181.538             41.734             36.562
 Vibration     1          0.595              1.980              5.105
 Vibration     2          0.597              1.973              4.439
 Vibration     3          0.600              1.963              3.892
 Vibration     4          0.609              1.934              3.120
 Vibration     5          0.625              1.880              2.439
 Vibration     6          0.648              1.808              1.943
 Vibration     7          0.655              1.787              1.840
 Vibration     8          0.656              1.783              1.819
 Vibration     9          0.681              1.708              1.525
 Vibration    10          0.699              1.654              1.361
 Vibration    11          0.721              1.593              1.207
 Vibration    12          0.789              1.410              0.866
 Vibration    13          0.800              1.382              0.826
 Vibration    14          0.814              1.348              0.779
 Vibration    15          0.857              1.245              0.653
 Vibration    16          0.916              1.117              0.524
 Vibration    17          0.922              1.106              0.513

                           ! Non-Optimized Parameters !
 Normal termination of Gaussian 16 at Wed Dec  9 23:10:03 2020.

 ----------------------------------------------------------------------
 # B3LYP/6-311++G(d,p) empiricaldispersion=gd3bj scf=xqc pop=npa geom=c
 heck
 ----------------------------------------------------------------------

 ---------------------------------------
 CID_133667333_JID_3312_Energie_neutraal
 ---------------------------------------
 Structure from the checkpoint file:  "JID_3312.chk"
 Charge =  0 Multiplicity = 1

 SCF Done:  E(RB3LYP) =  -576.795880757     A.U. after   14 cycles
 Normal termination of Gaussian 16 at Wed Dec  9 23:13:16 2020.

 ----------------------------------------------------------------------
 # B3LYP/6-311++G(d,p) empiricaldispersion=gd3bj scf=xqc pop=npa geom=c
 heck
 ----------------------------------------------------------------------

 -------------------------------------
 CID_133667333_JID_3312_Energie_kation
 -------------------------------------
 Structure from the checkpoint file:  "JID_3312.chk"
 Charge =  1 Multiplicity = 2

 SCF Done:  E(UB3LYP) =  -576.505869754     A.U. after   20 cycles
 Normal termination of Gaussian 16 at Wed Dec  9 23:19:25 2020.
 Gaussian 16:  ES64L-G16RevA.03 25-Dec-2016

 ----------------------------------------------------------------------
 # B3LYP/6-311++G(d,p) empiricaldispersion=gd3bj scf=xqc pop=npa geom=c
 heck
 ----------------------------------------------------------------------

 ------------------------------------
 CID_133667333_JID_3312_Energie_anion
 ------------------------------------
 Structure from the checkpoint file:  "JID_3312.chk"
 Charge = -1 Multiplicity = 2

                         Standard orientation:
 ---------------------------------------------------------------------
 Center     Atomic      Atomic             Coordinates (Angstroms)
 Number     Number       Type             X           Y           Z
 ---------------------------------------------------------------------
      1          6           0       -3.660122   -0.886324    0.324879
      2          6           0       -3.480539   -0.008162   -0.921018
      3          6           0       -2.439282    1.095197   -0.688716
      4          6           0       -1.099920    0.508434   -0.228199
      5          6           0       -1.292146   -0.342475    1.038291
      6          6           0       -2.317800   -1.458414    0.799917
      7          7           0       -0.148353    1.619903   -0.063625
      8          7           0        1.094998    1.444167    0.516436
      9          6           0        1.857641    0.471843    0.196389
     10          6           0        1.744514   -0.643735   -0.831361
     11          6           0        3.118291   -1.331925   -0.711786
     12          8           0        4.006344   -0.356241   -0.174384
     13          6           0        3.255427    0.381705    0.783013
     14          1           0       -4.369958   -1.696582    0.118559
     15          1           0       -4.097883   -0.281566    1.132285
     16          1           0       -3.155920   -0.636409   -1.762838
     17          1           0       -4.437686    0.438356   -1.215799
     18          1           0       -2.810170    1.785660    0.084950
     19          1           0       -2.284657    1.686765   -1.598195
     20          1           0       -0.736579   -0.138776   -1.033760
     21          1           0       -1.640178    0.315105    1.848161
     22          1           0       -0.333064   -0.758278    1.365091
     23          1           0       -2.454493   -2.047912    1.714433
     24          1           0       -1.929459   -2.150716    0.037998
     25          1           0       -0.594632    2.371777    0.453176
     26          1           0        0.923567   -1.340891   -0.636210
     27          1           0        1.583884   -0.209868   -1.826290
     28          1           0        3.530817   -1.668106   -1.666137
     29          1           0        3.049070   -2.200326   -0.035448
     30          1           0        3.719415    1.360638    0.922088
     31          1           0        3.244266   -0.144298    1.754870
 ---------------------------------------------------------------------

 SCF Done:  E(UB3LYP) =  -576.781854468     A.U. after   32 cycles

 The electronic state is 2-A.
 Alpha  occ. eigenvalues --  -19.03287 -14.24211 -14.23703 -10.12387 -10.12295
 Alpha  occ. eigenvalues --  -10.10978 -10.10358 -10.08276 -10.07060 -10.06484
 Alpha  occ. eigenvalues --  -10.06344 -10.06145 -10.06108  -0.95320  -0.89410
 Alpha  occ. eigenvalues --   -0.75780  -0.71621  -0.66912  -0.64517  -0.64106
 Alpha  occ. eigenvalues --   -0.60119  -0.52004  -0.51718  -0.51060  -0.46575
 Alpha  occ. eigenvalues --   -0.45587  -0.41826  -0.40502  -0.38929  -0.36759
 Alpha  occ. eigenvalues --   -0.36081  -0.34595  -0.34039  -0.33088  -0.32098
 Alpha  occ. eigenvalues --   -0.30700  -0.30604  -0.28501  -0.28181  -0.27791
 Alpha  occ. eigenvalues --   -0.25509  -0.24753  -0.24183  -0.23806  -0.22558
 Alpha  occ. eigenvalues --   -0.21732  -0.20598  -0.18050  -0.15991  -0.12105
 Alpha  occ. eigenvalues --    0.04502
 Alpha virt. eigenvalues --    0.06519   0.07334   0.07589   0.08464   0.08863
 Alpha virt. eigenvalues --    0.08977   0.09748   0.10072   0.10739   0.11145
 Alpha virt. eigenvalues --    0.11463   0.11766   0.12052   0.12828   0.13501

  Beta  occ. eigenvalues --  -19.03282 -14.24206 -14.23701 -10.12375 -10.12265
  Beta  occ. eigenvalues --  -10.10973 -10.10354 -10.08254 -10.07047 -10.06457
  Beta  occ. eigenvalues --  -10.06331 -10.06115 -10.06084  -0.95309  -0.89399
  Beta  occ. eigenvalues --   -0.75761  -0.71589  -0.66873  -0.64474  -0.64068
  Beta  occ. eigenvalues --   -0.60091  -0.51940  -0.51671  -0.50993  -0.46522
  Beta  occ. eigenvalues --   -0.45528  -0.41798  -0.40462  -0.38894  -0.36720
  Beta  occ. eigenvalues --   -0.36038  -0.34563  -0.34008  -0.33052  -0.32074
  Beta  occ. eigenvalues --   -0.30651  -0.30577  -0.28470  -0.28139  -0.27757
  Beta  occ. eigenvalues --   -0.25482  -0.24706  -0.24142  -0.23781  -0.22510
  Beta  occ. eigenvalues --   -0.21689  -0.20555  -0.18022  -0.15967  -0.12089
  Beta virt. eigenvalues --    0.06779   0.07362   0.07967   0.08092   0.08878
  Beta virt. eigenvalues --    0.09107   0.09460   0.10241   0.10502   0.11094
  Beta virt. eigenvalues --    0.11534   0.11851   0.12169   0.12266   0.12925

 Mulliken charges and spin densities:
               1          2
     1  C    0.062878  -0.488233
     2  C    0.669890  -1.003248
     3  C    0.107665  -0.412644
     4  C   -0.813277   0.063630
     5  C    0.230331  -0.231815
     6  C    0.339765  -0.626597
     7  N    0.215187   0.066571
     8  N   -0.120066   0.021650
     9  C   -0.648189   0.550774
    10  C    0.165240  -0.209140
    11  C    0.280661  -0.882406
    12  O   -0.169479   0.069911
    13  C    0.408741  -0.630112
    14  H   -0.480310   0.657632
    15  H    0.075846   0.034231
    16  H   -0.160343   0.295299
    17  H   -0.479150   0.666835
    18  H   -0.054100   0.168104
    19  H   -0.046984   0.236527
    20  H    0.305558  -0.139248
    21  H   -0.094436   0.254905
    22  H    0.218947  -0.038387
    23  H   -0.408559   0.576517
    24  H   -0.260597   0.408145
    25  H    0.181082   0.059558
    26  H   -0.034837   0.168226
    27  H   -0.037337   0.229542
    28  H   -0.236674   0.400991
    29  H   -0.270371   0.441393
    30  H    0.140376   0.039852
    31  H   -0.087456   0.251538
 Sum of Mulliken charges =  -1.00000   1.00000

 Dipole moment (field-independent basis, Debye):
    X=              2.9372    Y=              4.1571    Z=              1.1115  Tot=              5.2100
 Quadrupole moment (field-independent basis, Debye-Ang):
   XX=           -165.9502   YY=           -122.8854   ZZ=           -114.9741
   XY=             -3.6149   XZ=             -2.9607   YZ=              3.6176

 Summary of Natural Population Analysis:

                                       Natural Population
                Natural  -----------------------------------------------
    Atom  No    Charge         Core      Valence    Rydberg      Total
 -----------------------------------------------------------------------
      C    1   -0.18816      0.99963     2.18034    0.00820     3.18816
      C    2   -0.18860      0.99963     2.18014    0.00884     3.18860
      C    3   -0.18983      0.99961     2.17987    0.01035     3.18983
      C    4   -0.01932      0.99956     2.00839    0.01138     3.01932
      C    5   -0.19776      0.99960     2.18874    0.00942     3.19776
      C    6   -0.19070      0.99963     2.18170    0.00937     3.19070
      N    7   -0.22816      0.99970     2.71503    0.01342     3.72816
      N    8   -0.14347      0.99961     2.63116    0.01270     3.64347
      C    9    0.09847      0.99960     1.88586    0.01607     2.90153
      C   10   -0.24146      0.99960     2.23331    0.00856     3.24146
      C   11   -0.00791      0.99962     1.99547    0.01283     3.00791
      O   12   -0.29810      0.99990     3.28946    0.00875     4.29810
      C   13   -0.02407      0.99956     2.01157    0.01294     3.02407
      H   14    0.10153      0.00000     0.39686    0.00161     0.39847
      H   15    0.09082      0.00000     0.40782    0.00136     0.40918
      H   16    0.09530      0.00000     0.40301    0.00169     0.40470
      H   17    0.10059      0.00000     0.39787    0.00154     0.39941
      H   18    0.09052      0.00000     0.40803    0.00145     0.40948
      H   19    0.10375      0.00000     0.39498    0.00126     0.39625
      H   20    0.09388      0.00000     0.40306    0.00306     0.40612
      H   21    0.09303      0.00000     0.40560    0.00138     0.40697
      H   22    0.10400      0.00000     0.39433    0.00167     0.39600
      H   23    0.10123      0.00000     0.39732    0.00145     0.39877
      H   24    0.09572      0.00000     0.40219    0.00209     0.40428
      H   25    0.17319      0.00000     0.32372    0.00309     0.32681
      H   26    0.11443      0.00000     0.38337    0.00220     0.38557
      H   27    0.10994      0.00000     0.38880    0.00126     0.39006
      H   28    0.09169      0.00000     0.40689    0.00143     0.40831
      H   29    0.07993      0.00000     0.41797    0.00210     0.42007
      H   30    0.09631      0.00000     0.40237    0.00132     0.40369
      H   31    0.08323      0.00000     0.41519    0.00158     0.41677
 =======================================================================
   * Total *   -0.00000     12.99524    36.83040    0.17436    50.00000

 Normal termination of Gaussian 16 at Wed Dec  9 23:29:10 2020.
