 Gaussian 16, Revision A.03,

 -----------------------------------------------------------
 # opt freq B3LYP/6-31G(d) empiricaldispersion=gd3bj scf=xqc
 -----------------------------------------------------------

 -----------------------------
 CID_147440108_JID_78_neutraal
 -----------------------------
 Symbolic Z-matrix:
 Charge =  0 Multiplicity = 1

 SCF Done:  E(RB3LYP) =  -407.940983822     A.U. after   12 cycles
 SCF Done:  E(RB3LYP) =  -407.948156295     A.U. after   11 cycles
 SCF Done:  E(RB3LYP) =  -407.948746681     A.U. after   10 cycles
 SCF Done:  E(RB3LYP) =  -407.949008072     A.U. after   10 cycles
 SCF Done:  E(RB3LYP) =  -407.949137935     A.U. after   10 cycles
 SCF Done:  E(RB3LYP) =  -407.949136835     A.U. after    9 cycles
 SCF Done:  E(RB3LYP) =  -407.949426187     A.U. after   10 cycles
 SCF Done:  E(RB3LYP) =  -407.950609657     A.U. after   11 cycles
 SCF Done:  E(RB3LYP) =  -407.939886100     A.U. after   11 cycles
 SCF Done:  E(RB3LYP) =  -407.951988112     A.U. after   11 cycles
 SCF Done:  E(RB3LYP) =  -407.952982750     A.U. after    9 cycles
 SCF Done:  E(RB3LYP) =  -407.952998162     A.U. after    9 cycles
 SCF Done:  E(RB3LYP) =  -407.953007309     A.U. after    9 cycles
 SCF Done:  E(RB3LYP) =  -407.953012154     A.U. after    7 cycles
 SCF Done:  E(RB3LYP) =  -407.953013346     A.U. after    7 cycles
 SCF Done:  E(RB3LYP) =  -407.953013648     A.U. after    7 cycles
 Optimization completed.
    -- Stationary point found.

 1\1\GINC-NODE313\FOpt\RB3LYP\6-31G(d)\C9H17N1\VSC10255\08-Dec-2020\0\\
 # opt freq B3LYP/6-31G(d) empiricaldispersion=gd3bj scf=xqc\\CID_14744
 0108_JID_78_neutraal\\0,1\C,1.7225612149,0.1157698788,-0.6682172363\C,
 0.7918833976,0.1868320639,0.5487560007\C,-0.1514503574,-1.0284704866,0
 .6315460216\C,-1.2880631489,-0.7072996699,-0.3620308453\C,-1.366383006
 8,0.8509139848,-0.4350291805\C,-0.2028983924,1.3599122248,0.459110092\
 C,-2.7530384661,1.3774606876,-0.0571888462\C,-3.1962217174,1.163012906
 6,1.41616165\N,-2.8978308588,2.5868523888,1.6994583232\C,-2.8661832642

 Normal termination of Gaussian 16 at Tue Dec  8 10:22:05 2020.

 --------------------------------------------------------------------
 #N Geom=AllCheck Guess=TCheck SCRF=Check GenChk RB3LYP/6-31G(d) Freq
 --------------------------------------------------------------------

 Structure from the checkpoint file:  "JID_78.chk"
 -----------------------------
 CID_147440108_JID_78_neutraal
 -----------------------------
 Charge =  0 Multiplicity = 1

 SCF Done:  E(RB3LYP) =  -407.953013648     A.U. after    1 cycles

  Exact polarizability: 108.877   0.245  91.492  -0.673  -1.918  84.749
 Approx polarizability: 132.424   0.953 131.413   0.527  -2.631 128.403

                      1                      2                      3
                      A                      A                      A
 Frequencies --     48.0207                92.0144               138.8067
 Red. masses --      2.6566                 2.8528                 3.3659
 Frc consts  --      0.0036                 0.0142                 0.0382
 IR Inten    --      0.1428                 0.5450                 5.0808

                      4                      5                      6
                      A                      A                      A
 Frequencies --    174.4264               214.3571               228.7631
 Red. masses --      2.4884                 2.0689                 1.0949
 Frc consts  --      0.0446                 0.0560                 0.0338
 IR Inten    --      1.0313                 1.4136                 0.0635

                      7                      8                      9
                      A                      A                      A
 Frequencies --    237.6873               365.3306               384.0852
 Red. masses --      2.3556                 1.9934                 2.0280
 Frc consts  --      0.0784                 0.1568                 0.1763
 IR Inten    --      1.9387                 0.2054                 0.1113

                     10                     11                     12
                      A                      A                      A
 Frequencies --    388.8411               519.7561               616.2702
 Red. masses --      2.6053                 2.0950                 2.9105
 Frc consts  --      0.2321                 0.3335                 0.6513
 IR Inten    --      0.3750                 0.1951                 0.5253

                     13                     14                     15
                      A                      A                      A
 Frequencies --    658.8850               669.3881               764.8941
 Red. masses --      2.1626                 2.0678                 2.3063
 Frc consts  --      0.5532                 0.5459                 0.7950
 IR Inten    --      1.7631                71.8821                 2.6474

                     16                     17                     18
                      A                      A                      A
 Frequencies --    808.0950               858.4169               873.1944
 Red. masses --      2.6004                 1.8938                 1.5458
 Frc consts  --      1.0005                 0.8222                 0.6944
 IR Inten    --      0.1250                 2.2540                 0.5995

                     19                     20                     21
                      A                      A                      A
 Frequencies --    894.8319               922.1898               937.7711
 Red. masses --      2.4408                 2.0640                 1.8209
 Frc consts  --      1.1515                 1.0342                 0.9435
 IR Inten    --      8.4832                 0.9901                 0.9585

                     22                     23                     24
                      A                      A                      A
 Frequencies --    944.4616               973.5564               987.7051
 Red. masses --      2.1890                 1.5793                 1.9924
 Frc consts  --      1.1504                 0.8819                 1.1452
 IR Inten    --     19.1531                 0.1550                 1.1691

                     25                     26                     27
                      A                      A                      A
 Frequencies --    994.3602              1022.3199              1035.8692
 Red. masses --      2.0558                 2.1806                 2.3876
 Frc consts  --      1.1976                 1.3428                 1.5095
 IR Inten    --      0.4546                 0.6048                 4.8986

                     28                     29                     30
                      A                      A                      A
 Frequencies --   1051.8606              1071.9951              1087.2775
 Red. masses --      1.9247                 1.4672                 1.7136
 Frc consts  --      1.2547                 0.9934                 1.1935
 IR Inten    --      6.4357                 0.1440                 0.0760

                     31                     32                     33
                      A                      A                      A
 Frequencies --   1111.0964              1133.2127              1145.6207
 Red. masses --      1.8239                 1.2822                 1.3997
 Frc consts  --      1.3267                 0.9702                 1.0824
 IR Inten    --      1.2301                 9.7787                 0.1285

                     34                     35                     36
                      A                      A                      A
 Frequencies --   1171.8883              1198.4741              1219.1740
 Red. masses --      1.7541                 1.3407                 1.4202
 Frc consts  --      1.4193                 1.1346                 1.2437
 IR Inten    --      2.4888                 1.0365                 1.1202

                     37                     38                     39
                      A                      A                      A
 Frequencies --   1225.3335              1255.9928              1258.1744
 Red. masses --      1.3784                 1.4112                 1.3305
 Frc consts  --      1.2194                 1.3116                 1.2409
 IR Inten    --      2.0436                 0.9526                 5.4009

                     40                     41                     42
                      A                      A                      A
 Frequencies --   1292.9148              1309.0842              1326.5762
 Red. masses --      1.3026                 1.5132                 1.3221
 Frc consts  --      1.2830                 1.5279                 1.3708
 IR Inten    --      7.0795                 3.1328                 2.0688

                     43                     44                     45
                      A                      A                      A
 Frequencies --   1334.9957              1350.7692              1357.7491
 Red. masses --      1.2615                 1.3672                 1.4579
 Frc consts  --      1.3247                 1.4698                 1.5835
 IR Inten    --      0.3400                 4.3593                 0.5597

                     46                     47                     48
                      A                      A                      A
 Frequencies --   1373.9168              1388.4846              1394.8779
 Red. masses --      1.4405                 1.6848                 1.3589
 Frc consts  --      1.6021                 1.9137                 1.5578
 IR Inten    --      0.5697                 1.9413                11.6030

                     49                     50                     51
                      A                      A                      A
 Frequencies --   1396.9691              1411.5221              1441.0448
 Red. masses --      1.4301                 1.4024                 1.2688
 Frc consts  --      1.6444                 1.6463                 1.5524
 IR Inten    --      4.5441                 5.0162                 5.0622

                     52                     53                     54
                      A                      A                      A
 Frequencies --   1515.9135              1522.9995              1529.2697
 Red. masses --      1.0777                 1.0774                 1.0603
 Frc consts  --      1.4591                 1.4724                 1.4609
 IR Inten    --      0.7038                 2.1388                 4.1554

                     55                     56                     57
                      A                      A                      A
 Frequencies --   1533.1398              1537.2784              1547.1163
 Red. masses --      1.0678                 1.0748                 1.0912
 Frc consts  --      1.4788                 1.4965                 1.5388
 IR Inten    --      3.9991                 2.2230                 0.8645

                     58                     59                     60
                      A                      A                      A
 Frequencies --   1562.7441              3007.3302              3012.8922
 Red. masses --      1.1100                 1.0621                 1.0668
 Frc consts  --      1.5972                 5.6594                 5.7057
 IR Inten    --      8.0559               104.5024                53.8877

                     61                     62                     63
                      A                      A                      A
 Frequencies --   3029.4081              3039.1494              3041.8967
 Red. masses --      1.0846                 1.0654                 1.0412
 Frc consts  --      5.8648                 5.7981                 5.6762
 IR Inten    --     17.4400                21.5876                20.4135

                     64                     65                     66
                      A                      A                      A
 Frequencies --   3050.9334              3057.9877              3060.9155
 Red. masses --      1.0727                 1.0773                 1.0846
 Frc consts  --      5.8831                 5.9354                 5.9872
 IR Inten    --     44.3515                24.7919                48.1971

                     67                     68                     69
                      A                      A                      A
 Frequencies --   3065.4519              3071.5422              3079.3219
 Red. masses --      1.0859                 1.0785                 1.0905
 Frc consts  --      6.0121                 5.9949                 6.0924
 IR Inten    --     16.3593                30.3084                72.6561

                     70                     71                     72
                      A                      A                      A
 Frequencies --   3083.8549              3099.5993              3105.8805
 Red. masses --      1.0993                 1.1050                 1.1031
 Frc consts  --      6.1596                 6.2551                 6.2694
 IR Inten    --     26.4820                47.5275                34.8086

                     73                     74                     75
                      A                      A                      A
 Frequencies --   3108.8079              3109.4497              3501.3445
 Red. masses --      1.1029                 1.1018                 1.0761
 Frc consts  --      6.2800                 6.2767                 7.7730
 IR Inten    --     50.2800                59.0733                 4.4610

 - Thermochemistry -
 -------------------
 Temperature   298.150 Kelvin.  Pressure   1.00000 Atm.
 Atom     1 has atomic number  6 and mass  12.00000

 Molecular mass:   139.13610 amu.
 Principal axes and moments of inertia in atomic units:
                           1         2         3
     Eigenvalues --   664.152602176.480642325.90248
           X            0.99997  -0.00730  -0.00098
           Y            0.00725   0.99905  -0.04305
           Z            0.00129   0.04305   0.99907
 This molecule is an asymmetric top.
 Rotational symmetry number  1.
 Warning -- assumption of classical behavior for rotation
           may cause significant error
 Rotational temperatures (Kelvin)      0.13041     0.03980     0.03724
 Rotational constants (GHZ):           2.71736     0.82920     0.77593
 Zero-point vibrational energy     659965.0 (Joules/Mol)
                                  157.73542 (Kcal/Mol)
 Warning -- explicit consideration of  12 degrees of freedom as
           vibrations may cause significant error
 Vibrational temperatures:     69.09   132.39   199.71   250.96   308.41
          (Kelvin)            329.14   341.98   525.63   552.61   559.46
                              747.81   886.68   947.99   963.10  1100.51
                             1162.67  1235.07  1256.33  1287.46  1326.83
                             1349.24  1358.87  1400.73  1421.09  1430.66
                             1470.89  1490.38  1513.39  1542.36  1564.35
                             1598.62  1630.44  1648.29  1686.09  1724.34
                             1754.12  1762.98  1807.09  1810.23  1860.22
                             1883.48  1908.65  1920.76  1943.46  1953.50
                             1976.76  1997.72  2006.92  2009.93  2030.87
                             2073.34  2181.06  2191.26  2200.28  2205.85
                             2211.80  2225.96  2248.44  4326.88  4334.88
                             4358.64  4372.66  4376.61  4389.61  4399.76
                             4403.97  4410.50  4419.26  4430.46  4436.98
                             4459.63  4468.67  4472.88  4473.80  5037.65

 Zero-point correction=                           0.251367 (Hartree/Particle)
 Thermal correction to Energy=                    0.261267
 Thermal correction to Enthalpy=                  0.262211
 Thermal correction to Gibbs Free Energy=         0.215999
 Sum of electronic and zero-point Energies=           -407.701646
 Sum of electronic and thermal Energies=              -407.691747
 Sum of electronic and thermal Enthalpies=            -407.690803
 Sum of electronic and thermal Free Energies=         -407.737015

                     E (Thermal)             CV                S
                      KCal/Mol        Cal/Mol-Kelvin    Cal/Mol-Kelvin
 Total                  163.947             38.564             97.262
 Electronic               0.000              0.000              0.000
 Translational            0.889              2.981             40.703
 Rotational               0.889              2.981             29.598
 Vibrational            162.170             32.603             26.961
 Vibration     1          0.595              1.978              4.897
 Vibration     2          0.602              1.955              3.617
 Vibration     3          0.614              1.915              2.820
 Vibration     4          0.627              1.874              2.387
 Vibration     5          0.644              1.819              2.006
 Vibration     6          0.651              1.797              1.889
 Vibration     7          0.656              1.783              1.820
 Vibration     8          0.739              1.544              1.099
 Vibration     9          0.753              1.504              1.023
 Vibration    10          0.757              1.494              1.005
 Vibration    11          0.875              1.206              0.611
 Vibration    12          0.976              0.997              0.423

 Optimization completed.
    -- Stationary point found.

 1\1\GINC-NODE313\Freq\RB3LYP\6-31G(d)\C9H17N1\VSC10255\08-Dec-2020\0\\
 #N Geom=AllCheck Guess=TCheck SCRF=Check GenChk RB3LYP/6-31G(d) Freq\\
 CID_147440108_JID_78_neutraal\\0,1\C,1.7225612149,0.1157698788,-0.6682
 172363\C,0.7918833976,0.1868320639,0.5487560007\C,-0.1514503574,-1.028
 4704866,0.6315460216\C,-1.2880631489,-0.7072996699,-0.3620308453\C,-1.
 3663830068,0.8509139848,-0.4350291805\C,-0.2028983924,1.3599122248,0.4
 59110092\C,-2.7530384661,1.3774606876,-0.0571888462\C,-3.1962217174,1.
 1630129066,1.41616165\N,-2.8978308588,2.5868523888,1.6994583232\C,-2.8

 Normal termination of Gaussian 16 at Tue Dec  8 10:27:13 2020.

 ----------------------------------------------------------------------
 # B3LYP/6-311++G(d,p) empiricaldispersion=gd3bj scf=xqc pop=npa geom=c
 heck
 ----------------------------------------------------------------------

 -------------------------------------
 CID_147440108_JID_78_Energie_neutraal
 -------------------------------------
 Structure from the checkpoint file:  "JID_78.chk"
 Charge =  0 Multiplicity = 1

 SCF Done:  E(RB3LYP) =  -408.066431848     A.U. after   13 cycles
 Normal termination of Gaussian 16 at Tue Dec  8 10:29:03 2020.

 ----------------------------------------------------------------------
 # B3LYP/6-311++G(d,p) empiricaldispersion=gd3bj scf=xqc pop=npa geom=c
 heck
 ----------------------------------------------------------------------

 -----------------------------------
 CID_147440108_JID_78_Energie_kation
 -----------------------------------
 Structure from the checkpoint file:  "JID_78.chk"
 Charge =  1 Multiplicity = 2

 SCF Done:  E(UB3LYP) =  -407.753274544     A.U. after   21 cycles
 Normal termination of Gaussian 16 at Tue Dec  8 10:33:49 2020.
 Gaussian 16:  ES64L-G16RevA.03 25-Dec-2016

 ----------------------------------
 CID_147440108_JID_78_Energie_anion
 ----------------------------------
 Structure from the checkpoint file:  "JID_78.chk"
 Charge = -1 Multiplicity = 2

                         Standard orientation:
 ---------------------------------------------------------------------
 Center     Atomic      Atomic             Coordinates (Angstroms)
 Number     Number       Type             X           Y           Z
 ---------------------------------------------------------------------
      1          6           0        3.034294   -0.924420    0.265234
      2          6           0        1.958268   -0.403156   -0.695332
      3          6           0        1.781397    1.124196   -0.597328
      4          6           0        0.892039    1.333983    0.646564
      5          6           0        0.043209    0.030935    0.791634
      6          6           0        0.550550   -0.913334   -0.332297
      7          6           0       -1.460450    0.316166    0.769655
      8          6           0       -2.041861    0.858683   -0.564810
      9          7           0       -2.587525   -0.487491   -0.859222
     10          6           0       -2.401325   -0.900815    0.552847
     11          1           0        4.018322   -0.506652    0.021520
     12          1           0        2.810450   -0.658229    1.305276
     13          1           0        3.109831   -2.016900    0.214288
     14          1           0        2.230819   -0.701611   -1.715546
     15          1           0        2.733777    1.663493   -0.537305
     16          1           0        1.259495    1.484919   -1.492777
     17          1           0        0.258193    2.222245    0.545662
     18          1           0        1.506957    1.490403    1.539339
     19          1           0        0.264646   -0.430312    1.762835
     20          1           0       -0.110118   -0.849217   -1.203442
     21          1           0        0.555005   -1.962579   -0.016867
     22          1           0       -1.717730    0.927482    1.640830
     23          1           0       -2.800451    1.639333   -0.406187
     24          1           0       -1.323761    1.221519   -1.311681
     25          1           0       -3.549684   -0.501057   -1.190114
     26          1           0       -1.960131   -1.898284    0.670435
     27          1           0       -3.309661   -0.845553    1.171282
 ---------------------------------------------------------------------

 SCF Done:  E(UB3LYP) =  -408.049494914     A.U. after   27 cycles

 The electronic state is 2-A.
 Alpha  occ. eigenvalues --  -14.18384 -10.07917 -10.07868 -10.06391 -10.06217
 Alpha  occ. eigenvalues --  -10.06103 -10.05600 -10.05452 -10.05242 -10.04710
 Alpha  occ. eigenvalues --   -0.81614  -0.73379  -0.65097  -0.61228  -0.58110
 Alpha  occ. eigenvalues --   -0.56270  -0.55128  -0.46990  -0.44495  -0.41632
 Alpha  occ. eigenvalues --   -0.40379  -0.38460  -0.36891  -0.33576  -0.32107
 Alpha  occ. eigenvalues --   -0.30192  -0.29264  -0.28421  -0.28130  -0.26829
 Alpha  occ. eigenvalues --   -0.25000  -0.23373  -0.22504  -0.21688  -0.21404
 Alpha  occ. eigenvalues --   -0.20680  -0.19285  -0.19044  -0.11882   0.04745
 Alpha virt. eigenvalues --    0.06562   0.07885   0.08158   0.09225   0.09403
 Alpha virt. eigenvalues --    0.09676   0.10564   0.11118   0.11847   0.12301
 Alpha virt. eigenvalues --    0.12646   0.13118   0.14046   0.14806   0.15188

  Beta  occ. eigenvalues --  -14.18364 -10.07892 -10.07840 -10.06385 -10.06207
  Beta  occ. eigenvalues --  -10.06096 -10.05587 -10.05437 -10.05210 -10.04699
  Beta  occ. eigenvalues --   -0.81582  -0.73358  -0.65065  -0.61191  -0.58064
  Beta  occ. eigenvalues --   -0.56208  -0.55076  -0.46941  -0.44449  -0.41573
  Beta  occ. eigenvalues --   -0.40296  -0.38433  -0.36852  -0.33545  -0.32077
  Beta  occ. eigenvalues --   -0.30158  -0.29220  -0.28388  -0.28102  -0.26791
  Beta  occ. eigenvalues --   -0.24966  -0.23343  -0.22478  -0.21660  -0.21379
  Beta  occ. eigenvalues --   -0.20650  -0.19255  -0.19011  -0.11840
  Beta virt. eigenvalues --    0.06927   0.07887   0.08415   0.08716   0.09783
  Beta virt. eigenvalues --    0.10031   0.10265   0.10983   0.11346   0.12433
  Beta virt. eigenvalues --    0.12638   0.13320   0.13510   0.14280   0.14985

 Mulliken charges and spin densities:
               1          2
     1  C    0.960849  -1.637505
     2  C   -1.385668   1.809441
     3  C    0.610178  -1.150872
     4  C   -0.347750  -0.141153
     5  C    1.003073  -0.596923
     6  C   -0.210680  -0.510919
     7  C   -1.230046   1.213584
     8  C    1.422304  -1.954551
     9  N   -0.386120   0.165622
    10  C    1.019169  -1.462941
    11  H   -0.260814   0.396059
    12  H   -0.143763   0.303863
    13  H   -0.117624   0.246882
    14  H   -0.210910   0.405895
    15  H   -0.100416   0.251395
    16  H   -0.081115   0.199934
    17  H    0.097492   0.061495
    18  H   -0.181664   0.332777
    19  H    0.012152   0.182442
    20  H    0.080894   0.103412
    21  H    0.070340   0.075986
    22  H   -0.355797   0.595821
    23  H   -0.800007   0.943311
    24  H    0.208176  -0.046745
    25  H    0.017269   0.234256
    26  H   -0.034662   0.184113
    27  H   -0.654860   0.795321
 Sum of Mulliken charges =  -1.00000   1.00000

 Dipole moment (field-independent basis, Debye):
    X=              2.8066    Y=             -0.8126    Z=             -1.5209  Tot=              3.2940
 Quadrupole moment (field-independent basis, Debye-Ang):
   XX=           -140.2317   YY=            -98.9303   ZZ=            -97.4637
   XY=              5.9613   XZ=              2.7953   YZ=             -1.1306

 Summary of Natural Population Analysis:

                                       Natural Population
                Natural  -----------------------------------------------
    Atom  No    Charge         Core      Valence    Rydberg      Total
 -----------------------------------------------------------------------
      C    1   -0.28556      0.99965     2.28002    0.00589     3.28556
      C    2   -0.11297      0.99961     2.10278    0.01058     3.11297
      C    3   -0.18962      0.99962     2.18182    0.00818     3.18962
      C    4   -0.19220      0.99963     2.18428    0.00829     3.19220
      C    5   -0.10899      0.99959     2.09825    0.01115     3.10899
      C    6   -0.19442      0.99960     2.18684    0.00798     3.19442
      C    7   -0.11022      0.99957     2.09709    0.01356     3.11022
      C    8   -0.08415      0.99964     2.07348    0.01103     3.08415
      N    9   -0.34744      0.99976     2.83501    0.01266     3.84744
      C   10   -0.08048      0.99964     2.06979    0.01106     3.08048
      H   11    0.09768      0.00000     0.40118    0.00114     0.40232
      H   12    0.09719      0.00000     0.40163    0.00118     0.40281
      H   13    0.09777      0.00000     0.40125    0.00098     0.40223
      H   14    0.09455      0.00000     0.40454    0.00091     0.40545
      H   15    0.09793      0.00000     0.40105    0.00102     0.40207
      H   16    0.09528      0.00000     0.40324    0.00147     0.40472
      H   17    0.09934      0.00000     0.39951    0.00115     0.40066
      H   18    0.09781      0.00000     0.40101    0.00118     0.40219
      H   19    0.09776      0.00000     0.40082    0.00143     0.40224
      H   20    0.10773      0.00000     0.38985    0.00242     0.39227
      H   21    0.09929      0.00000     0.39965    0.00107     0.40071
      H   22    0.10063      0.00000     0.39739    0.00198     0.39937
      H   23    0.08967      0.00000     0.40737    0.00296     0.41033
      H   24    0.08563      0.00000     0.41263    0.00174     0.41437
      H   25    0.17383      0.00000     0.32336    0.00282     0.32617
      H   26    0.08607      0.00000     0.41250    0.00143     0.41393
      H   27    0.08791      0.00000     0.40944    0.00265     0.41209
 =======================================================================
   * Total *   -0.00000      9.99631    28.87578    0.12791    39.00000

 Normal termination of Gaussian 16 at Tue Dec  8 10:44:24 2020.
