 Gaussian 16, Revision A.03,

 -----------------------------------------------------------
 # opt freq B3LYP/6-31G(d) empiricaldispersion=gd3bj scf=xqc
 -----------------------------------------------------------

 --------------------------------
 CID_129026895_JID_10028_neutraal
 --------------------------------
 Symbolic Z-matrix:
 Charge =  0 Multiplicity = 1

 SCF Done:  E(RB3LYP) =  -970.872389460     A.U. after   15 cycles
 SCF Done:  E(RB3LYP) =  -970.878257264     A.U. after   13 cycles
 SCF Done:  E(RB3LYP) =  -970.879308753     A.U. after   13 cycles
 SCF Done:  E(RB3LYP) =  -970.878796741     A.U. after   13 cycles
 SCF Done:  E(RB3LYP) =  -970.879606722     A.U. after   13 cycles
 SCF Done:  E(RB3LYP) =  -970.880833108     A.U. after   12 cycles
 SCF Done:  E(RB3LYP) =  -970.881521572     A.U. after   12 cycles
 SCF Done:  E(RB3LYP) =  -970.881952094     A.U. after   12 cycles
 SCF Done:  E(RB3LYP) =  -970.882161714     A.U. after   12 cycles
 SCF Done:  E(RB3LYP) =  -970.882359268     A.U. after   13 cycles
 SCF Done:  E(RB3LYP) =  -970.882615264     A.U. after    8 cycles
 SCF Done:  E(RB3LYP) =  -970.882615442     A.U. after    7 cycles
 SCF Done:  E(RB3LYP) =  -970.882615577     A.U. after    7 cycles
 SCF Done:  E(RB3LYP) =  -970.882615628     A.U. after    6 cycles
 Optimization completed.
    -- Stationary point found.
 Normal termination of Gaussian 16 at Sun Dec 13 20:51:59 2020.

 --------------------------------------------------------------------
 #N Geom=AllCheck Guess=TCheck SCRF=Check GenChk RB3LYP/6-31G(d) Freq
 --------------------------------------------------------------------

 Structure from the checkpoint file:  "JID_10028.chk"
 --------------------------------
 CID_129026895_JID_10028_neutraal
 --------------------------------
 Charge =  0 Multiplicity = 1

 SCF Done:  E(RB3LYP) =  -970.882615628     A.U. after    2 cycles

  Exact polarizability: 159.879   8.350 155.758  20.540  -2.707 153.378
 Approx polarizability: 204.737  11.297 249.926  46.653  -4.708 261.691

                      1                      2                      3
                      A                      A                      A
 Frequencies --     11.7002                16.3431                29.6026
 Red. masses --      6.2843                 4.6845                 4.1444
 Frc consts  --      0.0005                 0.0007                 0.0021
 IR Inten    --      0.1818                 0.1855                 0.1539

                      4                      5                      6
                      A                      A                      A
 Frequencies --     41.3197                58.7908                67.9431
 Red. masses --      5.7578                 5.3494                 5.9868
 Frc consts  --      0.0058                 0.0109                 0.0163
 IR Inten    --      9.4278                 1.1887                 3.7506

                      7                      8                      9
                      A                      A                      A
 Frequencies --     83.2105               101.1265               135.2273
 Red. masses --      6.2540                 6.5912                 6.1854
 Frc consts  --      0.0255                 0.0397                 0.0666
 IR Inten    --      2.2798                 1.6433                 3.6276

                     10                     11                     12
                      A                      A                      A
 Frequencies --    149.4867               159.2076               172.3199
 Red. masses --      3.9976                 4.8025                 4.5795
 Frc consts  --      0.0526                 0.0717                 0.0801
 IR Inten    --      5.9445                 3.8489                 2.3159

                     13                     14                     15
                      A                      A                      A
 Frequencies --    195.3580               216.5005               240.8101
 Red. masses --      2.7006                 1.3292                 5.8874
 Frc consts  --      0.0607                 0.0367                 0.2012
 IR Inten    --      0.3602                 0.5629                 6.6059

                     16                     17                     18
                      A                      A                      A
 Frequencies --    253.6489               299.3343               337.9037
 Red. masses --      3.5952                 5.1485                 3.9119
 Frc consts  --      0.1363                 0.2718                 0.2632
 IR Inten    --      0.9531                 7.0779                 3.7187

                     19                     20                     21
                      A                      A                      A
 Frequencies --    361.8396               391.1548               416.8644
 Red. masses --      3.4894                 2.6878                 3.0258
 Frc consts  --      0.2692                 0.2423                 0.3098
 IR Inten    --      0.4668                17.7660                 0.4820

                     22                     23                     24
                      A                      A                      A
 Frequencies --    421.4580               459.0690               488.9500
 Red. masses --      4.4200                 2.7175                 1.1537
 Frc consts  --      0.4626                 0.3374                 0.1625
 IR Inten    --      6.2958                 1.3251                69.9659

                     25                     26                     27
                      A                      A                      A
 Frequencies --    496.8338               504.9932               555.2006
 Red. masses --      3.0458                 1.4075                 3.3268
 Frc consts  --      0.4430                 0.2115                 0.6042
 IR Inten    --      4.9451                82.9835                53.2912

                     28                     29                     30
                      A                      A                      A
 Frequencies --    576.5079               599.0100               602.4339
 Red. masses --      2.8499                 1.7645                 3.1197
 Frc consts  --      0.5581                 0.3730                 0.6671
 IR Inten    --     47.2179               179.0559                27.7619

                     31                     32                     33
                      A                      A                      A
 Frequencies --    633.8817               637.8657               683.8210
 Red. masses --      3.2232                 5.7987                 1.9826
 Frc consts  --      0.7630                 1.3901                 0.5462
 IR Inten    --     21.2415                 2.0935                95.4413

                     34                     35                     36
                      A                      A                      A
 Frequencies --    699.1346               701.9883               715.4120
 Red. masses --      4.5977                 1.9800                 1.7156
 Frc consts  --      1.3241                 0.5749                 0.5173
 IR Inten    --      0.7140                16.6936                39.6447

                     37                     38                     39
                      A                      A                      A
 Frequencies --    759.5050               776.3786               783.6714
 Red. masses --      6.3060                 3.0183                 3.7124
 Frc consts  --      2.1432                 1.0719                 1.3433
 IR Inten    --     30.9040                10.9019                25.6734

                     40                     41                     42
                      A                      A                      A
 Frequencies --    811.5947               838.9748               863.8794
 Red. masses --      3.1970                 3.7382                 1.2463
 Frc consts  --      1.2407                 1.5503                 0.5480
 IR Inten    --      8.3363                 9.4302                 0.4178

                     43                     44                     45
                      A                      A                      A
 Frequencies --    878.4305               912.4587               940.0014
 Red. masses --      4.0844                 3.2118                 1.4874
 Frc consts  --      1.8569                 1.5755                 0.7744
 IR Inten    --      9.1900                 1.8788                 6.6862

                     46                     47                     48
                      A                      A                      A
 Frequencies --    973.5417               978.4243              1001.1586
 Red. masses --      1.3614                 2.1368                 1.2704
 Frc consts  --      0.7603                 1.2052                 0.7502
 IR Inten    --      1.7660                41.9930                 1.3755

                     49                     50                     51
                      A                      A                      A
 Frequencies --   1010.6436              1023.1639              1036.9633
 Red. masses --      1.9550                 6.1339                 3.2369
 Frc consts  --      1.1765                 3.7834                 2.0507
 IR Inten    --      4.0668                 3.5745                 1.7221

                     52                     53                     54
                      A                      A                      A
 Frequencies --   1059.5309              1064.7829              1093.2932
 Red. masses --      2.7802                 3.6537                 2.3545
 Frc consts  --      1.8389                 2.4406                 1.6582
 IR Inten    --     43.5432                67.6314               119.4121

                     55                     56                     57
                      A                      A                      A
 Frequencies --   1124.3703              1146.5726              1162.8874
 Red. masses --      1.5281                 2.3306                 2.1019
 Frc consts  --      1.1382                 1.8052                 1.6747
 IR Inten    --      7.1444                24.8029                19.2310

                     58                     59                     60
                      A                      A                      A
 Frequencies --   1168.5388              1195.3668              1195.6257
 Red. masses --      1.3309                 1.1009                 1.8575
 Frc consts  --      1.0708                 0.9269                 1.5644
 IR Inten    --      8.7113                 0.0862                15.4093

                     61                     62                     63
                      A                      A                      A
 Frequencies --   1216.3897              1221.2023              1244.9144
 Red. masses --      1.1394                 1.3316                 2.9464
 Frc consts  --      0.9933                 1.1701                 2.6905
 IR Inten    --      1.7579                 6.7788                15.0009

                     64                     65                     66
                      A                      A                      A
 Frequencies --   1294.1488              1309.6503              1330.8459
 Red. masses --      1.3002                 1.3649                 1.5665
 Frc consts  --      1.2830                 1.3793                 1.6347
 IR Inten    --      9.7464                 6.5470                86.2542

                     67                     68                     69
                      A                      A                      A
 Frequencies --   1356.1099              1367.3193              1375.2386
 Red. masses --      2.1134                 4.2903                 1.2779
 Frc consts  --      2.2900                 4.7258                 1.4240
 IR Inten    --    440.5470                 1.7887                 2.5143

                     70                     71                     72
                      A                      A                      A
 Frequencies --   1380.5182              1399.9345              1409.0332
 Red. masses --      3.1183                 1.4451                 1.6894
 Frc consts  --      3.5014                 1.6687                 1.9762
 IR Inten    --     96.2657                38.0066                49.2206

                     73                     74                     75
                      A                      A                      A
 Frequencies --   1433.6736              1475.3225              1483.8371
 Red. masses --      1.7582                 1.6078                 1.5198
 Frc consts  --      2.1292                 2.0618                 1.9716
 IR Inten    --    120.6990                60.3131                 6.1055

                     76                     77                     78
                      A                      A                      A
 Frequencies --   1503.6837              1506.2327              1510.4901
 Red. masses --      1.2987                 2.1549                 1.1407
 Frc consts  --      1.7301                 2.8805                 1.5335
 IR Inten    --     10.7368                 7.9923                11.9763

                     79                     80                     81
                      A                      A                      A
 Frequencies --   1520.3194              1531.3909              1549.5889
 Red. masses --      1.1382                 1.0854                 2.2264
 Frc consts  --      1.5501                 1.4997                 3.1498
 IR Inten    --     28.7798                13.4472                 6.1695

                     82                     83                     84
                      A                      A                      A
 Frequencies --   1562.6331              1648.8126              1669.1446
 Red. masses --      1.0793                 5.5701                 5.5604
 Frc consts  --      1.5527                 8.9219                 9.1274
 IR Inten    --     26.2933                 1.3615                 0.4053

                     85                     86                     87
                      A                      A                      A
 Frequencies --   1678.0608              1773.0195              1800.2762
 Red. masses --      1.2144                 7.3403                 7.7315
 Frc consts  --      2.0148                13.5953                14.7636
 IR Inten    --     94.6222               195.1260               388.8914

                     88                     89                     90
                      A                      A                      A
 Frequencies --   1823.4159              3061.7102              3092.0441
 Red. masses --      9.1210                 1.0400                 1.0858
 Frc consts  --     17.8675                 5.7440                 6.1164
 IR Inten    --    429.6411                23.0297                 9.1998

                     91                     92                     93
                      A                      A                      A
 Frequencies --   3107.1782              3108.3245              3137.7400
 Red. masses --      1.0654                 1.0583                 1.0994
 Frc consts  --      6.0602                 6.0243                 6.3775
 IR Inten    --      3.5113                29.0378                13.8830

                     94                     95                     96
                      A                      A                      A
 Frequencies --   3165.5495              3168.2100              3174.4444
 Red. masses --      1.1095                 1.1028                 1.0989
 Frc consts  --      6.5503                 6.5218                 6.5245
 IR Inten    --      3.9840                 8.9267                 5.4919

                     97                     98                     99
                      A                      A                      A
 Frequencies --   3177.6373              3187.5960              3198.9446
 Red. masses --      1.0873                 1.0871                 1.0916
 Frc consts  --      6.4687                 6.5081                 6.5815
 IR Inten    --      8.3587                 1.8504                25.5459

                    100                    101                    102
                      A                      A                      A
 Frequencies --   3210.1492              3220.2032              3545.1657
 Red. masses --      1.0958                 1.0948                 1.0474
 Frc consts  --      6.6534                 6.6888                 7.7562
 IR Inten    --     22.7198                 4.8053                31.4872

                    103                    104                    105
                      A                      A                      A
 Frequencies --   3580.9515              3632.6883              3659.4768
 Red. masses --      1.0755                 1.0772                 1.1015
 Frc consts  --      8.1260                 8.3756                 8.6908
 IR Inten    --     26.8292                47.6950                44.7154

 - Thermochemistry -
 -------------------
 Temperature   298.150 Kelvin.  Pressure   1.00000 Atm.
 Atom     1 has atomic number  6 and mass  12.00000

 Molecular mass:   279.12191 amu.
 Principal axes and moments of inertia in atomic units:
                           1         2         3
     Eigenvalues --  3450.688059080.74255**********
           X            0.99998   0.00387  -0.00419
           Y           -0.00393   0.99985  -0.01663
           Z            0.00413   0.01664   0.99985
 This molecule is an asymmetric top.
 Rotational symmetry number  1.
 Warning -- assumption of classical behavior for rotation
           may cause significant error
 Rotational temperatures (Kelvin)      0.02510     0.00954     0.00840
 Rotational constants (GHZ):           0.52301     0.19874     0.17511
 Zero-point vibrational energy     796229.8 (Joules/Mol)
                                  190.30349 (Kcal/Mol)
 Warning -- explicit consideration of  30 degrees of freedom as
           vibrations may cause significant error
 Vibrational temperatures:     16.83    23.51    42.59    59.45    84.59
          (Kelvin)             97.76   119.72   145.50   194.56   215.08
                              229.06   247.93   281.08   311.50   346.47
                              364.94   430.68   486.17   520.61   562.78
                              599.77   606.38   660.50   703.49   714.83
                              726.57   798.81   829.47   861.84   866.77
                              912.01   917.75   983.87  1005.90  1010.00
                             1029.32  1092.76  1117.04  1127.53  1167.70
                             1207.10  1242.93  1263.87  1312.82  1352.45
                             1400.71  1407.73  1440.44  1454.09  1472.10
                             1491.96  1524.43  1531.99  1573.01  1617.72
                             1649.66  1673.14  1681.27  1719.87  1720.24
                             1750.11  1757.04  1791.15  1861.99  1884.29
                             1914.79  1951.14  1967.27  1978.66  1986.26
                             2014.19  2027.28  2062.74  2122.66  2134.91
                             2163.47  2167.13  2173.26  2187.40  2203.33
                             2229.51  2248.28  2372.27  2401.53  2414.36
                             2550.98  2590.20  2623.49  4405.12  4448.76
                             4470.54  4472.19  4514.51  4554.52  4558.35
                             4567.32  4571.91  4586.24  4602.57  4618.69
                             4633.15  5100.70  5152.19  5226.63  5265.17

 Zero-point correction=                           0.303268 (Hartree/Particle)
 Thermal correction to Energy=                    0.323018
 Thermal correction to Enthalpy=                  0.323963
 Thermal correction to Gibbs Free Energy=         0.251168
 Sum of electronic and zero-point Energies=           -970.579348
 Sum of electronic and thermal Energies=              -970.559597
 Sum of electronic and thermal Enthalpies=            -970.558653
 Sum of electronic and thermal Free Energies=         -970.631448

                     E (Thermal)             CV                S
                      KCal/Mol        Cal/Mol-Kelvin    Cal/Mol-Kelvin
 Total                  202.697             72.779            153.210
 Electronic               0.000              0.000              0.000
 Translational            0.889              2.981             42.778
 Rotational               0.889              2.981             34.134
 Vibrational            200.920             66.818             76.298
 Vibration     1          0.593              1.987              7.699
 Vibration     2          0.593              1.986              7.035
 Vibration     3          0.593              1.984              5.856
 Vibration     4          0.594              1.981              5.195
 Vibration     5          0.596              1.974              4.497
 Vibration     6          0.598              1.969              4.212
 Vibration     7          0.600              1.961              3.814
 Vibration     8          0.604              1.948              3.432
 Vibration     9          0.613              1.918              2.870
 Vibration    10          0.618              1.903              2.679
 Vibration    11          0.621              1.892              2.559
 Vibration    12          0.626              1.877              2.410
 Vibration    13          0.636              1.846              2.176
 Vibration    14          0.645              1.816              1.988
 Vibration    15          0.658              1.778              1.797
 Vibration    16          0.665              1.757              1.705
 Vibration    17          0.692              1.675              1.421
 Vibration    18          0.718              1.600              1.222
 Vibration    19          0.736              1.551              1.114
 Vibration    20          0.759              1.489              0.996
 Vibration    21          0.780              1.434              0.903
 Vibration    22          0.784              1.424              0.887
 Vibration    23          0.817              1.341              0.769
 Vibration    24          0.845              1.275              0.686
 Vibration    25          0.852              1.257              0.666
 Vibration    26          0.860              1.239              0.646
 Vibration    27          0.911              1.128              0.533
 Vibration    28          0.933              1.082              0.492
 Vibration    29          0.957              1.034              0.451
 Vibration    30          0.961              1.027              0.445

                           ! Non-Optimized Parameters !
 Normal termination of Gaussian 16 at Sun Dec 13 21:10:41 2020.

 ----------------------------------------------------------------------
 # B3LYP/6-311++G(d,p) empiricaldispersion=gd3bj scf=xqc pop=npa geom=c
 heck
 ----------------------------------------------------------------------

 ----------------------------------------
 CID_129026895_JID_10028_Energie_neutraal
 ----------------------------------------
 Structure from the checkpoint file:  "JID_10028.chk"
 Charge =  0 Multiplicity = 1

 SCF Done:  E(RB3LYP) =  -971.175468753     A.U. after   15 cycles
 Normal termination of Gaussian 16 at Sun Dec 13 21:17:31 2020.

 ----------------------------------------------------------------------
 # B3LYP/6-311++G(d,p) empiricaldispersion=gd3bj scf=xqc pop=npa geom=c
 heck
 ----------------------------------------------------------------------

 --------------------------------------
 CID_129026895_JID_10028_Energie_kation
 --------------------------------------
 Structure from the checkpoint file:  "JID_10028.chk"
 Charge =  1 Multiplicity = 2

 SCF Done:  E(UB3LYP) =  -970.858214047     A.U. after   33 cycles
 SCF Done:  E(UB3LYP) =  -970.858214047     a.u. after    1 cycles
 Normal termination of Gaussian 16 at Sun Dec 13 21:38:56 2020.
 Gaussian 16:  ES64L-G16RevA.03 25-Dec-2016

 ----------------------------------------------------------------------
 # B3LYP/6-311++G(d,p) empiricaldispersion=gd3bj scf=xqc pop=npa geom=c
 heck
 ----------------------------------------------------------------------

 -------------------------------------
 CID_129026895_JID_10028_Energie_anion
 -------------------------------------
 Structure from the checkpoint file:  "JID_10028.chk"
 Charge = -1 Multiplicity = 2

                         Standard orientation:
 ---------------------------------------------------------------------
 Center     Atomic      Atomic             Coordinates (Angstroms)
 Number     Number       Type             X           Y           Z
 ---------------------------------------------------------------------
      1          6           0       -2.647038   -0.226043    2.390386
      2          7           0       -3.448267   -0.760136    1.287719
      3          6           0       -3.159569   -0.736292   -0.045292
      4          8           0       -4.032658   -0.876498   -0.898070
      5          6           0       -1.699697   -0.541343   -0.480023
      6          6           0       -1.174746    0.891483   -0.192990
      7          6           0       -2.204629    2.015259   -0.283881
      8          8           0       -2.242905    2.907865    0.552753
      9          7           0       -3.023380    2.003588   -1.385250
     10          7           0       -0.861389   -1.562656    0.148431
     11          6           0        0.407041   -1.887175   -0.250060
     12          8           0        1.055728   -2.803783    0.220710
     13          8           0        0.831369   -1.047208   -1.227571
     14          6           0        2.247618   -1.116936   -1.543731
     15          6           0        3.035041   -0.218159   -0.629143
     16          6           0        3.538659   -0.704588    0.583670
     17          6           0        4.224966    0.145695    1.449934
     18          6           0        4.411799    1.487896    1.114223
     19          6           0        3.910685    1.979660   -0.092202
     20          6           0        3.225883    1.128427   -0.958403
     21          1           0       -1.618067   -0.580825    2.319544
     22          1           0       -3.070399   -0.594878    3.327314
     23          1           0       -2.645391    0.870084    2.400951
     24          1           0       -4.447223   -0.825059    1.448690
     25          1           0       -1.721659   -0.704733   -1.560825
     26          1           0       -0.748122    0.939798    0.808176
     27          1           0       -0.362067    1.099696   -0.894448
     28          1           0       -3.257736    1.121843   -1.827411
     29          1           0       -3.776410    2.680336   -1.354866
     30          1           0       -1.308179   -2.278529    0.704014
     31          1           0        2.566969   -2.157243   -1.469516
     32          1           0        2.304990   -0.783530   -2.581457
     33          1           0        3.373815   -1.744859    0.845547
     34          1           0        4.614727   -0.239701    2.387913
     35          1           0        4.947345    2.148801    1.789990
     36          1           0        4.054314    3.023040   -0.358083
     37          1           0        2.836004    1.509885   -1.899338
 ---------------------------------------------------------------------

 SCF Done:  E(UB3LYP) =  -971.168845839     A.U. after   33 cycles
 SCF Done:  E(UB3LYP) =  -971.168845838     a.u. after    1 cycles

 The electronic state is 2-A.
 Alpha  occ. eigenvalues --  -19.07578 -19.01349 -19.01053 -19.00927 -14.25935
 Alpha  occ. eigenvalues --  -14.25791 -14.24794 -10.23480 -10.19752 -10.19495
 Alpha  occ. eigenvalues --  -10.14918 -10.13928 -10.11514 -10.09785 -10.08503
 Alpha  occ. eigenvalues --  -10.08488 -10.08412 -10.08331 -10.08079 -10.08055
 Alpha  occ. eigenvalues --   -1.02226  -0.96503  -0.95694  -0.93098  -0.85786
 Alpha  occ. eigenvalues --   -0.83698  -0.82309  -0.76821  -0.70321  -0.68490
 Alpha  occ. eigenvalues --   -0.65704  -0.63002  -0.61887  -0.59764  -0.52753
 Alpha  occ. eigenvalues --   -0.51922  -0.51338  -0.49712  -0.48656  -0.46417
 Alpha  occ. eigenvalues --   -0.45033  -0.42910  -0.42677  -0.41034  -0.40249
 Alpha  occ. eigenvalues --   -0.39266  -0.38398  -0.37480  -0.37066  -0.36721
 Alpha  occ. eigenvalues --   -0.35405  -0.35190  -0.33650  -0.33297  -0.32907
 Alpha  occ. eigenvalues --   -0.32607  -0.32012  -0.31696  -0.30947  -0.29016
 Alpha  occ. eigenvalues --   -0.28191  -0.27714  -0.27140  -0.26929  -0.25131
 Alpha  occ. eigenvalues --   -0.21607  -0.20414  -0.19864  -0.19344  -0.18261
 Alpha  occ. eigenvalues --   -0.17604  -0.17019  -0.16749  -0.16521   0.03885
 Alpha virt. eigenvalues --    0.05420   0.06345   0.06688   0.07135   0.07280
 Alpha virt. eigenvalues --    0.07694   0.07903   0.08663   0.08975   0.09300
 Alpha virt. eigenvalues --    0.09392   0.09831   0.10495   0.11213   0.11831

  Beta  occ. eigenvalues --  -19.07541 -19.01337 -19.01041 -19.00916 -14.25922
  Beta  occ. eigenvalues --  -14.25759 -14.24782 -10.23474 -10.19747 -10.19493
  Beta  occ. eigenvalues --  -10.14905 -10.13912 -10.11470 -10.09775 -10.08505
  Beta  occ. eigenvalues --  -10.08408 -10.08387 -10.08289 -10.08027 -10.07955
  Beta  occ. eigenvalues --   -1.02177  -0.96480  -0.95676  -0.93057  -0.85754
  Beta  occ. eigenvalues --   -0.83643  -0.82287  -0.76679  -0.70278  -0.68322
  Beta  occ. eigenvalues --   -0.65603  -0.62932  -0.61788  -0.59697  -0.52626
  Beta  occ. eigenvalues --   -0.51878  -0.51248  -0.49677  -0.48553  -0.46387
  Beta  occ. eigenvalues --   -0.44996  -0.42859  -0.42625  -0.40956  -0.40179
  Beta  occ. eigenvalues --   -0.39235  -0.38332  -0.37403  -0.37016  -0.36664
  Beta  occ. eigenvalues --   -0.35358  -0.35151  -0.33603  -0.33273  -0.32859
  Beta  occ. eigenvalues --   -0.32553  -0.31950  -0.31670  -0.30903  -0.28970
  Beta  occ. eigenvalues --   -0.28022  -0.27667  -0.26969  -0.26858  -0.25082
  Beta  occ. eigenvalues --   -0.21545  -0.20384  -0.19841  -0.19319  -0.18232
  Beta  occ. eigenvalues --   -0.17567  -0.16961  -0.16479  -0.15969
  Beta virt. eigenvalues --    0.06013   0.06662   0.06958   0.07110   0.07276
  Beta virt. eigenvalues --    0.07500   0.07885   0.08044   0.08807   0.09303
  Beta virt. eigenvalues --    0.09589   0.09675   0.09869   0.10711   0.11548

 Mulliken charges and spin densities:
               1          2
     1  C    0.536975  -1.017276
     2  N   -0.208249   0.002156
     3  C   -0.629913   0.533992
     4  O   -0.322608   0.020395
     5  C    0.348117  -0.583690
     6  C    0.368839  -0.559619
     7  C   -0.011131  -0.177399
     8  O   -0.294426   0.014074
     9  N   -0.339413   0.066003
    10  N   -0.318241   0.027245
    11  C    0.311570  -0.139291
    12  O   -0.296895  -0.000574
    13  O    0.062421  -0.040025
    14  C    0.252557  -1.165558
    15  C    0.043963   0.766050
    16  C   -0.475216   0.274025
    17  C   -0.219470  -0.069525
    18  C   -0.026084  -0.219301
    19  C   -0.124597  -0.137232
    20  C    0.133154  -0.073149
    21  H    0.170934   0.025407
    22  H   -0.941828   1.125953
    23  H    0.174258   0.030321
    24  H   -0.353895   0.702354
    25  H    0.053362   0.262946
    26  H    0.239324  -0.043666
    27  H    0.243743  -0.031042
    28  H    0.239503   0.009019
    29  H    0.150144   0.138700
    30  H    0.157498   0.174705
    31  H    0.159935   0.035533
    32  H   -0.197633   0.370027
    33  H    0.137289   0.053542
    34  H    0.083548   0.076515
    35  H    0.086571   0.037146
    36  H    0.011389   0.149130
    37  H   -0.205491   0.362108
 Sum of Mulliken charges =  -1.00000   1.00000

 Dipole moment (field-independent basis, Debye):
    X=              4.7350    Y=              1.0661    Z=             -3.0863  Tot=              5.7517
 Quadrupole moment (field-independent basis, Debye-Ang):
   XX=           -203.2265   YY=           -161.9122   ZZ=           -159.6734
   XY=             -6.6781   XZ=             21.0185   YZ=              2.3310

 Summary of Natural Population Analysis:

                                       Natural Population
                Natural  -----------------------------------------------
    Atom  No    Charge         Core      Valence    Rydberg      Total
 -----------------------------------------------------------------------
      C    1   -0.18728      0.99963     2.17917    0.00847     3.18728
      N    2   -0.31339      0.99966     2.80137    0.01236     3.81339
      C    3    0.33841      0.99963     1.63719    0.02477     2.66159
      O    4   -0.32489      0.99988     3.31908    0.00593     4.32489
      C    5   -0.04600      0.99954     2.03370    0.01277     3.04600
      C    6   -0.24219      0.99956     2.23266    0.00998     3.24219
      C    7    0.33921      0.99970     1.63871    0.02238     2.66079
      O    8   -0.31578      0.99988     3.30976    0.00614     4.31578
      N    9   -0.40570      0.99970     2.89924    0.00676     3.90570
      N   10   -0.33006      0.99966     2.82070    0.00970     3.83006
      C   11    0.46792      0.99969     1.50841    0.02397     2.53208
      O   12   -0.33030      0.99987     3.32532    0.00510     4.33030
      O   13   -0.28873      0.99987     3.28017    0.00869     4.28873
      C   14   -0.01974      0.99951     2.00751    0.01272     3.01974
      C   15   -0.02741      0.99950     2.01828    0.00963     3.02741
      C   16   -0.08999      0.99952     2.08213    0.00835     3.08999
      C   17   -0.10448      0.99957     2.09507    0.00984     3.10448
      C   18   -0.08242      0.99957     2.07312    0.00973     3.08242
      C   19   -0.10511      0.99957     2.09604    0.00950     3.10511
      C   20   -0.08992      0.99952     2.08025    0.01014     3.08992
      H   21    0.10072      0.00000     0.39782    0.00146     0.39928
      H   22    0.10659      0.00000     0.39024    0.00317     0.39341
      H   23    0.10123      0.00000     0.39735    0.00142     0.39877
      H   24    0.20041      0.00000     0.29189    0.00770     0.29959
      H   25    0.11030      0.00000     0.38774    0.00196     0.38970
      H   26    0.11647      0.00000     0.38214    0.00139     0.38353
      H   27    0.12558      0.00000     0.37307    0.00135     0.37442
      H   28    0.20055      0.00000     0.29725    0.00221     0.29945
      H   29    0.19259      0.00000     0.30554    0.00187     0.30741
      H   30    0.20402      0.00000     0.29388    0.00209     0.29598
      H   31    0.10183      0.00000     0.39702    0.00115     0.39817
      H   32    0.09578      0.00000     0.40287    0.00135     0.40422
      H   33    0.10915      0.00000     0.38981    0.00104     0.39085
      H   34    0.09796      0.00000     0.40125    0.00079     0.40204
      H   35    0.09623      0.00000     0.40302    0.00075     0.40377
      H   36    0.09882      0.00000     0.40036    0.00082     0.40118
      H   37    0.09961      0.00000     0.39924    0.00116     0.40039
 =======================================================================
   * Total *   -0.00000     19.99301    53.74835    0.25865    74.00000

 Normal termination of Gaussian 16 at Sun Dec 13 22:00:37 2020.
