 Gaussian 16, Revision A.03,

 -----------------------------------------------------------
 # opt freq B3LYP/6-31G(d) empiricaldispersion=gd3bj scf=xqc
 -----------------------------------------------------------

 ------------------------------
 CID_93683109_JID_7515_neutraal
 ------------------------------
 Symbolic Z-matrix:
 Charge =  0 Multiplicity = 1

 SCF Done:  E(RB3LYP) =  -747.539461934     A.U. after   14 cycles
 SCF Done:  E(RB3LYP) =  -747.543695544     A.U. after   12 cycles
 SCF Done:  E(RB3LYP) =  -747.542353070     A.U. after   12 cycles
 SCF Done:  E(RB3LYP) =  -747.545175737     A.U. after   12 cycles
 SCF Done:  E(RB3LYP) =  -747.546664912     A.U. after   14 cycles
 SCF Done:  E(RB3LYP) =  -747.547605399     A.U. after   11 cycles
 SCF Done:  E(RB3LYP) =  -747.548072714     A.U. after   12 cycles
 SCF Done:  E(RB3LYP) =  -747.548404980     A.U. after   11 cycles
 SCF Done:  E(RB3LYP) =  -747.548941050     A.U. after   12 cycles
 SCF Done:  E(RB3LYP) =  -747.549195997     A.U. after   12 cycles
 SCF Done:  E(RB3LYP) =  -747.561759320     A.U. after   11 cycles
 SCF Done:  E(RB3LYP) =  -747.561769047     A.U. after   11 cycles
 SCF Done:  E(RB3LYP) =  -747.561769610     A.U. after    9 cycles
 SCF Done:  E(RB3LYP) =  -747.561769907     A.U. after   10 cycles
 SCF Done:  E(RB3LYP) =  -747.561770009     A.U. after    8 cycles
 Optimization completed.
    -- Stationary point found.
 Normal termination of Gaussian 16 at Thu Dec 17 20:30:10 2020.

 --------------------------------------------------------------------
 #N Geom=AllCheck Guess=TCheck SCRF=Check GenChk RB3LYP/6-31G(d) Freq
 --------------------------------------------------------------------

 Structure from the checkpoint file:  "JID_7515.chk"
 ------------------------------
 CID_93683109_JID_7515_neutraal
 ------------------------------
 Charge =  0 Multiplicity = 1

 SCF Done:  E(RB3LYP) =  -747.561770009     A.U. after    1 cycles

  Exact polarizability: 183.974   5.188 171.552  14.025   0.217 110.223
 Approx polarizability: 257.044  10.974 264.128  29.636   0.315 173.743

                      1                      2                      3
                      A                      A                      A
 Frequencies --     16.0124                38.1657                43.5846
 Red. masses --      4.9855                 3.7359                 3.3196
 Frc consts  --      0.0008                 0.0032                 0.0037
 IR Inten    --      0.5735                 2.6352                 0.7050

                      4                      5                      6
                      A                      A                      A
 Frequencies --     63.2576                75.3369                88.8577
 Red. masses --      1.4538                 2.6451                 3.1353
 Frc consts  --      0.0034                 0.0088                 0.0146
 IR Inten    --     12.6574                 4.7467                 2.4936

                      7                      8                      9
                      A                      A                      A
 Frequencies --    152.3465               188.3770               229.5466
 Red. masses --      3.8427                 3.7760                 3.1318
 Frc consts  --      0.0525                 0.0789                 0.0972
 IR Inten    --      1.8315                 0.3691                 1.8933

                     10                     11                     12
                      A                      A                      A
 Frequencies --    256.5405               271.7927               302.7073
 Red. masses --      1.9958                 2.5474                 2.5590
 Frc consts  --      0.0774                 0.1109                 0.1382
 IR Inten    --      0.1660                 0.4282                 3.9767

                     13                     14                     15
                      A                      A                      A
 Frequencies --    323.8237               336.4744               353.8247
 Red. masses --      3.0977                 2.7325                 2.1453
 Frc consts  --      0.1914                 0.1823                 0.1582
 IR Inten    --      3.6947                14.6770                 4.1637

                     16                     17                     18
                      A                      A                      A
 Frequencies --    388.6140               415.7459               426.2724
 Red. masses --      3.9076                 3.2637                 2.1155
 Frc consts  --      0.3477                 0.3324                 0.2265
 IR Inten    --      0.8755                 2.7844                 1.6890

                     19                     20                     21
                      A                      A                      A
 Frequencies --    447.1466               457.6060               492.2865
 Red. masses --      3.1950                 3.6218                 2.7068
 Frc consts  --      0.3764                 0.4468                 0.3865
 IR Inten    --      6.7216                 7.7855                 2.0224

                     22                     23                     24
                      A                      A                      A
 Frequencies --    501.2985               554.3973               596.7091
 Red. masses --      3.2008                 3.3036                 2.0521
 Frc consts  --      0.4739                 0.5982                 0.4305
 IR Inten    --      2.9013                 4.6056                 2.0951

                     25                     26                     27
                      A                      A                      A
 Frequencies --    601.4891               635.1432               718.7884
 Red. masses --      3.3737                 2.8435                 3.5796
 Frc consts  --      0.7191                 0.6759                 1.0896
 IR Inten    --      8.0435                 5.8383                10.4206

                     28                     29                     30
                      A                      A                      A
 Frequencies --    727.0101               732.0478               769.9685
 Red. masses --      1.5372                 1.6585                 2.5095
 Frc consts  --      0.4787                 0.5236                 0.8766
 IR Inten    --     32.3606                95.3713                24.8001

                     31                     32                     33
                      A                      A                      A
 Frequencies --    801.7461               822.6213               825.9567
 Red. masses --      3.5920                 1.9769                 2.2487
 Frc consts  --      1.3604                 0.7882                 0.9039
 IR Inten    --      8.4119               133.2665                13.5679

                     34                     35                     36
                      A                      A                      A
 Frequencies --    842.3684               851.7769               873.8663
 Red. masses --      1.5261                 1.5612                 1.8985
 Frc consts  --      0.6380                 0.6673                 0.8542
 IR Inten    --     12.2082                 0.6313                44.9433

                     37                     38                     39
                      A                      A                      A
 Frequencies --    887.6198               906.7144               922.6520
 Red. masses --      1.7383                 1.4733                 1.6731
 Frc consts  --      0.8069                 0.7136                 0.8392
 IR Inten    --     92.6653                27.8275                17.0845

                     40                     41                     42
                      A                      A                      A
 Frequencies --    930.4682               948.3764               958.6643
 Red. masses --      2.1610                 1.3125                 2.9588
 Frc consts  --      1.1023                 0.6955                 1.6022
 IR Inten    --      7.3704                 0.0482                 2.4720

                     43                     44                     45
                      A                      A                      A
 Frequencies --    993.0486              1039.6402              1048.9423
 Red. masses --      2.1220                 2.1342                 1.6045
 Frc consts  --      1.2329                 1.3591                 1.0402
 IR Inten    --     15.5594                 5.6962                 4.5846

                     46                     47                     48
                      A                      A                      A
 Frequencies --   1051.7372              1053.6481              1093.0040
 Red. masses --      1.8463                 2.0380                 2.3820
 Frc consts  --      1.2033                 1.3331                 1.6766
 IR Inten    --      2.0542                 6.4309                 0.7467

                     49                     50                     51
                      A                      A                      A
 Frequencies --   1143.9442              1151.4776              1160.8575
 Red. masses --      1.8269                 3.4943                 2.0997
 Frc consts  --      1.4086                 2.7297                 1.6671
 IR Inten    --      9.7590                31.6959                 5.5867

                     52                     53                     54
                      A                      A                      A
 Frequencies --   1171.9046              1183.2680              1189.4324
 Red. masses --      1.9876                 1.5908                 2.2661
 Frc consts  --      1.6083                 1.3123                 1.8889
 IR Inten    --      4.9878                 0.9008                44.3859

                     55                     56                     57
                      A                      A                      A
 Frequencies --   1200.6603              1214.5743              1224.1448
 Red. masses --      1.2618                 1.2042                 1.4753
 Frc consts  --      1.0717                 1.0467                 1.3025
 IR Inten    --      0.9487                19.1027                 4.1063

                     58                     59                     60
                      A                      A                      A
 Frequencies --   1237.1949              1260.4178              1301.5719
 Red. masses --      1.5683                 1.2724                 2.3281
 Frc consts  --      1.4144                 1.1910                 2.3238
 IR Inten    --     40.7817                 3.5496               116.8771

                     61                     62                     63
                      A                      A                      A
 Frequencies --   1310.6270              1319.8633              1326.8060
 Red. masses --      1.4023                 1.4817                 2.1925
 Frc consts  --      1.4192                 1.5207                 2.2741
 IR Inten    --      5.0699                74.4955                66.6954

                     64                     65                     66
                      A                      A                      A
 Frequencies --   1338.1290              1352.1586              1368.3374
 Red. masses --      1.9006                 1.7838                 1.2589
 Frc consts  --      2.0051                 1.9215                 1.3888
 IR Inten    --      7.4007                14.5764                 1.6698

                     67                     68                     69
                      A                      A                      A
 Frequencies --   1374.7290              1382.3531              1393.9983
 Red. masses --      1.2871                 1.4232                 1.3837
 Frc consts  --      1.4331                 1.6023                 1.5842
 IR Inten    --      0.3845                 0.8697                20.4559

                     70                     71                     72
                      A                      A                      A
 Frequencies --   1399.8456              1419.1484              1426.8543
 Red. masses --      1.4061                 1.3490                 1.5953
 Frc consts  --      1.6234                 1.6007                 1.9136
 IR Inten    --     32.4150                 6.6405                28.1954

                     73                     74                     75
                      A                      A                      A
 Frequencies --   1430.3076              1452.6194              1488.5852
 Red. masses --      1.6442                 1.4277                 2.8707
 Frc consts  --      1.9818                 1.7749                 3.7479
 IR Inten    --     28.2644                 2.2274                 9.4851

                     76                     77                     78
                      A                      A                      A
 Frequencies --   1497.9750              1504.2551              1510.1139
 Red. masses --      1.0798                 1.1617                 1.1018
 Frc consts  --      1.4275                 1.5487                 1.4804
 IR Inten    --      0.8247                 7.7536                 2.4210

                     79                     80                     81
                      A                      A                      A
 Frequencies --   1512.2715              1517.1546              1523.2808
 Red. masses --      1.1008                 1.1138                 1.0994
 Frc consts  --      1.4833                 1.5105                 1.5031
 IR Inten    --      7.8614                 6.0420                 1.2636

                     82                     83                     84
                      A                      A                      A
 Frequencies --   1523.8596              1537.4260              1556.7076
 Red. masses --      1.1090                 1.1134                 3.2277
 Frc consts  --      1.5173                 1.5505                 4.6085
 IR Inten    --      5.3071                 7.6513               155.8867

                     85                     86                     87
                      A                      A                      A
 Frequencies --   1648.2048              1673.7540              1694.9707
 Red. masses --      2.5829                 4.4637                 1.5525
 Frc consts  --      4.1340                 7.3676                 2.6279
 IR Inten    --     14.5030                 1.3931                43.8038

                     88                     89                     90
                      A                      A                      A
 Frequencies --   2890.2357              2900.8170              2932.3574
 Red. masses --      1.0736                 1.0726                 1.0736
 Frc consts  --      5.2840                 5.3180                 5.4393
 IR Inten    --     32.9951               107.1141               126.3466

                     91                     92                     93
                      A                      A                      A
 Frequencies --   3035.6570              3040.7651              3048.2084
 Red. masses --      1.0636                 1.0623                 1.0625
 Frc consts  --      5.7746                 5.7872                 5.8166
 IR Inten    --     31.9032                20.8205                47.2497

                     94                     95                     96
                      A                      A                      A
 Frequencies --   3051.4231              3066.9842              3071.5242
 Red. masses --      1.0633                 1.0869                 1.0999
 Frc consts  --      5.8331                 6.0239                 6.1139
 IR Inten    --     47.9388                43.2645                 4.6883

                     97                     98                     99
                      A                      A                      A
 Frequencies --   3090.3410              3092.3886              3094.5553
 Red. masses --      1.0859                 1.1016                 1.0901
 Frc consts  --      6.1104                 6.2067                 6.1503
 IR Inten    --     36.7448                37.1529                53.9384

                    100                    101                    102
                      A                      A                      A
 Frequencies --   3099.0972              3104.1224              3174.9814
 Red. masses --      1.1041                 1.0983                 1.0886
 Frc consts  --      6.2479                 6.2353                 6.4657
 IR Inten    --     50.8491                44.7162                16.2717

                    103                    104                    105
                      A                      A                      A
 Frequencies --   3193.9012              3214.5355              3459.8905
 Red. masses --      1.0901                 1.0928                 1.0734
 Frc consts  --      6.5519                 6.6533                 7.5709
 IR Inten    --      8.2904                11.1748                 3.0526

                    106                    107                    108
                      A                      A                      A
 Frequencies --   3470.2429              3536.6336              3555.0267
 Red. masses --      1.0510                 1.0637                 1.0912
 Frc consts  --      7.4568                 7.8385                 8.1257
 IR Inten    --      1.5429               113.7791                 4.9441

 - Thermochemistry -
 -------------------
 Temperature   298.150 Kelvin.  Pressure   1.00000 Atm.
 Atom     1 has atomic number  6 and mass  12.00000

 Molecular mass:   235.16846 amu.
 Principal axes and moments of inertia in atomic units:
                           1         2         3
     Eigenvalues --  2326.727006389.723327936.14439
           X            1.00000  -0.00056  -0.00126
           Y            0.00056   1.00000  -0.00224
           Z            0.00127   0.00224   1.00000
 This molecule is an asymmetric top.
 Rotational symmetry number  1.
 Warning -- assumption of classical behavior for rotation
           may cause significant error
 Rotational temperatures (Kelvin)      0.03723     0.01356     0.01091
 Rotational constants (GHZ):           0.77566     0.28244     0.22741
 Zero-point vibrational energy     885867.6 (Joules/Mol)
                                  211.72744 (Kcal/Mol)
 Warning -- explicit consideration of  25 degrees of freedom as
           vibrations may cause significant error
 Vibrational temperatures:     23.04    54.91    62.71    91.01   108.39
          (Kelvin)            127.85   219.19   271.03   330.27   369.10
                              391.05   435.53   465.91   484.11   509.07
                              559.13   598.17   613.31   643.34   658.39
                              708.29   721.26   797.65   858.53   865.41
                              913.83  1034.18  1046.01  1053.25  1107.81
                             1153.53  1183.57  1188.37  1211.98  1225.52
                             1257.30  1277.09  1304.56  1327.49  1338.74
                             1364.50  1379.30  1428.78  1495.81  1509.19
                             1513.22  1515.96  1572.59  1645.88  1656.72
                             1670.22  1686.11  1702.46  1711.33  1727.48
                             1747.50  1761.27  1780.05  1813.46  1872.67
                             1885.70  1898.99  1908.98  1925.27  1945.45
                             1968.73  1977.93  1988.90  2005.65  2014.07
                             2041.84  2052.93  2057.89  2090.00  2141.74
                             2155.25  2164.29  2172.72  2175.82  2182.85
                             2191.66  2192.49  2212.01  2239.76  2371.40
                             2408.16  2438.68  4158.40  4173.63  4219.01
                             4367.63  4374.98  4385.69  4390.32  4412.71
                             4419.24  4446.31  4449.26  4452.37  4458.91
                             4466.14  4568.09  4595.31  4625.00  4978.01
                             4992.91  5088.43  5114.89

 Zero-point correction=                           0.337409 (Hartree/Particle)
 Thermal correction to Energy=                    0.353599
 Thermal correction to Enthalpy=                  0.354543
 Thermal correction to Gibbs Free Energy=         0.291885
 Sum of electronic and zero-point Energies=           -747.224361
 Sum of electronic and thermal Energies=              -747.208171
 Sum of electronic and thermal Enthalpies=            -747.207227
 Sum of electronic and thermal Free Energies=         -747.269885

                     E (Thermal)             CV                S
                      KCal/Mol        Cal/Mol-Kelvin    Cal/Mol-Kelvin
 Total                  221.887             63.302            131.875
 Electronic               0.000              0.000              0.000
 Translational            0.889              2.981             42.267
 Rotational               0.889              2.981             33.134
 Vibrational            220.109             57.340             56.475
 Vibration     1          0.593              1.986              7.076
 Vibration     2          0.594              1.982              5.352
 Vibration     3          0.595              1.980              5.089
 Vibration     4          0.597              1.972              4.353
 Vibration     5          0.599              1.965              4.009
 Vibration     6          0.602              1.957              3.685
 Vibration     7          0.619              1.900              2.643
 Vibration     8          0.633              1.856              2.244
 Vibration     9          0.652              1.796              1.882
 Vibration    10          0.666              1.752              1.685
 Vibration    11          0.675              1.725              1.585
 Vibration    12          0.694              1.669              1.402
 Vibration    13          0.708              1.628              1.291
 Vibration    14          0.717              1.603              1.229
 Vibration    15          0.730              1.567              1.149
 Vibration    16          0.757              1.495              1.005
 Vibration    17          0.779              1.436              0.907
 Vibration    18          0.788              1.413              0.871
 Vibration    19          0.806              1.367              0.804
 Vibration    20          0.816              1.344              0.773
 Vibration    21          0.848              1.267              0.678
 Vibration    22          0.857              1.247              0.655
 Vibration    23          0.910              1.130              0.535
 Vibration    24          0.955              1.039              0.455
 Vibration    25          0.960              1.029              0.447

 Optimization completed.
    -- Stationary point found.
 Normal termination of Gaussian 16 at Thu Dec 17 20:44:43 2020.

 ----------------------------------------------------------------------
 # B3LYP/6-311++G(d,p) empiricaldispersion=gd3bj scf=xqc pop=npa geom=c
 heck
 ----------------------------------------------------------------------

 --------------------------------------
 CID_93683109_JID_7515_Energie_neutraal
 --------------------------------------
 Structure from the checkpoint file:  "JID_7515.chk"
 Charge =  0 Multiplicity = 1

 SCF Done:  E(RB3LYP) =  -747.781332897     A.U. after   15 cycles
 Normal termination of Gaussian 16 at Thu Dec 17 20:51:18 2020.

 ----------------------------------------------------------------------
 # B3LYP/6-311++G(d,p) empiricaldispersion=gd3bj scf=xqc pop=npa geom=c
 heck
 ----------------------------------------------------------------------

 ------------------------------------
 CID_93683109_JID_7515_Energie_kation
 ------------------------------------
 Structure from the checkpoint file:  "JID_7515.chk"
 Charge =  1 Multiplicity = 2

 SCF Done:  E(UB3LYP) =  -747.510740183     A.U. after   22 cycles
 Normal termination of Gaussian 16 at Thu Dec 17 21:04:18 2020.
 Gaussian 16:  ES64L-G16RevA.03 25-Dec-2016

 ----------------------------------------------------------------------
 # B3LYP/6-311++G(d,p) empiricaldispersion=gd3bj scf=xqc pop=npa geom=c
 heck
 ----------------------------------------------------------------------

 -----------------------------------
 CID_93683109_JID_7515_Energie_anion
 -----------------------------------
 Structure from the checkpoint file:  "JID_7515.chk"
 Charge = -1 Multiplicity = 2

                         Standard orientation:
 ---------------------------------------------------------------------
 Center     Atomic      Atomic             Coordinates (Angstroms)
 Number     Number       Type             X           Y           Z
 ---------------------------------------------------------------------
      1          6           0       -3.798180    0.319629   -0.931544
      2          6           0       -3.169713   -0.771044   -0.057393
      3          7           0       -1.848178   -0.351573    0.398933
      4          6           0       -1.925452    0.905871    1.136045
      5          6           0       -2.555004    1.996235    0.263748
      6          7           0       -3.864728    1.629761   -0.279517
      7          6           0       -1.143405   -1.384626    1.154586
      8          6           0       -0.671373   -2.557630    0.290032
      9          6           0        0.131603   -2.115107   -0.950160
     10          6           0        1.290375   -1.205809   -0.610398
     11          6           0        1.170146    0.182979   -0.740662
     12          6           0        2.207475    1.034969   -0.370906
     13          6           0        3.399478    0.500647    0.149305
     14          6           0        3.543032   -0.882825    0.270516
     15          6           0        2.494213   -1.718200   -0.109218
     16          8           0        4.395699    1.339065    0.533298
     17          7           0        2.163345    2.475437   -0.452300
     18          1           0       -3.194984    0.430570   -1.841849
     19          1           0       -4.808330    0.024639   -1.236493
     20          1           0       -3.073533   -1.697007   -0.634333
     21          1           0       -3.840236   -0.988859    0.801764
     22          1           0       -2.518453    0.796749    2.069170
     23          1           0       -0.908732    1.195695    1.428931
     24          1           0       -1.888373    2.197321   -0.586035
     25          1           0       -2.655655    2.926640    0.834114
     26          1           0       -4.532250    1.576545    0.490800
     27          1           0       -0.261455   -0.910315    1.597060
     28          1           0       -1.759400   -1.764135    1.993698
     29          1           0       -0.048211   -3.202765    0.922739
     30          1           0       -1.520080   -3.174136   -0.032372
     31          1           0        0.495616   -3.011510   -1.468196
     32          1           0       -0.542465   -1.598137   -1.640384
     33          1           0        0.239585    0.599161   -1.116857
     34          1           0        4.469971   -1.283573    0.667881
     35          1           0        2.612688   -2.794947   -0.008814
     36          1           0        4.003916    2.234646    0.434040
     37          1           0        1.253781    2.830745   -0.166640
     38          1           0        2.318760    2.794237   -1.408123
 ---------------------------------------------------------------------

 SCF Done:  E(UB3LYP) =  -747.771044696     A.U. after   33 cycles
 SCF Done:  E(UB3LYP) =  -747.771044696     a.u. after    1 cycles

 The electronic state is 2-A.
 Alpha  occ. eigenvalues --  -19.04843 -14.21567 -14.21085 -14.20311 -10.13328
 Alpha  occ. eigenvalues --  -10.10659 -10.09790 -10.09689 -10.09665 -10.09481
 Alpha  occ. eigenvalues --  -10.09331 -10.08019 -10.07931 -10.07813 -10.07733
 Alpha  occ. eigenvalues --  -10.07689 -10.07350  -0.96434  -0.84880  -0.80848
 Alpha  occ. eigenvalues --   -0.79875  -0.75155  -0.69731  -0.66685  -0.64910
 Alpha  occ. eigenvalues --   -0.63438  -0.59923  -0.55632  -0.54699  -0.52597
 Alpha  occ. eigenvalues --   -0.50704  -0.48383  -0.46960  -0.44436  -0.41115
 Alpha  occ. eigenvalues --   -0.40710  -0.39602  -0.38324  -0.37604  -0.36704
 Alpha  occ. eigenvalues --   -0.36443  -0.35320  -0.35034  -0.34420  -0.33250
 Alpha  occ. eigenvalues --   -0.32298  -0.31098  -0.30716  -0.29503  -0.28897
 Alpha  occ. eigenvalues --   -0.27854  -0.27256  -0.25940  -0.25681  -0.25227
 Alpha  occ. eigenvalues --   -0.25027  -0.24084  -0.23295  -0.22962  -0.18673
 Alpha  occ. eigenvalues --   -0.15466  -0.14009  -0.12546  -0.11989   0.04079
 Alpha virt. eigenvalues --    0.05788   0.06451   0.07097   0.07748   0.08088
 Alpha virt. eigenvalues --    0.08344   0.09156   0.09363   0.09725   0.09892
 Alpha virt. eigenvalues --    0.10401   0.10686   0.11594   0.11812   0.12148

  Beta  occ. eigenvalues --  -19.04833 -14.21490 -14.21077 -14.20298 -10.13326
  Beta  occ. eigenvalues --  -10.10653 -10.09783 -10.09672 -10.09647 -10.09467
  Beta  occ. eigenvalues --  -10.09306 -10.08017 -10.07929 -10.07802 -10.07728
  Beta  occ. eigenvalues --  -10.07683 -10.07338  -0.96413  -0.84855  -0.80754
  Beta  occ. eigenvalues --   -0.79845  -0.75123  -0.69709  -0.66650  -0.64889
  Beta  occ. eigenvalues --   -0.63392  -0.59898  -0.55601  -0.54648  -0.52554
  Beta  occ. eigenvalues --   -0.50672  -0.48336  -0.46919  -0.44404  -0.41074
  Beta  occ. eigenvalues --   -0.40674  -0.39521  -0.38297  -0.37565  -0.36663
  Beta  occ. eigenvalues --   -0.36401  -0.35288  -0.35010  -0.34387  -0.33223
  Beta  occ. eigenvalues --   -0.32277  -0.31075  -0.30696  -0.29469  -0.28873
  Beta  occ. eigenvalues --   -0.27834  -0.27236  -0.25898  -0.25653  -0.25203
  Beta  occ. eigenvalues --   -0.24999  -0.24068  -0.23271  -0.22940  -0.18609
  Beta  occ. eigenvalues --   -0.15423  -0.13967  -0.12505  -0.11953
  Beta virt. eigenvalues --    0.06110   0.06844   0.07091   0.07420   0.07876
  Beta virt. eigenvalues --    0.08229   0.08699   0.09360   0.09709   0.10006
  Beta virt. eigenvalues --    0.10020   0.10621   0.10972   0.11913   0.12060

 Mulliken charges and spin densities:
               1          2
     1  C    0.599494  -1.207967
     2  C   -0.162004   0.008724
     3  N    0.211268   0.026288
     4  C   -0.699364   0.480085
     5  C    0.936307  -1.545603
     6  N   -0.242198   0.218657
     7  C   -0.421757   0.149571
     8  C    0.013102  -0.464437
     9  C    0.286139  -0.719974
    10  C    0.106998   0.992018
    11  C   -0.368364   0.115896
    12  C    1.184519  -1.662378
    13  C    0.480815  -0.755629
    14  C    0.183353  -0.280718
    15  C   -1.570374   1.144199
    16  O   -0.273627  -0.010655
    17  N   -0.522843   0.077596
    18  H    0.035363   0.125849
    19  H   -0.251746   0.434914
    20  H    0.104369   0.007845
    21  H   -0.211512   0.340783
    22  H   -0.140605   0.274918
    23  H   -0.054611   0.184686
    24  H    0.028257   0.151249
    25  H   -0.312613   0.496224
    26  H    0.063440   0.155438
    27  H    0.053534   0.080912
    28  H    0.036029   0.074864
    29  H    0.036795   0.105092
    30  H   -0.155914   0.297608
    31  H    0.064376   0.107502
    32  H   -0.122174   0.280733
    33  H    0.442091  -0.244533
    34  H    0.149026   0.022424
    35  H    0.029504   0.112540
    36  H    0.208103   0.097507
    37  H   -0.229311   0.504827
    38  H   -0.513866   0.822947
 Sum of Mulliken charges =  -1.00000   1.00000

 Dipole moment (field-independent basis, Debye):
    X=              1.4557    Y=             -5.7708    Z=              1.5301  Tot=              6.1451
 Quadrupole moment (field-independent basis, Debye-Ang):
   XX=           -184.3773   YY=           -161.7684   ZZ=           -136.7242
   XY=             -7.3215   XZ=              1.2685   YZ=              2.9991

 Summary of Natural Population Analysis:

                                       Natural Population
                Natural  -----------------------------------------------
    Atom  No    Charge         Core      Valence    Rydberg      Total
 -----------------------------------------------------------------------
      C    1   -0.09232      0.99962     2.08128    0.01142     3.09232
      C    2   -0.09300      0.99961     2.08198    0.01141     3.09300
      N    3   -0.29097      0.99970     2.77872    0.01255     3.79097
      C    4   -0.09131      0.99961     2.08046    0.01124     3.09131
      C    5   -0.09349      0.99962     2.08129    0.01258     3.09349
      N    6   -0.33349      0.99976     2.82116    0.01257     3.83349
      C    7   -0.08370      0.99961     2.07388    0.01020     3.08370
      C    8   -0.18857      0.99962     2.18091    0.00803     3.18857
      C    9   -0.19636      0.99960     2.18765    0.00912     3.19636
      C   10   -0.02959      0.99951     2.01933    0.01075     3.02959
      C   11   -0.10077      0.99946     2.09086    0.01044     3.10077
      C   12    0.04169      0.99942     1.94724    0.01164     2.95831
      C   13    0.15170      0.99934     1.83406    0.01490     2.84830
      C   14   -0.12663      0.99953     2.11855    0.00855     3.12663
      C   15   -0.09839      0.99952     2.09090    0.00797     3.09839
      O   16   -0.34790      0.99988     3.34160    0.00642     4.34790
      N   17   -0.43796      0.99974     2.92601    0.01221     3.93796
      H   18    0.09181      0.00000     0.40644    0.00175     0.40819
      H   19    0.09514      0.00000     0.40394    0.00092     0.40486
      H   20    0.09807      0.00000     0.40033    0.00160     0.40193
      H   21    0.07727      0.00000     0.42065    0.00208     0.42273
      H   22    0.07753      0.00000     0.42078    0.00170     0.42247
      H   23    0.10021      0.00000     0.39829    0.00149     0.39979
      H   24    0.09203      0.00000     0.40578    0.00219     0.40797
      H   25    0.09728      0.00000     0.40159    0.00113     0.40272
      H   26    0.16796      0.00000     0.32952    0.00252     0.33204
      H   27    0.09978      0.00000     0.39880    0.00141     0.40022
      H   28    0.08367      0.00000     0.41518    0.00115     0.41633
      H   29    0.09669      0.00000     0.40233    0.00098     0.40331
      H   30    0.09621      0.00000     0.40259    0.00120     0.40379
      H   31    0.09916      0.00000     0.39989    0.00095     0.40084
      H   32    0.10455      0.00000     0.39378    0.00167     0.39545
      H   33    0.10770      0.00000     0.38949    0.00282     0.39230
      H   34    0.10177      0.00000     0.39712    0.00112     0.39823
      H   35    0.09654      0.00000     0.40255    0.00091     0.40346
      H   36    0.24705      0.00000     0.24937    0.00357     0.25295
      H   37    0.19001      0.00000     0.30618    0.00382     0.30999
      H   38    0.19063      0.00000     0.30273    0.00664     0.30937
 =======================================================================
   * Total *   -0.00000     16.99316    46.78323    0.22361    64.00000

 Normal termination of Gaussian 16 at Thu Dec 17 21:23:40 2020.
