 Gaussian 16, Revision A.03,

 -----------------------------------------------------------
 # opt freq B3LYP/6-31G(d) empiricaldispersion=gd3bj scf=xqc
 -----------------------------------------------------------

 -------------------------------
 CID_62054019_JID_10005_neutraal
 -------------------------------
 Symbolic Z-matrix:
 Charge =  0 Multiplicity = 1

 SCF Done:  E(RB3LYP) =  -1004.09435041     A.U. after   15 cycles
 SCF Done:  E(RB3LYP) =  -1004.11324547     A.U. after   14 cycles
 SCF Done:  E(RB3LYP) =  -1004.10738470     A.U. after   15 cycles
 SCF Done:  E(RB3LYP) =  -1004.11416631     A.U. after   13 cycles
 SCF Done:  E(RB3LYP) =  -1004.11534554     A.U. after   14 cycles
 SCF Done:  E(RB3LYP) =  -1004.11701872     A.U. after   13 cycles
 SCF Done:  E(RB3LYP) =  -1004.11818848     A.U. after   13 cycles
 SCF Done:  E(RB3LYP) =  -1004.12027521     A.U. after   13 cycles
 SCF Done:  E(RB3LYP) =  -1004.12301289     A.U. after   13 cycles
 SCF Done:  E(RB3LYP) =  -1004.12775454     A.U. after   16 cycles
 SCF Done:  E(RB3LYP) =  -1004.15319909     A.U. after    7 cycles
 SCF Done:  E(RB3LYP) =  -1004.15319915     A.U. after    7 cycles
 SCF Done:  E(RB3LYP) =  -1004.15319919     A.U. after    6 cycles
 SCF Done:  E(RB3LYP) =  -1004.15319922     A.U. after    6 cycles
 Optimization completed.
    -- Stationary point found.
 Normal termination of Gaussian 16 at Sun Dec 13 13:45:47 2020.

 --------------------------------------------------------------------
 #N Geom=AllCheck Guess=TCheck SCRF=Check GenChk RB3LYP/6-31G(d) Freq
 --------------------------------------------------------------------

 Structure from the checkpoint file:  "JID_10005.chk"
 -------------------------------
 CID_62054019_JID_10005_neutraal
 -------------------------------
 Charge =  0 Multiplicity = 1

 SCF Done:  E(RB3LYP) =  -1004.15319922     A.U. after    1 cycles

  Exact polarizability: 171.023   9.855 164.428 -17.341   8.677 126.070
 Approx polarizability: 246.851  23.314 248.039 -36.108  28.650 207.443

                      1                      2                      3
                      A                      A                      A
 Frequencies --     30.2936                34.5184                40.5838
 Red. masses --      6.8200                 4.8016                 5.1050
 Frc consts  --      0.0037                 0.0034                 0.0050
 IR Inten    --      3.2526                 2.1651                 0.4942

                      4                      5                      6
                      A                      A                      A
 Frequencies --     64.0148                70.5456                96.5464
 Red. masses --      4.3432                 5.7162                 2.0563
 Frc consts  --      0.0105                 0.0168                 0.0113
 IR Inten    --      1.8658                 4.1140                 3.1840

                      7                      8                      9
                      A                      A                      A
 Frequencies --    107.4429               117.4287               133.2922
 Red. masses --      2.7856                 2.8010                 5.7756
 Frc consts  --      0.0189                 0.0228                 0.0605
 IR Inten    --      1.6757                 2.0775                 0.5187

                     10                     11                     12
                      A                      A                      A
 Frequencies --    140.7465               172.2698               176.9011
 Red. masses --      3.7526                 2.4656                 3.6079
 Frc consts  --      0.0438                 0.0431                 0.0665
 IR Inten    --      1.4295                 7.6534                 0.1966

                     13                     14                     15
                      A                      A                      A
 Frequencies --    183.6690               200.3154               212.4720
 Red. masses --      3.3739                 6.6825                 3.6336
 Frc consts  --      0.0671                 0.1580                 0.0966
 IR Inten    --      1.0919                 2.9172                 0.4461

                     16                     17                     18
                      A                      A                      A
 Frequencies --    226.7530               237.7804               248.4015
 Red. masses --      1.1075                 1.1977                 1.5329
 Frc consts  --      0.0335                 0.0399                 0.0557
 IR Inten    --      0.0783                 0.1173                 0.5689

                     19                     20                     21
                      A                      A                      A
 Frequencies --    273.2781               275.0198               303.2076
 Red. masses --      4.1904                 1.6487                 3.4975
 Frc consts  --      0.1844                 0.0735                 0.1894
 IR Inten    --      1.2533                 0.4477                 3.5641

                     22                     23                     24
                      A                      A                      A
 Frequencies --    344.1148               361.3607               406.4295
 Red. masses --      4.3737                 6.7100                 4.1645
 Frc consts  --      0.3051                 0.5162                 0.4053
 IR Inten    --      0.5213                 3.0551                 3.7971

                     25                     26                     27
                      A                      A                      A
 Frequencies --    415.9550               462.7576               478.5421
 Red. masses --      4.0955                 3.5393                 3.7822
 Frc consts  --      0.4175                 0.4466                 0.5103
 IR Inten    --     15.4716                 7.5820                 4.0231

                     28                     29                     30
                      A                      A                      A
 Frequencies --    486.7887               525.7869               560.8254
 Red. masses --      3.3485                 2.1240                 3.3529
 Frc consts  --      0.4675                 0.3460                 0.6213
 IR Inten    --     64.4202                40.6919                28.2009

                     31                     32                     33
                      A                      A                      A
 Frequencies --    590.3934               596.8508               604.4277
 Red. masses --      1.7340                 1.3245                 2.2873
 Frc consts  --      0.3561                 0.2780                 0.4923
 IR Inten    --     29.6814                40.3855               130.2436

                     34                     35                     36
                      A                      A                      A
 Frequencies --    634.5383               679.8894               702.9893
 Red. masses --      4.0517                 3.8690                 4.1419
 Frc consts  --      0.9612                 1.0537                 1.2060
 IR Inten    --     13.5981                 8.3168                 6.3339

                     37                     38                     39
                      A                      A                      A
 Frequencies --    712.8630               731.7778               736.2022
 Red. masses --      7.0408                 5.3461                 5.9708
 Frc consts  --      2.1081                 1.6867                 1.9067
 IR Inten    --     23.4891                66.5194                25.7320

                     40                     41                     42
                      A                      A                      A
 Frequencies --    770.2570               784.4516               800.6250
 Red. masses --      6.8508                 3.4567                10.0443
 Frc consts  --      2.3948                 1.2533                 3.7934
 IR Inten    --      6.4588                 4.0491                10.3281

                     43                     44                     45
                      A                      A                      A
 Frequencies --    831.6014               904.7288               955.4631
 Red. masses --      3.1250                 2.6143                 1.1523
 Frc consts  --      1.2733                 1.2608                 0.6198
 IR Inten    --     12.2491                 0.7242                 3.4075

                     46                     47                     48
                      A                      A                      A
 Frequencies --    983.7829               988.8007              1004.3600
 Red. masses --      1.5542                 2.8353                 2.3445
 Frc consts  --      0.8862                 1.6333                 1.3934
 IR Inten    --      0.8062                 8.2719                 9.0787

                     49                     50                     51
                      A                      A                      A
 Frequencies --   1051.9592              1081.4009              1092.6007
 Red. masses --      4.1076                 3.0724                 1.8581
 Frc consts  --      2.6782                 2.1169                 1.3069
 IR Inten    --     44.3550                 9.0963                29.2932

                     52                     53                     54
                      A                      A                      A
 Frequencies --   1111.2607              1141.8555              1145.1915
 Red. masses --      1.7109                 2.3922                 2.7857
 Frc consts  --      1.2448                 1.8376                 2.1525
 IR Inten    --     19.2340                 5.3649               133.4577

                     55                     56                     57
                      A                      A                      A
 Frequencies --   1145.7337              1169.4968              1182.8981
 Red. masses --      2.6269                 1.2704                 2.8394
 Frc consts  --      2.0317                 1.0237                 2.3408
 IR Inten    --     71.5271                 2.6375               112.1643

                     58                     59                     60
                      A                      A                      A
 Frequencies --   1201.6379              1205.8264              1240.3536
 Red. masses --      2.6365                 2.1534                 2.9640
 Frc consts  --      2.2430                 1.8448                 2.6867
 IR Inten    --      6.8431                 6.8851                11.4631

                     61                     62                     63
                      A                      A                      A
 Frequencies --   1272.8298              1301.1065              1331.7412
 Red. masses --      2.1513                 2.4616                 2.1107
 Frc consts  --      2.0534                 2.4553                 2.2055
 IR Inten    --    168.5515                17.5765               117.4208

                     64                     65                     66
                      A                      A                      A
 Frequencies --   1347.1083              1355.8339              1373.2107
 Red. masses --      1.4340                 2.4175                 2.3152
 Frc consts  --      1.5332                 2.6183                 2.5722
 IR Inten    --      6.3109                24.1572                38.7031

                     67                     68                     69
                      A                      A                      A
 Frequencies --   1388.0219              1396.2274              1423.6812
 Red. masses --      2.0350                 2.0186                 1.2115
 Frc consts  --      2.3100                 2.3185                 1.4467
 IR Inten    --     33.4280                35.9366                 4.0744

                     70                     71                     72
                      A                      A                      A
 Frequencies --   1437.5980              1440.9285              1448.0904
 Red. masses --      1.7521                 1.6136                 1.5935
 Frc consts  --      2.1335                 1.9739                 1.9688
 IR Inten    --     14.7828                28.0916                 4.0403

                     73                     74                     75
                      A                      A                      A
 Frequencies --   1467.9424              1486.8716              1494.0933
 Red. masses --      1.5401                 1.2891                 3.0213
 Frc consts  --      1.9553                 1.6791                 3.9737
 IR Inten    --     14.1784                40.3961                78.2187

                     76                     77                     78
                      A                      A                      A
 Frequencies --   1514.1159              1518.8050              1522.9807
 Red. masses --      1.0499                 1.0605                 1.1069
 Frc consts  --      1.4182                 1.4413                 1.5126
 IR Inten    --     10.0762                13.4862                13.5606

                     79                     80                     81
                      A                      A                      A
 Frequencies --   1523.5830              1526.2165              1533.0220
 Red. masses --      1.0676                 1.7656                 1.0575
 Frc consts  --      1.4602                 2.4231                 1.4642
 IR Inten    --     14.3486               159.9558                 1.6921

                     82                     83                     84
                      A                      A                      A
 Frequencies --   1538.1448              1547.8561              1550.7212
 Red. masses --      1.0510                 1.0540                 1.2207
 Frc consts  --      1.4651                 1.4878                 1.7295
 IR Inten    --      4.3305                17.4804                 5.9060

                     85                     86                     87
                      A                      A                      A
 Frequencies --   1572.9966              1798.9880              1824.8412
 Red. masses --      4.2501                 8.6788                 9.0063
 Frc consts  --      6.1960                16.5487                17.6704
 IR Inten    --     11.5838               405.8953               315.0019

                     88                     89                     90
                      A                      A                      A
 Frequencies --   1839.1990              3048.2871              3056.8419
 Red. masses --      9.7701                 1.0414                 1.0394
 Frc consts  --     19.4718                 5.7012                 5.7226
 IR Inten    --    407.8706                44.2059                25.8330

                     91                     92                     93
                      A                      A                      A
 Frequencies --   3067.0473              3072.1173              3077.3273
 Red. masses --      1.0454                 1.0757                 1.0363
 Frc consts  --      5.7938                 5.9814                 5.7820
 IR Inten    --     32.3542                21.1387                13.0603

                     94                     95                     96
                      A                      A                      A
 Frequencies --   3118.2633              3118.7691              3136.4991
 Red. masses --      1.1024                 1.0985                 1.0849
 Frc consts  --      6.3159                 6.2955                 6.2881
 IR Inten    --     32.1551                11.0780                 3.8779

                     97                     98                     99
                      A                      A                      A
 Frequencies --   3141.3428              3153.2309              3164.3020
 Red. masses --      1.0961                 1.1010                 1.1029
 Frc consts  --      6.3728                 6.4496                 6.5064
 IR Inten    --     12.0653                11.3683                 8.5200

                    100                    101                    102
                      A                      A                      A
 Frequencies --   3166.4108              3170.6143              3172.8376
 Red. masses --      1.0994                 1.1029                 1.1032
 Frc consts  --      6.4947                 6.5327                 6.5433
 IR Inten    --      4.8984                 7.8072                 8.3377

                    103                    104                    105
                      A                      A                      A
 Frequencies --   3598.4603              3627.0686              3689.2691
 Red. masses --      1.0764                 1.0768                 1.0640
 Frc consts  --      8.2124                 8.3461                 8.5322
 IR Inten    --     36.0812                37.9591                77.3858

 - Thermochemistry -
 -------------------
 Temperature   298.150 Kelvin.  Pressure   1.00000 Atm.
 Atom     1 has atomic number  6 and mass  12.00000

 Molecular mass:   283.12805 amu.
 Principal axes and moments of inertia in atomic units:
                           1         2         3
     Eigenvalues --  3810.414796339.390597489.62760
           X            0.99846  -0.05083  -0.02204
           Y            0.05070   0.99869  -0.00663
           Z            0.02235   0.00550   0.99974
 This molecule is an asymmetric top.
 Rotational symmetry number  1.
 Warning -- assumption of classical behavior for rotation
           may cause significant error
 Rotational temperatures (Kelvin)      0.02273     0.01366     0.01156
 Rotational constants (GHZ):           0.47363     0.28469     0.24097
 Zero-point vibrational energy     786710.4 (Joules/Mol)
                                  188.02829 (Kcal/Mol)
 Warning -- explicit consideration of  33 degrees of freedom as
           vibrations may cause significant error
 Vibrational temperatures:     43.59    49.66    58.39    92.10   101.50
          (Kelvin)            138.91   154.59   168.95   191.78   202.50
                              247.86   254.52   264.26   288.21   305.70
                              326.25   342.11   357.39   393.19   395.69
                              436.25   495.10   519.92   584.76   598.47
                              665.80   688.52   700.38   756.49   806.90
                              849.44   858.74   869.64   912.96   978.21
                             1011.44  1025.65  1052.87  1059.23  1108.23
                             1128.65  1151.92  1196.49  1301.70  1374.70
                             1415.44  1422.66  1445.05  1513.53  1555.89
                             1572.01  1598.86  1642.88  1647.68  1648.46
                             1682.65  1701.93  1728.89  1734.92  1784.59
                             1831.32  1872.00  1916.08  1938.19  1950.74
                             1975.74  1997.05  2008.86  2048.36  2068.38
                             2073.17  2083.48  2112.04  2139.28  2149.67
                             2178.48  2185.22  2191.23  2192.10  2195.89
                             2205.68  2213.05  2227.02  2231.14  2263.19
                             2588.34  2625.54  2646.20  4385.81  4398.11
                             4412.80  4420.09  4427.59  4486.49  4487.21
                             4512.72  4519.69  4536.80  4552.72  4555.76
                             4561.81  4565.01  5177.38  5218.54  5308.04

 Zero-point correction=                           0.299642 (Hartree/Particle)
 Thermal correction to Energy=                    0.320438
 Thermal correction to Enthalpy=                  0.321382
 Thermal correction to Gibbs Free Energy=         0.249451
 Sum of electronic and zero-point Energies=          -1003.853557
 Sum of electronic and thermal Energies=             -1003.832762
 Sum of electronic and thermal Enthalpies=           -1003.831817
 Sum of electronic and thermal Free Energies=        -1003.903748

                     E (Thermal)             CV                S
                      KCal/Mol        Cal/Mol-Kelvin    Cal/Mol-Kelvin
 Total                  201.078             75.606            151.390
 Electronic               0.000              0.000              0.000
 Translational            0.889              2.981             42.820
 Rotational               0.889              2.981             33.558
 Vibrational            199.300             69.644             75.012
 Vibration     1          0.594              1.984              5.810
 Vibration     2          0.594              1.983              5.551
 Vibration     3          0.594              1.981              5.230
 Vibration     4          0.597              1.971              4.329
 Vibration     5          0.598              1.968              4.138
 Vibration     6          0.603              1.952              3.523
 Vibration     7          0.606              1.943              3.315
 Vibration     8          0.608              1.935              3.142
 Vibration     9          0.613              1.920              2.898
 Vibration    10          0.615              1.913              2.794
 Vibration    11          0.626              1.877              2.411
 Vibration    12          0.628              1.871              2.361
 Vibration    13          0.631              1.862              2.291
 Vibration    14          0.638              1.839              2.130
 Vibration    15          0.644              1.822              2.022
 Vibration    16          0.650              1.800              1.905
 Vibration    17          0.656              1.783              1.819
 Vibration    18          0.662              1.765              1.742
 Vibration    19          0.676              1.723              1.575
 Vibration    20          0.677              1.720              1.564
 Vibration    21          0.695              1.668              1.399
 Vibration    22          0.723              1.587              1.193
 Vibration    23          0.736              1.552              1.116
 Vibration    24          0.771              1.456              0.939
 Vibration    25          0.779              1.436              0.906
 Vibration    26          0.820              1.333              0.758
 Vibration    27          0.835              1.298              0.714
 Vibration    28          0.843              1.279              0.692
 Vibration    29          0.881              1.193              0.597
 Vibration    30          0.916              1.116              0.522
 Vibration    31          0.948              1.052              0.466
 Vibration    32          0.955              1.038              0.455
 Vibration    33          0.963              1.022              0.442

 Optimization completed.
    -- Stationary point found.
 Normal termination of Gaussian 16 at Sun Dec 13 14:10:19 2020.

 ----------------------------------------------------------------------
 # B3LYP/6-311++G(d,p) empiricaldispersion=gd3bj scf=xqc pop=npa geom=c
 heck
 ----------------------------------------------------------------------

 ---------------------------------------
 CID_62054019_JID_10005_Energie_neutraal
 ---------------------------------------
 Structure from the checkpoint file:  "JID_10005.chk"
 Charge =  0 Multiplicity = 1

 SCF Done:  E(RB3LYP) =  -1004.45052040     A.U. after   16 cycles
 Normal termination of Gaussian 16 at Sun Dec 13 14:21:12 2020.

 ----------------------------------------------------------------------
 # B3LYP/6-311++G(d,p) empiricaldispersion=gd3bj scf=xqc pop=npa geom=c
 heck
 ----------------------------------------------------------------------

 -------------------------------------
 CID_62054019_JID_10005_Energie_kation
 -------------------------------------
 Structure from the checkpoint file:  "JID_10005.chk"
 Charge =  1 Multiplicity = 2

 SCF Done:  E(UB3LYP) =  -1004.11452691     A.U. after   33 cycles
 SCF Done:  E(UB3LYP) =  -1004.11452691     a.u. after    1 cycles
 Normal termination of Gaussian 16 at Sun Dec 13 14:52:11 2020.
 Gaussian 16:  ES64L-G16RevA.03 25-Dec-2016

 ----------------------------------------------------------------------
 # B3LYP/6-311++G(d,p) empiricaldispersion=gd3bj scf=xqc pop=npa geom=c
 heck
 ----------------------------------------------------------------------

 ------------------------------------
 CID_62054019_JID_10005_Energie_anion
 ------------------------------------
 Structure from the checkpoint file:  "JID_10005.chk"
 Charge = -1 Multiplicity = 2

                         Standard orientation:
 ---------------------------------------------------------------------
 Center     Atomic      Atomic             Coordinates (Angstroms)
 Number     Number       Type             X           Y           Z
 ---------------------------------------------------------------------
      1          6           0        1.971452   -0.649993   -2.265340
      2          6           0        1.537299   -1.450414   -1.025049
      3          6           0        2.645223   -2.383542   -0.501649
      4          6           0        1.014233   -0.556238    0.067326
      5          6           0        1.540595    0.515679    0.795201
      6          7           0        0.591435    0.965355    1.676916
      7          7           0       -0.474026    0.244983    1.557353
      8          7           0       -0.239476   -0.677682    0.576515
      9          6           0       -1.322644   -1.601301    0.223986
     10          6           0       -1.294890   -2.846231    1.103470
     11          6           0       -2.665858   -0.858846    0.350574
     12          8           0       -3.579795   -1.289920    1.023311
     13          7           0       -2.788890    0.348956   -0.320839
     14          6           0       -1.885187    0.904984   -1.246066
     15          8           0       -1.226730    0.216197   -2.016471
     16          7           0       -1.845255    2.266628   -1.223236
     17          6           0       -2.184217    3.085132   -0.060006
     18          6           0        2.837989    1.207930    0.768734
     19          8           0        3.078408    2.256612    1.324324
     20          8           0        3.787549    0.544416    0.047982
     21          1           0        2.825688   -0.009054   -2.039167
     22          1           0        1.141156   -0.037502   -2.624945
     23          1           0        2.263591   -1.344414   -3.060903
     24          1           0        0.702302   -2.085430   -1.338489
     25          1           0        3.516497   -1.810162   -0.179558
     26          1           0        2.291257   -2.981011    0.346001
     27          1           0        2.953782   -3.070090   -1.297548
     28          1           0       -1.192627   -1.850001   -0.829996
     29          1           0       -1.412775   -2.570502    2.153711
     30          1           0       -2.112864   -3.516300    0.829904
     31          1           0       -0.343119   -3.370107    0.973372
     32          1           0       -3.581556    0.899143   -0.013020
     33          1           0       -1.183376    2.642142   -1.888633
     34          1           0       -1.764326    2.662486    0.858130
     35          1           0       -1.765393    4.081332   -0.212187
     36          1           0       -3.269593    3.197489    0.051458
     37          1           0        4.585415    1.102908    0.104652
 ---------------------------------------------------------------------

 SCF Done:  E(UB3LYP) =  -1004.44709832     A.U. after   33 cycles
 SCF Done:  E(UB3LYP) =  -1004.44709832     a.u. after    1 cycles

 The electronic state is 2-A.
 Alpha  occ. eigenvalues --  -19.05928 -18.99789 -18.99032 -18.98517 -14.29023
 Alpha  occ. eigenvalues --  -14.26016 -14.24744 -14.23827 -14.22683 -10.20191
 Alpha  occ. eigenvalues --  -10.17759 -10.17647 -10.13529 -10.11129 -10.10138
 Alpha  occ. eigenvalues --  -10.09715 -10.08869 -10.07934 -10.07202 -10.05700
 Alpha  occ. eigenvalues --   -0.99645  -0.98916  -0.96273  -0.94439  -0.89938
 Alpha  occ. eigenvalues --   -0.84041  -0.82205  -0.80399  -0.73319  -0.68421
 Alpha  occ. eigenvalues --   -0.67714  -0.61215  -0.59340  -0.58894  -0.57151
 Alpha  occ. eigenvalues --   -0.54689  -0.52533  -0.50748  -0.47647  -0.45276
 Alpha  occ. eigenvalues --   -0.43586  -0.42226  -0.40014  -0.39443  -0.38299
 Alpha  occ. eigenvalues --   -0.38151  -0.37310  -0.35880  -0.35367  -0.34895
 Alpha  occ. eigenvalues --   -0.34233  -0.33363  -0.32713  -0.31756  -0.31650
 Alpha  occ. eigenvalues --   -0.30638  -0.29929  -0.29573  -0.29346  -0.28964
 Alpha  occ. eigenvalues --   -0.28750  -0.27875  -0.26982  -0.25379  -0.24271
 Alpha  occ. eigenvalues --   -0.22858  -0.21609  -0.19411  -0.18531  -0.17835
 Alpha  occ. eigenvalues --   -0.17037  -0.16523  -0.16169  -0.16011  -0.14938
 Alpha  occ. eigenvalues --    0.04479
 Alpha virt. eigenvalues --    0.06381   0.06573   0.07325   0.07715   0.08472
 Alpha virt. eigenvalues --    0.08750   0.08862   0.09843   0.10264   0.10497
 Alpha virt. eigenvalues --    0.11660   0.12095   0.12331   0.13003   0.13534

  Beta  occ. eigenvalues --  -19.05895 -18.99649 -18.98986 -18.98349 -14.28961
  Beta  occ. eigenvalues --  -14.26069 -14.24753 -14.23808 -14.22646 -10.20122
  Beta  occ. eigenvalues --  -10.17582 -10.17428 -10.13541 -10.10886 -10.10080
  Beta  occ. eigenvalues --  -10.09730 -10.08865 -10.07933 -10.07186 -10.05678
  Beta  occ. eigenvalues --   -0.99491  -0.98824  -0.96122  -0.94227  -0.89689
  Beta  occ. eigenvalues --   -0.83962  -0.82090  -0.80320  -0.73123  -0.68354
  Beta  occ. eigenvalues --   -0.67632  -0.61088  -0.59297  -0.58714  -0.56901
  Beta  occ. eigenvalues --   -0.54527  -0.52429  -0.50548  -0.47578  -0.45195
  Beta  occ. eigenvalues --   -0.43466  -0.42116  -0.39850  -0.39315  -0.38098
  Beta  occ. eigenvalues --   -0.37937  -0.37172  -0.35767  -0.35196  -0.34817
  Beta  occ. eigenvalues --   -0.33892  -0.32939  -0.32622  -0.31662  -0.31358
  Beta  occ. eigenvalues --   -0.30539  -0.29848  -0.29517  -0.29235  -0.28781
  Beta  occ. eigenvalues --   -0.28636  -0.27524  -0.26838  -0.25314  -0.24222
  Beta  occ. eigenvalues --   -0.22829  -0.21008  -0.19220  -0.18220  -0.17586
  Beta  occ. eigenvalues --   -0.16938  -0.16362  -0.16111  -0.15867  -0.14397
  Beta virt. eigenvalues --    0.06477   0.07444   0.07701   0.08301   0.08588
  Beta virt. eigenvalues --    0.08773   0.09112   0.09440   0.10169   0.10517
  Beta virt. eigenvalues --    0.10637   0.11617   0.12148   0.12335   0.13092

 Mulliken charges and spin densities:
               1          2
     1  C   -0.580298  -0.137926
     2  C    0.564479   0.017267
     3  C   -0.680552  -0.005526
     4  C   -0.653570   0.254912
     5  C   -0.486480   0.041382
     6  N   -0.053667   0.055240
     7  N    0.034394  -0.072004
     8  N    0.547820   0.024075
     9  C   -0.008314   0.043869
    10  C   -0.495308  -0.011182
    11  C   -0.078549  -0.025059
    12  O   -0.284473   0.040193
    13  N   -0.126656  -0.046557
    14  C    0.006308  -0.249448
    15  O   -0.333988   0.028765
    16  N   -0.315440   0.223146
    17  C    0.787505  -1.141677
    18  C    0.379691   0.070631
    19  O   -0.325746   0.061541
    20  O   -0.262795   0.008202
    21  H    0.071699   0.087566
    22  H    0.171022   0.028685
    23  H    0.114465   0.015321
    24  H    0.148287   0.002953
    25  H    0.152331   0.003667
    26  H    0.139254   0.003179
    27  H    0.133531   0.002190
    28  H    0.178938   0.012514
    29  H    0.201894   0.010268
    30  H    0.167478   0.000813
    31  H    0.108324  -0.001586
    32  H    0.240123   0.080115
    33  H   -0.029148   0.341599
    34  H    0.095845   0.089023
    35  H   -0.498823   0.655514
    36  H   -0.340288   0.479977
    37  H    0.310705   0.008359
 Sum of Mulliken charges =  -1.00000   1.00000

 Dipole moment (field-independent basis, Debye):
    X=              3.4294    Y=             -7.6104    Z=             -2.1848  Tot=              8.6286
 Quadrupole moment (field-independent basis, Debye-Ang):
   XX=           -164.4214   YY=           -161.5968   ZZ=           -152.0393
   XY=             -2.9093   XZ=             -2.6215   YZ=             -1.5567

 Summary of Natural Population Analysis:

                                       Natural Population
                Natural  -----------------------------------------------
    Atom  No    Charge         Core      Valence    Rydberg      Total
 -----------------------------------------------------------------------
      C    1   -0.28490      0.99964     2.27861    0.00664     3.28490
      C    2   -0.13046      0.99959     2.12221    0.00866     3.13046
      C    3   -0.27820      0.99965     2.27434    0.00422     3.27820
      C    4    0.15686      0.99948     1.83021    0.01345     2.84314
      C    5   -0.02539      0.99942     2.01175    0.01422     3.02539
      N    6   -0.10428      0.99973     2.59117    0.01338     3.60428
      N    7   -0.06418      0.99977     2.54821    0.01619     3.56418
      N    8   -0.10743      0.99960     2.59283    0.01500     3.60743
      C    9   -0.05132      0.99955     2.03938    0.01239     3.05132
      C   10   -0.28523      0.99965     2.28072    0.00486     3.28523
      C   11    0.37799      0.99968     1.59784    0.02449     2.62201
      O   12   -0.29220      0.99987     3.28682    0.00550     4.29220
      N   13   -0.33926      0.99963     2.83162    0.00800     3.83926
      C   14    0.41611      0.99969     1.56050    0.02370     2.58389
      O   15   -0.33329      0.99987     3.32784    0.00558     4.33329
      N   16   -0.31935      0.99968     2.80860    0.01107     3.81935
      C   17   -0.18554      0.99964     2.17734    0.00856     3.18554
      C   18    0.41143      0.99967     1.56447    0.02444     2.58857
      O   19   -0.29028      0.99987     3.28455    0.00586     4.29028
      O   20   -0.35718      0.99988     3.35039    0.00692     4.35718
      H   21    0.10535      0.00000     0.39355    0.00110     0.39465
      H   22    0.11551      0.00000     0.38349    0.00099     0.38449
      H   23    0.09099      0.00000     0.40832    0.00069     0.40901
      H   24    0.09839      0.00000     0.39993    0.00169     0.40161
      H   25    0.10957      0.00000     0.38961    0.00082     0.39043
      H   26    0.09556      0.00000     0.40369    0.00075     0.40444
      H   27    0.09310      0.00000     0.40615    0.00075     0.40690
      H   28    0.12336      0.00000     0.37488    0.00176     0.37664
      H   29    0.10983      0.00000     0.38932    0.00085     0.39017
      H   30    0.10609      0.00000     0.39318    0.00074     0.39391
      H   31    0.09698      0.00000     0.40224    0.00078     0.40302
      H   32    0.20387      0.00000     0.29350    0.00263     0.29613
      H   33    0.19898      0.00000     0.29826    0.00276     0.30102
      H   34    0.10783      0.00000     0.39065    0.00152     0.39217
      H   35    0.10566      0.00000     0.39198    0.00236     0.39434
      H   36    0.08947      0.00000     0.40905    0.00148     0.41053
      H   37    0.23556      0.00000     0.26076    0.00368     0.26444
 =======================================================================
   * Total *    0.00000     19.99357    54.74794    0.25848    75.00000

 Normal termination of Gaussian 16 at Sun Dec 13 15:22:26 2020.
