 Gaussian 16, Revision A.03,

 -----------------------------------------------------------
 # opt freq B3LYP/6-31G(d) empiricaldispersion=gd3bj scf=xqc
 -----------------------------------------------------------

 ------------------------------
 CID_65910354_JID_9047_neutraal
 ------------------------------
 Symbolic Z-matrix:
 Charge =  0 Multiplicity = 1

 SCF Done:  E(RB3LYP) =  -843.679604307     A.U. after   15 cycles
 SCF Done:  E(RB3LYP) =  -843.689148474     A.U. after   12 cycles
 SCF Done:  E(RB3LYP) =  -843.690213765     A.U. after   12 cycles
 SCF Done:  E(RB3LYP) =  -843.690422031     A.U. after   11 cycles
 SCF Done:  E(RB3LYP) =  -843.690465015     A.U. after   11 cycles
 SCF Done:  E(RB3LYP) =  -843.690500235     A.U. after   10 cycles
 SCF Done:  E(RB3LYP) =  -843.690513127     A.U. after   10 cycles
 SCF Done:  E(RB3LYP) =  -843.690519863     A.U. after    9 cycles
 SCF Done:  E(RB3LYP) =  -843.690521574     A.U. after    9 cycles
 SCF Done:  E(RB3LYP) =  -843.690522042     A.U. after    7 cycles
 SCF Done:  E(RB3LYP) =  -843.690522335     A.U. after    7 cycles
 SCF Done:  E(RB3LYP) =  -843.690522582     A.U. after    7 cycles
 SCF Done:  E(RB3LYP) =  -843.690522776     A.U. after    7 cycles
 Optimization completed.
    -- Stationary point found.
 Normal termination of Gaussian 16 at Sun Dec 13 12:31:41 2020.

 --------------------------------------------------------------------
 #N Geom=AllCheck Guess=TCheck SCRF=Check GenChk RB3LYP/6-31G(d) Freq
 --------------------------------------------------------------------

 Structure from the checkpoint file:  "JID_9047.chk"
 ------------------------------
 CID_65910354_JID_9047_neutraal
 ------------------------------
 Charge =  0 Multiplicity = 1

 SCF Done:  E(RB3LYP) =  -843.690522776     A.U. after    1 cycles

  Exact polarizability: 239.804  12.451 170.376  -9.879   4.541 113.895
 Approx polarizability: 321.259  30.882 282.652 -19.458   7.616 164.983

                      1                      2                      3
                      A                      A                      A
 Frequencies --     22.6089                31.9468                52.2650
 Red. masses --      4.3904                 4.1149                 4.0757
 Frc consts  --      0.0013                 0.0025                 0.0066
 IR Inten    --      0.4501                 0.3252                 0.4392

                      4                      5                      6
                      A                      A                      A
 Frequencies --     74.3762               101.8144               129.9908
 Red. masses --      3.6925                 4.4270                 3.0687
 Frc consts  --      0.0120                 0.0270                 0.0306
 IR Inten    --      0.4661                 0.1553                 0.2987

                      7                      8                      9
                      A                      A                      A
 Frequencies --    131.6175               200.1630               202.2900
 Red. masses --      2.6247                 3.1843                 4.7398
 Frc consts  --      0.0268                 0.0752                 0.1143
 IR Inten    --      0.3286                 0.8139                 0.4751

                     10                     11                     12
                      A                      A                      A
 Frequencies --    219.5458               261.7035               288.0356
 Red. masses --      2.9629                 6.6635                 2.8092
 Frc consts  --      0.0841                 0.2689                 0.1373
 IR Inten    --      0.5302                 0.6378                 3.5232

                     13                     14                     15
                      A                      A                      A
 Frequencies --    305.1771               336.9818               352.7230
 Red. masses --      2.4237                 3.1107                 2.6809
 Frc consts  --      0.1330                 0.2081                 0.1965
 IR Inten    --      2.2453                 1.7606                 1.2980

                     16                     17                     18
                      A                      A                      A
 Frequencies --    369.4749               389.1056               416.9083
 Red. masses --      3.8161                 2.9572                 2.1825
 Frc consts  --      0.3069                 0.2638                 0.2235
 IR Inten    --     24.1432                 0.9522                13.4760

                     19                     20                     21
                      A                      A                      A
 Frequencies --    440.7067               449.2703               462.5848
 Red. masses --      2.3290                 1.5390                 2.2010
 Frc consts  --      0.2665                 0.1830                 0.2775
 IR Inten    --     50.9887                85.4810                38.0131

                     22                     23                     24
                      A                      A                      A
 Frequencies --    511.0067               524.0318               546.5977
 Red. masses --      3.7131                 2.1013                 1.9029
 Frc consts  --      0.5713                 0.3400                 0.3350
 IR Inten    --      1.6882                 0.4690                98.3399

                     25                     26                     27
                      A                      A                      A
 Frequencies --    588.1006               625.3596               629.7106
 Red. masses --      3.9058                 5.2504                 3.0826
 Frc consts  --      0.7959                 1.2098                 0.7202
 IR Inten    --     31.1912                 0.3871                 1.6528

                     28                     29                     30
                      A                      A                      A
 Frequencies --    635.7839               714.1657               724.3882
 Red. masses --      2.1148                 4.3167                 7.8850
 Frc consts  --      0.5037                 1.2972                 2.4378
 IR Inten    --      9.3641                 1.0637                13.7385

                     31                     32                     33
                      A                      A                      A
 Frequencies --    730.8815               744.4330               760.3501
 Red. masses --      2.9657                10.3083                 1.2866
 Frc consts  --      0.9334                 3.3658                 0.4383
 IR Inten    --      0.9618                10.7494                 2.8159

                     34                     35                     36
                      A                      A                      A
 Frequencies --    798.1612               810.6262               818.0536
 Red. masses --      1.4742                 2.3251                 1.9073
 Frc consts  --      0.5533                 0.9002                 0.7520
 IR Inten    --     23.7156                10.0244                26.8212

                     37                     38                     39
                      A                      A                      A
 Frequencies --    829.5263               856.7163               873.6393
 Red. masses --      3.2766                 3.1008                 7.3209
 Frc consts  --      1.3284                 1.3409                 3.2921
 IR Inten    --      3.0470                 2.7467                 7.3188

                     40                     41                     42
                      A                      A                      A
 Frequencies --    879.6244               917.0690               937.5310
 Red. masses --      1.5780                 1.2633                 2.1629
 Frc consts  --      0.7194                 0.6260                 1.1201
 IR Inten    --      0.6859                 1.1372                13.5783

                     43                     44                     45
                      A                      A                      A
 Frequencies --    945.0084               946.0691               976.2158
 Red. masses --      6.2448                 1.7065                 2.1510
 Frc consts  --      3.2858                 0.8999                 1.2078
 IR Inten    --     70.4197                 7.2821                 4.6392

                     46                     47                     48
                      A                      A                      A
 Frequencies --    987.2933               996.0022              1035.3423
 Red. masses --      2.3315                 1.9923                 2.0556
 Frc consts  --      1.3390                 1.1644                 1.2982
 IR Inten    --     13.9697                 5.4169                 0.6137

                     49                     50                     51
                      A                      A                      A
 Frequencies --   1053.6914              1084.0216              1087.5806
 Red. masses --      1.7608                 1.7791                 1.4836
 Frc consts  --      1.1518                 1.2318                 1.0339
 IR Inten    --      0.1022                 2.8883                11.2643

                     52                     53                     54
                      A                      A                      A
 Frequencies --   1115.7413              1121.3042              1151.7745
 Red. masses --      3.6627                 2.9722                 2.1518
 Frc consts  --      2.6865                 2.2018                 1.6818
 IR Inten    --      6.5269                17.8911                 0.3252

                     55                     56                     57
                      A                      A                      A
 Frequencies --   1170.2666              1178.1836              1212.7590
 Red. masses --      1.7251                 1.8590                 1.3187
 Frc consts  --      1.3920                 1.5204                 1.1427
 IR Inten    --     19.7859                13.4528                11.6401

                     58                     59                     60
                      A                      A                      A
 Frequencies --   1233.8445              1241.6584              1246.2490
 Red. masses --      1.7489                 1.4315                 1.1516
 Frc consts  --      1.5687                 1.3003                 1.0538
 IR Inten    --    101.2221                 0.1638                 2.0341

                     61                     62                     63
                      A                      A                      A
 Frequencies --   1257.9231              1278.0358              1287.3100
 Red. masses --      1.1776                 1.4118                 2.2659
 Frc consts  --      1.0979                 1.3586                 2.2124
 IR Inten    --      6.5961                 0.9568               192.3027

                     64                     65                     66
                      A                      A                      A
 Frequencies --   1297.9341              1322.0652              1332.0370
 Red. masses --      2.5788                 1.1581                 1.1335
 Frc consts  --      2.5596                 1.1926                 1.1850
 IR Inten    --      7.5133                 0.8341                 3.3241

                     67                     68                     69
                      A                      A                      A
 Frequencies --   1340.0658              1356.8255              1372.3078
 Red. masses --      1.5018                 1.7620                 2.6552
 Frc consts  --      1.5890                 1.9112                 2.9461
 IR Inten    --     17.6502                50.5463                29.5125

                     70                     71                     72
                      A                      A                      A
 Frequencies --   1379.4219              1384.3662              1388.9808
 Red. masses --      1.3260                 2.4527                 1.4665
 Frc consts  --      1.4866                 2.7695                 1.6670
 IR Inten    --      2.1219                25.5369                22.2509

                     73                     74                     75
                      A                      A                      A
 Frequencies --   1404.2313              1408.4690              1416.0909
 Red. masses --      1.4072                 1.4707                 1.4290
 Frc consts  --      1.6348                 1.7190                 1.6883
 IR Inten    --      3.2771                 4.9368                 4.6701

                     76                     77                     78
                      A                      A                      A
 Frequencies --   1422.3499              1425.9673              1439.5005
 Red. masses --      1.4243                 1.4061                 1.5512
 Frc consts  --      1.6977                 1.6846                 1.8938
 IR Inten    --      3.4654                 1.8561                 0.9581

                     79                     80                     81
                      A                      A                      A
 Frequencies --   1512.1337              1514.7272              1517.5966
 Red. masses --      1.1308                 1.0916                 2.1887
 Frc consts  --      1.5234                 1.4756                 2.9700
 IR Inten    --      1.7812                 0.5568                19.9308

                     82                     83                     84
                      A                      A                      A
 Frequencies --   1518.2075              1522.8192              1531.6108
 Red. masses --      1.0890                 1.1920                 1.1300
 Frc consts  --      1.4789                 1.6286                 1.5618
 IR Inten    --     12.1563                10.3032                12.0533

                     85                     86                     87
                      A                      A                      A
 Frequencies --   1539.1050              1549.1430              1554.4682
 Red. masses --      1.1045                 1.8913                 1.8625
 Frc consts  --      1.5416                 2.6742                 2.6516
 IR Inten    --     29.0544               223.3968               130.9030

                     88                     89                     90
                      A                      A                      A
 Frequencies --   1565.3837              1671.7772              1694.0603
 Red. masses --      1.3335                 6.9646                 7.0142
 Frc consts  --      1.9252                11.4685                11.8601
 IR Inten    --      8.7175                21.5769               153.1627

                     91                     92                     93
                      A                      A                      A
 Frequencies --   1910.1638              2964.7048              2989.7401
 Red. masses --     11.6373                 1.0749                 1.0808
 Frc consts  --     25.0176                 5.5666                 5.6918
 IR Inten    --    973.3500                51.0535                29.4419

                     94                     95                     96
                      A                      A                      A
 Frequencies --   3027.3050              3027.6336              3032.8498
 Red. masses --      1.0629                 1.0621                 1.0675
 Frc consts  --      5.7393                 5.7364                 5.7850
 IR Inten    --     13.5687                31.8347                14.0015

                     97                     98                     99
                      A                      A                      A
 Frequencies --   3034.7330              3042.4131              3055.8335
 Red. masses --      1.0635                 1.0668                 1.0726
 Frc consts  --      5.7707                 5.8181                 5.9015
 IR Inten    --     33.7807                37.5231                28.8186

                    100                    101                    102
                      A                      A                      A
 Frequencies --   3056.5566              3062.4475              3070.4436
 Red. masses --      1.0942                 1.1004                 1.0910
 Frc consts  --      6.0227                 6.0804                 6.0600
 IR Inten    --     16.3542                31.1741                81.4023

                    103                    104                    105
                      A                      A                      A
 Frequencies --   3074.0515              3075.6638              3086.2079
 Red. masses --      1.1004                 1.0956                 1.0953
 Frc consts  --      6.1269                 6.1064                 6.1468
 IR Inten    --     68.7204                39.3282                47.6170

                    106                    107                    108
                      A                      A                      A
 Frequencies --   3095.6759              3188.5414              3229.3769
 Red. masses --      1.0978                 1.0890                 1.0936
 Frc consts  --      6.1987                 6.5232                 6.7195
 IR Inten    --     91.5140                11.7622                 6.1877

                    109                    110                    111
                      A                      A                      A
 Frequencies --   3235.8834              3574.5722              3680.7612
 Red. masses --      1.0903                 1.0752                 1.0801
 Frc consts  --      6.7262                 8.0948                 8.6216
 IR Inten    --      5.9404                 9.5141                64.7395

 - Thermochemistry -
 -------------------
 Temperature   298.150 Kelvin.  Pressure   1.00000 Atm.
 Atom     1 has atomic number  6 and mass  12.00000

 Molecular mass:   260.15248 amu.
 Principal axes and moments of inertia in atomic units:
                           1         2         3
     Eigenvalues --  1964.44182********************
           X            0.99996  -0.00853   0.00234
           Y            0.00850   0.99990   0.01101
           Z           -0.00243  -0.01099   0.99994
 This molecule is an asymmetric top.
 Rotational symmetry number  1.
 Warning -- assumption of classical behavior for rotation
           may cause significant error
 Rotational temperatures (Kelvin)      0.04409     0.00674     0.00637
 Rotational constants (GHZ):           0.91870     0.14037     0.13271
 Zero-point vibrational energy     886424.0 (Joules/Mol)
                                  211.86043 (Kcal/Mol)
 Warning -- explicit consideration of  25 degrees of freedom as
           vibrations may cause significant error
 Vibrational temperatures:     32.53    45.96    75.20   107.01   146.49
          (Kelvin)            187.03   189.37   287.99   291.05   315.88
                              376.53   414.42   439.08   484.84   507.49
                              531.59   559.84   599.84   634.08   646.40
                              665.56   735.22   753.96   786.43   846.15
                              899.75   906.01   914.75  1027.53  1042.23
                             1051.58  1071.07  1093.97  1148.38  1166.31
                             1177.00  1193.50  1232.62  1256.97  1265.58
                             1319.46  1348.90  1359.66  1361.18  1404.56
                             1420.49  1433.03  1489.63  1516.03  1559.67
                             1564.79  1605.30  1613.31  1657.15  1683.75
                             1695.14  1744.89  1775.23  1786.47  1793.07
                             1809.87  1838.81  1852.15  1867.44  1902.16
                             1916.50  1928.06  1952.17  1974.44  1984.68
                             1991.79  1998.43  2020.38  2026.47  2037.44
                             2046.44  2051.65  2071.12  2175.62  2179.35
                             2183.48  2184.36  2191.00  2203.65  2214.43
                             2228.87  2236.53  2252.24  2405.31  2437.38
                             2748.30  4265.55  4301.57  4355.62  4356.09
                             4363.59  4366.30  4377.35  4396.66  4397.70
                             4406.18  4417.68  4422.87  4425.19  4440.36
                             4453.99  4587.60  4646.35  4655.71  5143.01
                             5295.79

 Zero-point correction=                           0.337621 (Hartree/Particle)
 Thermal correction to Energy=                    0.354348
 Thermal correction to Enthalpy=                  0.355292
 Thermal correction to Gibbs Free Energy=         0.291901
 Sum of electronic and zero-point Energies=           -843.352902
 Sum of electronic and thermal Energies=              -843.336175
 Sum of electronic and thermal Enthalpies=            -843.335230
 Sum of electronic and thermal Free Energies=         -843.398622

                     E (Thermal)             CV                S
                      KCal/Mol        Cal/Mol-Kelvin    Cal/Mol-Kelvin
 Total                  222.357             66.608            133.418
 Electronic               0.000              0.000              0.000
 Translational            0.889              2.981             42.568
 Rotational               0.889              2.981             34.195
 Vibrational            220.579             60.647             56.655
 Vibration     1          0.593              1.985              6.391
 Vibration     2          0.594              1.983              5.705
 Vibration     3          0.596              1.977              4.730
 Vibration     4          0.599              1.966              4.034
 Vibration     5          0.604              1.948              3.419
 Vibration     6          0.612              1.923              2.946
 Vibration     7          0.612              1.922              2.922
 Vibration     8          0.638              1.840              2.132
 Vibration     9          0.639              1.837              2.112
 Vibration    10          0.647              1.811              1.963
 Vibration    11          0.669              1.743              1.650
 Vibration    12          0.685              1.696              1.485
 Vibration    13          0.696              1.664              1.388
 Vibration    14          0.718              1.602              1.226
 Vibration    15          0.729              1.570              1.154
 Vibration    16          0.742              1.535              1.082
 Vibration    17          0.757              1.493              1.004
 Vibration    18          0.780              1.434              0.903
 Vibration    19          0.801              1.381              0.824
 Vibration    20          0.808              1.362              0.798
 Vibration    21          0.820              1.333              0.759
 Vibration    22          0.866              1.226              0.631
 Vibration    23          0.879              1.197              0.601
 Vibration    24          0.902              1.147              0.551
 Vibration    25          0.945              1.057              0.471

                           ! Non-Optimized Parameters !
 Normal termination of Gaussian 16 at Sun Dec 13 12:49:25 2020.

 ----------------------------------------------------------------------
 # B3LYP/6-311++G(d,p) empiricaldispersion=gd3bj scf=xqc pop=npa geom=c
 heck
 ----------------------------------------------------------------------

 --------------------------------------
 CID_65910354_JID_9047_Energie_neutraal
 --------------------------------------
 Structure from the checkpoint file:  "JID_9047.chk"
 Charge =  0 Multiplicity = 1

 SCF Done:  E(RB3LYP) =  -843.923055725     A.U. after   14 cycles
 Normal termination of Gaussian 16 at Sun Dec 13 12:57:25 2020.

 ----------------------------------------------------------------------
 # B3LYP/6-311++G(d,p) empiricaldispersion=gd3bj scf=xqc pop=npa geom=c
 heck
 ----------------------------------------------------------------------

 ------------------------------------
 CID_65910354_JID_9047_Energie_kation
 ------------------------------------
 Structure from the checkpoint file:  "JID_9047.chk"
 Charge =  1 Multiplicity = 2

 SCF Done:  E(UB3LYP) =  -843.655369929     A.U. after   20 cycles
 Normal termination of Gaussian 16 at Sun Dec 13 13:13:34 2020.
 Gaussian 16:  ES64L-G16RevA.03 25-Dec-2016

 ----------------------------------------------------------------------
 # B3LYP/6-311++G(d,p) empiricaldispersion=gd3bj scf=xqc pop=npa geom=c
 heck
 ----------------------------------------------------------------------

 -----------------------------------
 CID_65910354_JID_9047_Energie_anion
 -----------------------------------
 Structure from the checkpoint file:  "JID_9047.chk"
 Charge = -1 Multiplicity = 2

                         Standard orientation:
 ---------------------------------------------------------------------
 Center     Atomic      Atomic             Coordinates (Angstroms)
 Number     Number       Type             X           Y           Z
 ---------------------------------------------------------------------
      1          6           0        4.526224   -0.648209    1.719140
      2          6           0        5.133709   -1.213663    0.422257
      3          6           0        4.133697   -1.589427   -0.684329
      4          6           0        3.753467   -0.406376   -1.591375
      5          6           0        2.856404    0.684324   -0.977233
      6          6           0        3.380184    1.264172    0.356410
      7          6           0        3.328683    0.309060    1.560774
      8          6           0        1.407352    0.182612   -0.882660
      9          7           0        0.525650    1.202188   -0.343945
     10          6           0       -0.844280    0.987047   -0.215679
     11          6           0       -1.391289   -0.312853   -0.270805
     12          6           0       -2.760139   -0.435858   -0.078448
     13          6           0       -3.579332    0.670210    0.146789
     14          6           0       -3.066464    1.951932    0.193053
     15          6           0       -1.689446    2.095424    0.011172
     16          8           0       -4.893436    0.256841    0.292191
     17          6           0       -4.927498   -1.124366    0.160480
     18          8           0       -5.925702   -1.792968    0.236821
     19          7           0       -3.620467   -1.529706   -0.066314
     20          1           0        5.327019   -0.135717    2.268193
     21          1           0        4.210869   -1.481142    2.361189
     22          1           0        5.843054   -0.487221    0.002975
     23          1           0        5.734572   -2.092758    0.686625
     24          1           0        3.238244   -2.053255   -0.248202
     25          1           0        4.586921   -2.358761   -1.321812
     26          1           0        3.257473   -0.789019   -2.494045
     27          1           0        4.684570    0.063993   -1.935021
     28          1           0        2.848303    1.516931   -1.699029
     29          1           0        2.780993    2.149171    0.596346
     30          1           0        4.406548    1.624891    0.204138
     31          1           0        2.398147   -0.267249    1.516628
     32          1           0        3.248205    0.904164    2.478277
     33          1           0        1.080584   -0.155441   -1.881950
     34          1           0        1.359159   -0.695230   -0.228823
     35          1           0        0.756559    2.139021   -0.651255
     36          1           0       -0.772007   -1.180880   -0.458027
     37          1           0       -3.706794    2.809977    0.364430
     38          1           0       -1.248338    3.087439    0.054322
     39          1           0       -3.384880   -2.501441   -0.192512
 ---------------------------------------------------------------------

 SCF Done:  E(UB3LYP) =  -843.917530993     A.U. after   33 cycles
 SCF Done:  E(UB3LYP) =  -843.917530993     a.u. after    1 cycles

 The electronic state is 2-A.
 Alpha  occ. eigenvalues --  -19.10580 -19.02591 -14.28625 -14.23343 -10.24833
 Alpha  occ. eigenvalues --  -10.14590 -10.14272 -10.13494 -10.10872 -10.10400
 Alpha  occ. eigenvalues --  -10.09286 -10.08929 -10.08578 -10.07527 -10.07493
 Alpha  occ. eigenvalues --  -10.07473 -10.07436 -10.07261 -10.07181  -1.05364
 Alpha  occ. eigenvalues --   -0.95962  -0.87554  -0.85140  -0.76782  -0.73863
 Alpha  occ. eigenvalues --   -0.68932  -0.67361  -0.67046  -0.65330  -0.59875
 Alpha  occ. eigenvalues --   -0.57585  -0.56084  -0.55422  -0.54478  -0.52755
 Alpha  occ. eigenvalues --   -0.48066  -0.46590  -0.45936  -0.44932  -0.41206
 Alpha  occ. eigenvalues --   -0.40773  -0.40164  -0.38968  -0.37894  -0.37442
 Alpha  occ. eigenvalues --   -0.36910  -0.35868  -0.35676  -0.34637  -0.32736
 Alpha  occ. eigenvalues --   -0.32134  -0.31488  -0.31363  -0.31100  -0.29845
 Alpha  occ. eigenvalues --   -0.28945  -0.28593  -0.28269  -0.27457  -0.25186
 Alpha  occ. eigenvalues --   -0.24040  -0.23881  -0.23195  -0.22208  -0.21755
 Alpha  occ. eigenvalues --   -0.21692  -0.21603  -0.19663  -0.15676  -0.11153
 Alpha  occ. eigenvalues --    0.03507
 Alpha virt. eigenvalues --    0.05263   0.05959   0.06444   0.06749   0.07299
 Alpha virt. eigenvalues --    0.07841   0.08467   0.08891   0.09324   0.09582
 Alpha virt. eigenvalues --    0.09686   0.10380   0.10632   0.11440   0.11759

  Beta  occ. eigenvalues --  -19.10575 -19.02588 -14.28589 -14.23324 -10.24831
  Beta  occ. eigenvalues --  -10.14589 -10.14272 -10.13495 -10.10855 -10.10396
  Beta  occ. eigenvalues --  -10.09264 -10.08918 -10.08565 -10.07518 -10.07481
  Beta  occ. eigenvalues --  -10.07458 -10.07419 -10.07244 -10.07171  -1.05353
  Beta  occ. eigenvalues --   -0.95957  -0.87514  -0.85110  -0.76766  -0.73832
  Beta  occ. eigenvalues --   -0.68906  -0.67336  -0.67016  -0.65308  -0.59838
  Beta  occ. eigenvalues --   -0.57527  -0.56045  -0.55384  -0.54452  -0.52721
  Beta  occ. eigenvalues --   -0.48025  -0.46546  -0.45890  -0.44893  -0.41191
  Beta  occ. eigenvalues --   -0.40743  -0.40121  -0.38927  -0.37866  -0.37413
  Beta  occ. eigenvalues --   -0.36882  -0.35847  -0.35655  -0.34615  -0.32698
  Beta  occ. eigenvalues --   -0.32117  -0.31458  -0.31339  -0.31075  -0.29817
  Beta  occ. eigenvalues --   -0.28920  -0.28565  -0.28248  -0.27434  -0.25168
  Beta  occ. eigenvalues --   -0.24013  -0.23856  -0.23162  -0.22180  -0.21723
  Beta  occ. eigenvalues --   -0.21680  -0.21567  -0.19647  -0.15650  -0.11137
  Beta virt. eigenvalues --    0.05632   0.06421   0.06480   0.06591   0.07125
  Beta virt. eigenvalues --    0.07643   0.08052   0.08717   0.09228   0.09516
  Beta virt. eigenvalues --    0.09846   0.09981   0.10534   0.10741   0.11522

 Mulliken charges and spin densities:
               1          2
     1  C    0.110513  -0.799553
     2  C   -0.096137  -0.149580
     3  C   -0.237975   0.158028
     4  C    0.456873  -1.106475
     5  C    0.550010   0.009615
     6  C    0.365623  -0.924443
     7  C   -0.329514   0.364794
     8  C   -0.738347  -0.084362
     9  N    0.183580   0.019481
    10  C    1.049717  -1.811676
    11  C   -0.013676   0.142917
    12  C    0.575199   0.554354
    13  C    0.082485  -0.170147
    14  C   -0.645399   0.077912
    15  C   -0.622880   0.026636
    16  O   -0.143242  -0.010746
    17  C    0.568752  -0.084030
    18  O   -0.392321   0.006620
    19  N   -0.312957  -0.024713
    20  H    0.055323   0.072200
    21  H   -0.051677   0.205594
    22  H   -0.017202   0.147823
    23  H    0.002398   0.151880
    24  H   -0.327594   0.461511
    25  H   -0.164312   0.342612
    26  H   -0.076142   0.214914
    27  H   -0.051603   0.217076
    28  H   -0.460794   0.670146
    29  H   -0.082281   0.226708
    30  H    0.006118   0.152796
    31  H    0.038920   0.106045
    32  H    0.043426   0.125873
    33  H   -0.012887   0.197041
    34  H    0.923535  -0.840278
    35  H    0.181168   0.059568
    36  H   -1.011790   1.237490
    37  H    0.100425   0.076492
    38  H   -0.445585   0.582634
    39  H   -0.059748   0.397242
 Sum of Mulliken charges =  -1.00000   1.00000

 Dipole moment (field-independent basis, Debye):
    X=              0.4284    Y=              2.4615    Z=              1.5296  Tot=              2.9295
 Quadrupole moment (field-independent basis, Debye-Ang):
   XX=           -230.0227   YY=           -163.1498   ZZ=           -149.4335
   XY=            -11.4595   XZ=              5.5683   YZ=             -0.2266

 Summary of Natural Population Analysis:

                                       Natural Population
                Natural  -----------------------------------------------
    Atom  No    Charge         Core      Valence    Rydberg      Total
 -----------------------------------------------------------------------
      C    1   -0.18608      0.99963     2.17902    0.00744     3.18608
      C    2   -0.19028      0.99963     2.18347    0.00718     3.19028
      C    3   -0.19471      0.99962     2.18630    0.00878     3.19471
      C    4   -0.18556      0.99960     2.17631    0.00964     3.18556
      C    5   -0.10947      0.99958     2.09828    0.01161     3.10947
      C    6   -0.19301      0.99961     2.18335    0.01005     3.19301
      C    7   -0.19393      0.99962     2.18667    0.00764     3.19393
      C    8   -0.08786      0.99959     2.07705    0.01121     3.08786
      N    9   -0.31018      0.99967     2.80018    0.01033     3.81018
      C   10    0.09825      0.99952     1.89180    0.01043     2.90175
      C   11   -0.14337      0.99950     2.13567    0.00820     3.14337
      C   12    0.06777      0.99946     1.92174    0.01103     2.93223
      C   13    0.11768      0.99931     1.87079    0.01221     2.88232
      C   14   -0.11051      0.99952     2.10250    0.00849     3.11051
      C   15   -0.12392      0.99955     2.11484    0.00954     3.12392
      O   16   -0.25642      0.99985     3.25071    0.00586     4.25642
      C   17    0.45037      0.99972     1.52287    0.02704     2.54963
      O   18   -0.30953      0.99986     3.30386    0.00580     4.30953
      N   19   -0.30569      0.99964     2.79756    0.00849     3.80569
      H   20    0.09323      0.00000     0.40561    0.00116     0.40677
      H   21    0.09462      0.00000     0.40418    0.00120     0.40538
      H   22    0.09168      0.00000     0.40687    0.00144     0.40832
      H   23    0.09797      0.00000     0.40096    0.00108     0.40203
      H   24    0.09519      0.00000     0.40326    0.00154     0.40481
      H   25    0.10008      0.00000     0.39881    0.00111     0.39992
      H   26    0.10004      0.00000     0.39860    0.00136     0.39996
      H   27    0.09575      0.00000     0.40300    0.00126     0.40425
      H   28    0.09793      0.00000     0.39992    0.00216     0.40207
      H   29    0.10309      0.00000     0.39542    0.00149     0.39691
      H   30    0.09666      0.00000     0.40223    0.00110     0.40334
      H   31    0.09614      0.00000     0.40218    0.00168     0.40386
      H   32    0.09932      0.00000     0.39970    0.00098     0.40068
      H   33    0.09095      0.00000     0.40725    0.00180     0.40905
      H   34    0.09263      0.00000     0.40466    0.00272     0.40737
      H   35    0.18511      0.00000     0.31137    0.00352     0.31489
      H   36    0.11278      0.00000     0.38529    0.00193     0.38722
      H   37    0.10744      0.00000     0.39165    0.00091     0.39256
      H   38    0.10276      0.00000     0.39618    0.00105     0.39724
      H   39    0.21308      0.00000     0.28272    0.00420     0.28692
 =======================================================================
   * Total *    0.00000     18.99248    50.78284    0.22468    70.00000

 Normal termination of Gaussian 16 at Sun Dec 13 13:40:47 2020.
