 Gaussian 16, Revision A.03,

 -----------------------------------------------------------
 # opt freq B3LYP/6-31G(d) empiricaldispersion=gd3bj scf=xqc
 -----------------------------------------------------------

 -------------------------------
 CID_118512885_JID_8156_neutraal
 -------------------------------
 Symbolic Z-matrix:
 Charge =  0 Multiplicity = 1

 SCF Done:  E(RB3LYP) =  -753.486559699     A.U. after   14 cycles
 SCF Done:  E(RB3LYP) =  -753.512341152     A.U. after   13 cycles
 SCF Done:  E(RB3LYP) =  -753.514014495     A.U. after   14 cycles
 SCF Done:  E(RB3LYP) =  -753.511769794     A.U. after   13 cycles
 SCF Done:  E(RB3LYP) =  -753.508179223     A.U. after   13 cycles
 SCF Done:  E(RB3LYP) =  -753.509307289     A.U. after   12 cycles
 SCF Done:  E(RB3LYP) =  -753.515438604     A.U. after   11 cycles
 SCF Done:  E(RB3LYP) =  -753.517080106     A.U. after   12 cycles
 SCF Done:  E(RB3LYP) =  -753.515241808     A.U. after   12 cycles
 SCF Done:  E(RB3LYP) =  -753.517782662     A.U. after   12 cycles
 SCF Done:  E(RB3LYP) =  -753.518639112     A.U. after    8 cycles
 SCF Done:  E(RB3LYP) =  -753.518639977     A.U. after    8 cycles
 SCF Done:  E(RB3LYP) =  -753.518640934     A.U. after    8 cycles
 SCF Done:  E(RB3LYP) =  -753.518641192     A.U. after    8 cycles
 SCF Done:  E(RB3LYP) =  -753.518641217     A.U. after    7 cycles
 Optimization completed.
    -- Stationary point found.
 Normal termination of Gaussian 16 at Fri Dec 11 19:28:44 2020.

 --------------------------------------------------------------------
 #N Geom=AllCheck Guess=TCheck SCRF=Check GenChk RB3LYP/6-31G(d) Freq
 --------------------------------------------------------------------

 Structure from the checkpoint file:  "JID_8156.chk"
 -------------------------------
 CID_118512885_JID_8156_neutraal
 -------------------------------
 Charge =  0 Multiplicity = 1

 SCF Done:  E(RB3LYP) =  -753.518641217     A.U. after    1 cycles

  Exact polarizability: 191.922   4.813 157.191 -10.529  26.367 153.447
 Approx polarizability: 269.289   5.261 236.449 -26.966  57.873 249.334

                      1                      2                      3
                      A                      A                      A
 Frequencies --     38.3016                42.4835                51.9262
 Red. masses --      3.8482                 3.9148                 3.0005
 Frc consts  --      0.0033                 0.0042                 0.0048
 IR Inten    --      0.5963                 0.1536                 0.0503

                      4                      5                      6
                      A                      A                      A
 Frequencies --     70.9621                88.8968               112.5463
 Red. masses --      3.7167                 4.3881                 3.3995
 Frc consts  --      0.0110                 0.0204                 0.0254
 IR Inten    --      0.4014                 0.2515                 1.0643

                      7                      8                      9
                      A                      A                      A
 Frequencies --    126.1652               138.3771               179.9085
 Red. masses --      3.4639                 3.2314                 2.7886
 Frc consts  --      0.0325                 0.0365                 0.0532
 IR Inten    --      0.7585                 0.4368                 0.7041

                     10                     11                     12
                      A                      A                      A
 Frequencies --    190.3005               223.9645               245.5277
 Red. masses --      2.4202                 2.9526                 2.8892
 Frc consts  --      0.0516                 0.0873                 0.1026
 IR Inten    --      1.3284                16.7079                 1.3241

                     13                     14                     15
                      A                      A                      A
 Frequencies --    254.2488               262.8729               280.4382
 Red. masses --      2.3228                 2.7762                 1.3003
 Frc consts  --      0.0885                 0.1130                 0.0603
 IR Inten    --     17.5832                 5.2224                72.1471

                     16                     17                     18
                      A                      A                      A
 Frequencies --    299.1787               317.3072               322.2086
 Red. masses --      1.9467                 2.4946                 1.6367
 Frc consts  --      0.1027                 0.1480                 0.1001
 IR Inten    --     26.1433                15.8126                14.2578

                     19                     20                     21
                      A                      A                      A
 Frequencies --    343.7751               360.2774               363.2507
 Red. masses --      1.8227                 2.5749                 2.7303
 Frc consts  --      0.1269                 0.1969                 0.2123
 IR Inten    --     21.5231                 5.6078                 4.5119

                     22                     23                     24
                      A                      A                      A
 Frequencies --    389.0430               404.8244               439.2833
 Red. masses --      2.4259                 3.0696                 2.4249
 Frc consts  --      0.2163                 0.2964                 0.2757
 IR Inten    --      3.5753                28.3004                 1.0312

                     25                     26                     27
                      A                      A                      A
 Frequencies --    465.4579               486.8235               517.9185
 Red. masses --      2.7193                 2.9606                 4.6330
 Frc consts  --      0.3471                 0.4134                 0.7322
 IR Inten    --      4.2227                 1.1271                 3.4168

                     28                     29                     30
                      A                      A                      A
 Frequencies --    547.4249               582.4944               593.2369
 Red. masses --      3.1731                 2.9014                 3.1216
 Frc consts  --      0.5603                 0.5800                 0.6473
 IR Inten    --      0.2712                 1.8162                22.7489

                     31                     32                     33
                      A                      A                      A
 Frequencies --    595.9305               604.7244               624.0732
 Red. masses --      1.3076                 1.2162                 2.8787
 Frc consts  --      0.2736                 0.2620                 0.6606
 IR Inten    --     45.2949                40.1639                 2.0340

                     34                     35                     36
                      A                      A                      A
 Frequencies --    692.5441               743.4051               770.8186
 Red. masses --      3.6132                 2.4453                 1.4529
 Frc consts  --      1.0210                 0.7962                 0.5086
 IR Inten    --      4.0012                 4.6012                37.8061

                     37                     38                     39
                      A                      A                      A
 Frequencies --    787.9110               800.3041               810.8097
 Red. masses --      2.7850                 1.4679                 2.2052
 Frc consts  --      1.0187                 0.5539                 0.8542
 IR Inten    --     13.6398                 6.8706                 1.1508

                     40                     41                     42
                      A                      A                      A
 Frequencies --    846.8579               865.5677               887.5571
 Red. masses --      2.8846                 2.8130                 1.2890
 Frc consts  --      1.2189                 1.2417                 0.5983
 IR Inten    --      3.9932                 1.8682                27.8193

                     43                     44                     45
                      A                      A                      A
 Frequencies --    895.8602               903.8956               913.9745
 Red. masses --      1.6473                 1.4450                 2.2740
 Frc consts  --      0.7789                 0.6956                 1.1192
 IR Inten    --     12.1461                59.4548                 0.3465

                     46                     47                     48
                      A                      A                      A
 Frequencies --    949.2300               957.3582               999.7948
 Red. masses --      2.0531                 1.3409                 1.3411
 Frc consts  --      1.0900                 0.7241                 0.7899
 IR Inten    --     14.5114                 6.1569                 9.1834

                     49                     50                     51
                      A                      A                      A
 Frequencies --   1001.7704              1015.2694              1028.1924
 Red. masses --      2.1228                 1.8459                 2.3546
 Frc consts  --      1.2551                 1.1210                 1.4666
 IR Inten    --      3.6501                30.1134                27.5950

                     52                     53                     54
                      A                      A                      A
 Frequencies --   1059.9375              1064.6454              1078.7976
 Red. masses --      2.3097                 2.3016                 1.9403
 Frc consts  --      1.5289                 1.5370                 1.3304
 IR Inten    --      5.7206                 6.8277                 2.1115

                     55                     56                     57
                      A                      A                      A
 Frequencies --   1090.9743              1099.0205              1105.9802
 Red. masses --      2.2294                 2.5037                 2.6581
 Frc consts  --      1.5634                 1.7817                 1.9157
 IR Inten    --      2.8229                 2.8343                 2.6951

                     58                     59                     60
                      A                      A                      A
 Frequencies --   1121.5760              1152.4230              1178.2442
 Red. masses --      2.1823                 2.1586                 2.1370
 Frc consts  --      1.6174                 1.6890                 1.7479
 IR Inten    --     25.3549                 5.1945                10.0773

                     61                     62                     63
                      A                      A                      A
 Frequencies --   1191.7608              1195.5375              1203.5253
 Red. masses --      1.3133                 1.6673                 1.1847
 Frc consts  --      1.0990                 1.4041                 1.0110
 IR Inten    --      1.7454                26.4718                 0.3346

                     64                     65                     66
                      A                      A                      A
 Frequencies --   1227.0572              1228.5448              1252.0576
 Red. masses --      1.1009                 1.8564                 1.5944
 Frc consts  --      0.9767                 1.6508                 1.4726
 IR Inten    --      6.3153                 0.8775                12.3256

                     67                     68                     69
                      A                      A                      A
 Frequencies --   1294.7702              1298.8585              1307.5036
 Red. masses --      1.2618                 1.5203                 1.2705
 Frc consts  --      1.2463                 1.5112                 1.2797
 IR Inten    --      2.6200                14.0327                12.4317

                     70                     71                     72
                      A                      A                      A
 Frequencies --   1327.9324              1332.5846              1361.4884
 Red. masses --      1.1866                 2.5038                 1.4470
 Frc consts  --      1.2329                 2.6196                 1.5804
 IR Inten    --      5.5743                 1.0125                17.0982

                     73                     74                     75
                      A                      A                      A
 Frequencies --   1363.5826              1377.5670              1397.7013
 Red. masses --      1.5739                 1.3413                 1.3107
 Frc consts  --      1.7242                 1.4997                 1.5087
 IR Inten    --      3.2901                 4.3813                 4.6407

                     76                     77                     78
                      A                      A                      A
 Frequencies --   1406.9715              1413.5547              1420.3232
 Red. masses --      1.3938                 1.3727                 1.5452
 Frc consts  --      1.6257                 1.6160                 1.8366
 IR Inten    --      4.0126                 6.2790                16.5294

                     79                     80                     81
                      A                      A                      A
 Frequencies --   1436.8423              1448.2363              1492.5718
 Red. masses --      1.4070                 1.2884                 2.0820
 Frc consts  --      1.7115                 1.5922                 2.7328
 IR Inten    --     14.3258                10.9127                11.7554

                     82                     83                     84
                      A                      A                      A
 Frequencies --   1503.9868              1507.9456              1513.6244
 Red. masses --      1.1018                 1.0973                 1.0929
 Frc consts  --      1.4684                 1.4701                 1.4753
 IR Inten    --      5.8202                 3.2130                 2.7916

                     85                     86                     87
                      A                      A                      A
 Frequencies --   1520.7030              1524.1905              1530.0254
 Red. masses --      1.0932                 1.0797                 1.0768
 Frc consts  --      1.4895                 1.4779                 1.4852
 IR Inten    --      5.0984                 1.1507                 9.1867

                     88                     89                     90
                      A                      A                      A
 Frequencies --   1537.1100              1544.1744              1554.2349
 Red. masses --      2.1944                 1.0887                 1.0578
 Frc consts  --      3.0548                 1.5295                 1.5055
 IR Inten    --     10.6438                 1.2184                 8.9441

                     91                     92                     93
                      A                      A                      A
 Frequencies --   1634.3613              1663.5846              1698.4605
 Red. masses --      5.5062                 5.2310                 1.0964
 Frc consts  --      8.6656                 8.5295                 1.8635
 IR Inten    --      0.5776                 1.1777                17.6879

                     94                     95                     96
                      A                      A                      A
 Frequencies --   2231.3743              3036.0551              3039.5305
 Red. masses --      6.0077                 1.0474                 1.0604
 Frc consts  --     17.6238                 5.6884                 5.7720
 IR Inten    --      3.8405                13.3432                32.8127

                     97                     98                     99
                      A                      A                      A
 Frequencies --   3045.2679              3048.2464              3052.9011
 Red. masses --      1.0687                 1.0706                 1.0727
 Frc consts  --      5.8394                 5.8608                 5.8905
 IR Inten    --      6.0572                41.5135                32.3231

                    100                    101                    102
                      A                      A                      A
 Frequencies --   3055.5235              3063.7175              3070.2983
 Red. masses --      1.0672                 1.0634                 1.0885
 Frc consts  --      5.8703                 5.8810                 6.0457
 IR Inten    --      7.2240                40.1107                26.1489

                    103                    104                    105
                      A                      A                      A
 Frequencies --   3093.1220              3097.8540              3105.6074
 Red. masses --      1.1024                 1.0957                 1.1017
 Frc consts  --      6.2141                 6.1951                 6.2602
 IR Inten    --     28.8966                82.0259                32.4557

                    106                    107                    108
                      A                      A                      A
 Frequencies --   3115.4169              3121.0977              3127.0650
 Red. masses --      1.0913                 1.0916                 1.1025
 Frc consts  --      6.2406                 6.2649                 6.3517
 IR Inten    --     46.1153                 2.2800                30.7185

                    109                    110                    111
                      A                      A                      A
 Frequencies --   3134.2161              3181.9747              3199.3824
 Red. masses --      1.0871                 1.0861                 1.0939
 Frc consts  --      6.2919                 6.4789                 6.5970
 IR Inten    --     12.2861                 5.6716                33.4422

                    112                    113                    114
                      A                      A                      A
 Frequencies --   3225.3936              3240.9997              3454.8012
 Red. masses --      1.0917                 1.0895                 1.0501
 Frc consts  --      6.6915                 6.7429                 7.3848
 IR Inten    --      5.8325                14.8513                 9.7814

                    115                    116                    117
                      A                      A                      A
 Frequencies --   3493.0047              3544.4726              3773.3165
 Red. masses --      1.1587                 1.0919                 1.0651
 Frc consts  --      8.3297                 8.0824                 8.9349
 IR Inten    --     57.1003                 3.3761                21.8044

 - Thermochemistry -
 -------------------
 Temperature   298.150 Kelvin.  Pressure   1.00000 Atm.
 Atom     1 has atomic number  6 and mass  12.00000

 Molecular mass:   245.17796 amu.
 Principal axes and moments of inertia in atomic units:
                           1         2         3
     Eigenvalues --  3465.171635396.592516123.33616
           X            0.99998   0.00452  -0.00489
           Y           -0.00428   0.99888   0.04709
           Z            0.00510  -0.04707   0.99888
 This molecule is an asymmetric top.
 Rotational symmetry number  1.
 Warning -- assumption of classical behavior for rotation
           may cause significant error
 Rotational temperatures (Kelvin)      0.02500     0.01605     0.01414
 Rotational constants (GHZ):           0.52082     0.33442     0.29473
 Zero-point vibrational energy     948931.1 (Joules/Mol)
                                  226.79997 (Kcal/Mol)
 Warning -- explicit consideration of  32 degrees of freedom as
           vibrations may cause significant error
 Vibrational temperatures:     55.11    61.12    74.71   102.10   127.90
          (Kelvin)            161.93   181.52   199.09   258.85   273.80
                              322.23   353.26   365.81   378.22   403.49
                              430.45   456.53   463.59   494.62   518.36
                              522.64   559.75   582.45   632.03   669.69
                              700.43   745.17   787.62   838.08   853.54
                              857.41   870.06   897.90   996.42  1069.59
                             1109.04  1133.63  1151.46  1166.57  1218.44
                             1245.36  1277.00  1288.94  1300.50  1315.01
                             1365.73  1377.42  1438.48  1441.32  1460.75
                             1479.34  1525.01  1531.79  1552.15  1569.67
                             1581.25  1591.26  1613.70  1658.08  1695.23
                             1714.68  1720.11  1731.60  1765.46  1767.60
                             1801.43  1862.89  1868.77  1881.21  1910.60
                             1917.29  1958.88  1961.89  1982.01  2010.98
                             2024.32  2033.79  2043.53  2067.30  2083.69
                             2147.48  2163.90  2169.60  2177.77  2187.95
                             2192.97  2201.37  2211.56  2221.72  2236.20
                             2351.48  2393.53  2443.71  3210.45  4368.21
                             4373.21  4381.46  4385.75  4392.44  4396.22
                             4408.01  4417.47  4450.31  4457.12  4468.28
                             4482.39  4490.56  4499.15  4509.44  4578.15
                             4603.20  4640.62  4663.08  4970.69  5025.65
                             5099.71  5428.96

 Zero-point correction=                           0.361429 (Hartree/Particle)
 Thermal correction to Energy=                    0.380451
 Thermal correction to Enthalpy=                  0.381395
 Thermal correction to Gibbs Free Energy=         0.314917
 Sum of electronic and zero-point Energies=           -753.157212
 Sum of electronic and thermal Energies=              -753.138190
 Sum of electronic and thermal Enthalpies=            -753.137246
 Sum of electronic and thermal Free Energies=         -753.203724

                     E (Thermal)             CV                S
                      KCal/Mol        Cal/Mol-Kelvin    Cal/Mol-Kelvin
 Total                  238.737             74.038            139.915
 Electronic               0.000              0.000              0.000
 Translational            0.889              2.981             42.391
 Rotational               0.889              2.981             33.104
 Vibrational            236.959             68.077             64.420
 Vibration     1          0.594              1.982              5.345
 Vibration     2          0.595              1.980              5.140
 Vibration     3          0.596              1.977              4.743
 Vibration     4          0.598              1.968              4.126
 Vibration     5          0.602              1.957              3.684
 Vibration     6          0.607              1.939              3.225
 Vibration     7          0.611              1.927              3.004
 Vibration     8          0.614              1.915              2.826
 Vibration     9          0.629              1.867              2.329
 Vibration    10          0.634              1.853              2.225
 Vibration    11          0.649              1.805              1.927
 Vibration    12          0.660              1.770              1.762
 Vibration    13          0.665              1.756              1.701
 Vibration    14          0.670              1.741              1.643
 Vibration    15          0.680              1.710              1.531
 Vibration    16          0.692              1.675              1.421
 Vibration    17          0.704              1.641              1.324
 Vibration    18          0.707              1.631              1.299
 Vibration    19          0.723              1.588              1.195
 Vibration    20          0.735              1.554              1.121
 Vibration    21          0.737              1.548              1.108
 Vibration    22          0.757              1.494              1.004
 Vibration    23          0.770              1.460              0.945
 Vibration    24          0.799              1.385              0.829
 Vibration    25          0.823              1.327              0.750
 Vibration    26          0.843              1.279              0.692
 Vibration    27          0.873              1.210              0.615
 Vibration    28          0.903              1.145              0.550
 Vibration    29          0.939              1.069              0.481
 Vibration    30          0.951              1.046              0.461
 Vibration    31          0.954              1.040              0.457
 Vibration    32          0.963              1.022              0.442

 Optimization completed.
    -- Stationary point found.
 Normal termination of Gaussian 16 at Fri Dec 11 19:51:29 2020.

 ----------------------------------------------------------------------
 # B3LYP/6-311++G(d,p) empiricaldispersion=gd3bj scf=xqc pop=npa geom=c
 heck
 ----------------------------------------------------------------------

 ---------------------------------------
 CID_118512885_JID_8156_Energie_neutraal
 ---------------------------------------
 Structure from the checkpoint file:  "JID_8156.chk"
 Charge =  0 Multiplicity = 1

 SCF Done:  E(RB3LYP) =  -753.740541521     A.U. after   15 cycles
 Normal termination of Gaussian 16 at Fri Dec 11 20:00:39 2020.

 ----------------------------------------------------------------------
 # B3LYP/6-311++G(d,p) empiricaldispersion=gd3bj scf=xqc pop=npa geom=c
 heck
 ----------------------------------------------------------------------

 -------------------------------------
 CID_118512885_JID_8156_Energie_kation
 -------------------------------------
 Structure from the checkpoint file:  "JID_8156.chk"
 Charge =  1 Multiplicity = 2

 SCF Done:  E(UB3LYP) =  -753.449339607     A.U. after   25 cycles
 Normal termination of Gaussian 16 at Fri Dec 11 20:20:42 2020.
 Gaussian 16:  ES64L-G16RevA.03 25-Dec-2016

 ----------------------------------------------------------------------
 # B3LYP/6-311++G(d,p) empiricaldispersion=gd3bj scf=xqc pop=npa geom=c
 heck
 ----------------------------------------------------------------------

 ------------------------------------
 CID_118512885_JID_8156_Energie_anion
 ------------------------------------
 Structure from the checkpoint file:  "JID_8156.chk"
 Charge = -1 Multiplicity = 2

                         Standard orientation:
 ---------------------------------------------------------------------
 Center     Atomic      Atomic             Coordinates (Angstroms)
 Number     Number       Type             X           Y           Z
 ---------------------------------------------------------------------
      1          6           0        4.353029    0.205242    1.020140
      2          6           0        3.768361   -0.040242   -0.377814
      3          6           0        2.426403   -0.791731   -0.470198
      4          6           0        1.191263   -0.175373    0.232857
      5          6           0        0.985104    1.297197   -0.213246
      6          6           0        0.547029    1.523839   -1.670400
      7          6           0       -0.978773    1.431109   -1.917385
      8          6           0       -1.747028    2.353175   -1.081822
      9          6           0       -2.356226    3.122237   -0.375448
     10          6           0       -0.087617   -0.998066    0.002339
     11          6           0       -0.141930   -1.926020   -1.048461
     12          6           0       -1.301083   -2.634069   -1.360222
     13          6           0       -2.450002   -2.428623   -0.604691
     14          6           0       -2.413384   -1.526484    0.454774
     15          6           0       -1.257194   -0.804376    0.780364
     16          6           0       -1.357816    0.127706    1.983278
     17          7           0       -2.727256    0.640764    2.140214
     18          8           0        1.419174   -0.219256    1.655407
     19          1           0        3.873297    1.047135    1.536250
     20          1           0        5.416175    0.460357    0.950349
     21          1           0        4.257370   -0.680255    1.656973
     22          1           0        3.703462    0.913428   -0.917095
     23          1           0        4.490100   -0.642760   -0.943976
     24          1           0        2.223569   -0.904199   -1.539551
     25          1           0        2.550611   -1.802713   -0.064769
     26          1           0        0.252462    1.772372    0.442806
     27          1           0        1.929974    1.829330   -0.044642
     28          1           0        0.875636    2.522827   -1.978774
     29          1           0        1.041256    0.812724   -2.342323
     30          1           0       -1.177138    1.654688   -2.973991
     31          1           0       -1.331660    0.410646   -1.743136
     32          1           0       -2.901913    3.821958    0.215483
     33          1           0        0.734542   -2.106357   -1.656344
     34          1           0       -1.296562   -3.337653   -2.188240
     35          1           0       -3.366789   -2.966416   -0.830973
     36          1           0       -3.297293   -1.347115    1.056495
     37          1           0       -1.108190   -0.448089    2.883825
     38          1           0       -0.604613    0.914714    1.925866
     39          1           0       -2.767710    1.210191    2.983727
     40          1           0       -2.923082    1.267091    1.358470
     41          1           0        2.083082    0.453678    1.864423
 ---------------------------------------------------------------------

 SCF Done:  E(UB3LYP) =  -753.728628138     A.U. after   33 cycles
 SCF Done:  E(UB3LYP) =  -753.728628139     a.u. after    1 cycles

 The electronic state is 2-A.
 Alpha  occ. eigenvalues --  -19.02504 -14.19803 -10.14362 -10.10093 -10.09712
 Alpha  occ. eigenvalues --  -10.09261 -10.09145 -10.08988 -10.08486 -10.08481
 Alpha  occ. eigenvalues --  -10.08391 -10.08138 -10.07575 -10.07546 -10.07463
 Alpha  occ. eigenvalues --  -10.07427 -10.07145 -10.06824  -0.93209  -0.79503
 Alpha  occ. eigenvalues --   -0.76427  -0.72887  -0.70332  -0.67766  -0.66298
 Alpha  occ. eigenvalues --   -0.65649  -0.62646  -0.60096  -0.57150  -0.55327
 Alpha  occ. eigenvalues --   -0.51681  -0.51126  -0.48465  -0.46851  -0.44396
 Alpha  occ. eigenvalues --   -0.42238  -0.41573  -0.39258  -0.39008  -0.38114
 Alpha  occ. eigenvalues --   -0.36911  -0.36006  -0.35739  -0.34661  -0.33939
 Alpha  occ. eigenvalues --   -0.33215  -0.32250  -0.31977  -0.31671  -0.30012
 Alpha  occ. eigenvalues --   -0.29505  -0.28981  -0.27272  -0.26873  -0.26176
 Alpha  occ. eigenvalues --   -0.25612  -0.25512  -0.24892  -0.24173  -0.23493
 Alpha  occ. eigenvalues --   -0.21679  -0.18849  -0.18763  -0.18424  -0.16354
 Alpha  occ. eigenvalues --   -0.15807  -0.14192   0.04006
 Alpha virt. eigenvalues --    0.05699   0.06146   0.06714   0.07141   0.07507
 Alpha virt. eigenvalues --    0.07609   0.08133   0.08474   0.08858   0.09502
 Alpha virt. eigenvalues --    0.10157   0.10513   0.10711   0.11192   0.11285

  Beta  occ. eigenvalues --  -19.02493 -14.19788 -10.14362 -10.10081 -10.09706
  Beta  occ. eigenvalues --  -10.09259 -10.09143 -10.08991 -10.08478 -10.08465
  Beta  occ. eigenvalues --  -10.08384 -10.08131 -10.07573 -10.07529 -10.07441
  Beta  occ. eigenvalues --  -10.07400 -10.07133 -10.06785  -0.93186  -0.79482
  Beta  occ. eigenvalues --   -0.76413  -0.72863  -0.70303  -0.67737  -0.66279
  Beta  occ. eigenvalues --   -0.65629  -0.62618  -0.60052  -0.57121  -0.55293
  Beta  occ. eigenvalues --   -0.51632  -0.51073  -0.48440  -0.46811  -0.44350
  Beta  occ. eigenvalues --   -0.42217  -0.41547  -0.39232  -0.38989  -0.38084
  Beta  occ. eigenvalues --   -0.36888  -0.35961  -0.35717  -0.34639  -0.33914
  Beta  occ. eigenvalues --   -0.33186  -0.32233  -0.31959  -0.31638  -0.29990
  Beta  occ. eigenvalues --   -0.29482  -0.28957  -0.27254  -0.26824  -0.26150
  Beta  occ. eigenvalues --   -0.25580  -0.25490  -0.24868  -0.24139  -0.23461
  Beta  occ. eigenvalues --   -0.21656  -0.18833  -0.18736  -0.18406  -0.16346
  Beta  occ. eigenvalues --   -0.15794  -0.14178
  Beta virt. eigenvalues --    0.06019   0.06511   0.06768   0.07014   0.07387
  Beta virt. eigenvalues --    0.07557   0.08193   0.08620   0.08732   0.09192
  Beta virt. eigenvalues --    0.09806   0.10484   0.10732   0.10855   0.11303

 Mulliken charges and spin densities:
               1          2
     1  C    0.976013  -1.585115
     2  C   -0.732310   0.432159
     3  C   -0.552568   0.270328
     4  C   -0.088995  -0.243196
     5  C    0.758333  -0.614010
     6  C    0.048075  -0.545057
     7  C   -1.594616   1.166705
     8  C    2.250011  -1.886095
     9  C   -0.513536   0.080211
    10  C    0.363277   0.351014
    11  C   -0.370813   0.182343
    12  C    0.226168  -0.979889
    13  C    0.022412  -0.174445
    14  C   -0.455309  -0.009000
    15  C    0.406144   0.060640
    16  C    0.120250  -0.950008
    17  N   -0.534022   0.136289
    18  O   -0.048865  -0.000713
    19  H   -0.435460   0.547094
    20  H   -0.452823   0.613564
    21  H    0.027494   0.131325
    22  H   -0.057980   0.227991
    23  H   -0.552964   0.721551
    24  H    0.067552   0.045057
    25  H    0.191112   0.016019
    26  H    0.230027  -0.180701
    27  H    0.107025   0.096245
    28  H   -0.213835   0.388577
    29  H   -0.200284   0.338218
    30  H   -0.208764   0.448687
    31  H    0.267326  -0.137597
    32  H   -0.648648   0.849898
    33  H   -0.234289   0.404871
    34  H   -0.158007   0.317441
    35  H    0.118458   0.033065
    36  H    0.163625   0.065960
    37  H    0.189777   0.014907
    38  H   -0.140374   0.325232
    39  H    0.088079   0.153646
    40  H    0.284297  -0.072077
    41  H    0.289005  -0.041135
 Sum of Mulliken charges =  -1.00000   1.00000

 Dipole moment (field-independent basis, Debye):
    X=             -4.4495    Y=             -2.7398    Z=              0.9878  Tot=              5.3179
 Quadrupole moment (field-independent basis, Debye-Ang):
   XX=           -195.3985   YY=           -161.3583   ZZ=           -155.2301
   XY=              4.6240   XZ=              3.7432   YZ=              1.0099

 Summary of Natural Population Analysis:

                                       Natural Population
                Natural  -----------------------------------------------
    Atom  No    Charge         Core      Valence    Rydberg      Total
 -----------------------------------------------------------------------
      C    1   -0.28868      0.99966     2.28314    0.00587     3.28868
      C    2   -0.19209      0.99963     2.18370    0.00876     3.19209
      C    3   -0.20012      0.99958     2.18930    0.01123     3.20012
      C    4    0.13248      0.99947     1.85218    0.01587     2.86752
      C    5   -0.20681      0.99957     2.19608    0.01116     3.20681
      C    6   -0.18235      0.99962     2.17359    0.00915     3.18235
      C    7   -0.23620      0.99955     2.22741    0.00923     3.23620
      C    8    0.00990      0.99938     1.98260    0.00812     2.99010
      C    9   -0.13837      0.99927     2.13512    0.00398     3.13837
      C   10   -0.01853      0.99944     2.00624    0.01286     3.01853
      C   11   -0.10306      0.99951     2.09456    0.00899     3.10306
      C   12   -0.10528      0.99956     2.09550    0.01022     3.10528
      C   13   -0.10358      0.99956     2.09494    0.00909     3.10358
      C   14   -0.10211      0.99952     2.09404    0.00856     3.10211
      C   15   -0.00889      0.99946     1.99961    0.00982     3.00889
      C   16   -0.09826      0.99959     2.08764    0.01104     3.09826
      N   17   -0.42788      0.99977     2.91882    0.00929     3.92788
      O   18   -0.37823      0.99989     3.37153    0.00681     4.37823
      H   19    0.08799      0.00000     0.41059    0.00142     0.41201
      H   20    0.10344      0.00000     0.39528    0.00128     0.39656
      H   21    0.09981      0.00000     0.39923    0.00095     0.40019
      H   22    0.09624      0.00000     0.40210    0.00166     0.40376
      H   23    0.10066      0.00000     0.39800    0.00134     0.39934
      H   24    0.10102      0.00000     0.39707    0.00191     0.39898
      H   25    0.10316      0.00000     0.39560    0.00124     0.39684
      H   26    0.10674      0.00000     0.39116    0.00210     0.39326
      H   27    0.10287      0.00000     0.39552    0.00161     0.39713
      H   28    0.10126      0.00000     0.39736    0.00138     0.39874
      H   29    0.10186      0.00000     0.39645    0.00169     0.39814
      H   30    0.11368      0.00000     0.38502    0.00130     0.38632
      H   31    0.12086      0.00000     0.37659    0.00254     0.37914
      H   32    0.11308      0.00000     0.38522    0.00169     0.38692
      H   33    0.10447      0.00000     0.39380    0.00173     0.39553
      H   34    0.10012      0.00000     0.39907    0.00081     0.39988
      H   35    0.09818      0.00000     0.40110    0.00073     0.40182
      H   36    0.11377      0.00000     0.38493    0.00130     0.38623
      H   37    0.09888      0.00000     0.40018    0.00094     0.40112
      H   38    0.09398      0.00000     0.40401    0.00202     0.40602
      H   39    0.17429      0.00000     0.32422    0.00149     0.32571
      H   40    0.17958      0.00000     0.31851    0.00192     0.32042
      H   41    0.23214      0.00000     0.26473    0.00313     0.26786
 =======================================================================
   * Total *    0.00000     17.99203    48.80173    0.20624    67.00000

 Normal termination of Gaussian 16 at Fri Dec 11 20:48:20 2020.
