 Gaussian 16, Revision A.03,

 -----------------------------------------------------------
 # opt freq B3LYP/6-31G(d) empiricaldispersion=gd3bj scf=xqc
 -----------------------------------------------------------

 ------------------------------
 CID_85561873_JID_4087_neutraal
 ------------------------------
 Symbolic Z-matrix:
 Charge =  0 Multiplicity = 1

 SCF Done:  E(RB3LYP) =  -608.708945488     A.U. after   15 cycles
 SCF Done:  E(RB3LYP) =  -608.721516063     A.U. after   13 cycles
 SCF Done:  E(RB3LYP) =  -608.722652332     A.U. after   12 cycles
 SCF Done:  E(RB3LYP) =  -608.722783315     A.U. after   11 cycles
 SCF Done:  E(RB3LYP) =  -608.722824490     A.U. after   10 cycles
 SCF Done:  E(RB3LYP) =  -608.722859216     A.U. after   11 cycles
 SCF Done:  E(RB3LYP) =  -608.722873656     A.U. after   10 cycles
 SCF Done:  E(RB3LYP) =  -608.722903283     A.U. after   10 cycles
 SCF Done:  E(RB3LYP) =  -608.722963780     A.U. after   11 cycles
 SCF Done:  E(RB3LYP) =  -608.722985802     A.U. after   10 cycles
 SCF Done:  E(RB3LYP) =  -608.723018362     A.U. after    9 cycles
 SCF Done:  E(RB3LYP) =  -608.723106558     A.U. after   10 cycles
 SCF Done:  E(RB3LYP) =  -608.723133382     A.U. after   11 cycles
 SCF Done:  E(RB3LYP) =  -608.723134791     A.U. after    9 cycles
 SCF Done:  E(RB3LYP) =  -608.723134961     A.U. after    8 cycles
 Optimization completed.
    -- Stationary point found.
 Normal termination of Gaussian 16 at Thu Dec 10 09:15:31 2020.

 --------------------------------------------------------------------
 #N Geom=AllCheck Guess=TCheck SCRF=Check GenChk RB3LYP/6-31G(d) Freq
 --------------------------------------------------------------------

 Structure from the checkpoint file:  "JID_4087.chk"
 ------------------------------
 CID_85561873_JID_4087_neutraal
 ------------------------------
 Charge =  0 Multiplicity = 1

 SCF Done:  E(RB3LYP) =  -608.723134961     A.U. after    1 cycles

  Exact polarizability: 213.422   3.632 128.871   0.000   0.000  48.749
 Approx polarizability: 343.971  -4.238 246.121   0.001  -0.001  77.177

                      1                      2                      3
                      A                      A                      A
 Frequencies --     73.3044                90.0417               122.5706
 Red. masses --      1.1374                 2.8965                 5.6348
 Frc consts  --      0.0036                 0.0138                 0.0499
 IR Inten    --      1.0389                 2.2558                 0.1375

                      4                      5                      6
                      A                      A                      A
 Frequencies --    193.1531               214.7001               263.1619
 Red. masses --      3.6104                 3.9507                 4.3989
 Frc consts  --      0.0794                 0.1073                 0.1795
 IR Inten    --      2.3484                 0.4084                 0.0111

                      7                      8                      9
                      A                      A                      A
 Frequencies --    308.7124               342.5751               427.8491
 Red. masses --      4.7358                 5.5368                 5.7796
 Frc consts  --      0.2659                 0.3828                 0.6233
 IR Inten    --      0.0944                 1.1519                 0.3171

                     10                     11                     12
                      A                      A                      A
 Frequencies --    433.7890               488.6053               536.5516
 Red. masses --      3.8265                 7.4046                 3.7600
 Frc consts  --      0.4242                 1.0415                 0.6378
 IR Inten    --      0.1171                 0.2016                 0.0089

                     13                     14                     15
                      A                      A                      A
 Frequencies --    542.9589               583.0267               629.8252
 Red. masses --      5.1870                 3.9034                 6.0264
 Frc consts  --      0.9010                 0.7818                 1.4085
 IR Inten    --      1.4567                 0.6985                 0.2407

                     16                     17                     18
                      A                      A                      A
 Frequencies --    631.1635               678.3940               706.0076
 Red. masses --      5.8154                 5.6197                 7.0928
 Frc consts  --      1.3649                 1.5238                 2.0830
 IR Inten    --      1.0359                 3.8169                14.2708

                     19                     20                     21
                      A                      A                      A
 Frequencies --    721.3008               788.7865               813.5061
 Red. masses --      3.6274                 1.3265                 6.8951
 Frc consts  --      1.1119                 0.4863                 2.6885
 IR Inten    --     20.3881                 0.8082                 2.8428

                     22                     23                     24
                      A                      A                      A
 Frequencies --    826.6130               846.0980               885.6249
 Red. masses --      3.5082                 2.1866                 5.5078
 Frc consts  --      1.4123                 0.9223                 2.5452
 IR Inten    --     15.0244                26.0898                19.5940

                     25                     26                     27
                      A                      A                      A
 Frequencies --    923.1032               959.6170               968.0420
 Red. masses --      6.1459                 1.3301                 1.3311
 Frc consts  --      3.0856                 0.7216                 0.7349
 IR Inten    --      6.0135                 0.3603                 0.4029

                     28                     29                     30
                      A                      A                      A
 Frequencies --    991.6586              1010.6018              1024.5383
 Red. masses --      1.3397                 2.8801                 3.3083
 Frc consts  --      0.7762                 1.7331                 2.0460
 IR Inten    --      0.8722                 4.6817                10.1912

                     31                     32                     33
                      A                      A                      A
 Frequencies --   1073.2598              1083.6895              1124.0956
 Red. masses --      1.4835                 2.4407                 2.5937
 Frc consts  --      1.0068                 1.6888                 1.9310
 IR Inten    --      2.4013                 2.5069                 8.1920

                     34                     35                     36
                      A                      A                      A
 Frequencies --   1170.0201              1196.1307              1248.3573
 Red. masses --      1.3376                 2.0541                 2.3067
 Frc consts  --      1.0789                 1.7315                 2.1180
 IR Inten    --      1.3525                16.3239                 2.6986

                     37                     38                     39
                      A                      A                      A
 Frequencies --   1254.6100              1285.0280              1327.7062
 Red. masses --      1.9047                 3.4372                 6.3521
 Frc consts  --      1.7665                 3.3442                 6.5974
 IR Inten    --      6.0058                22.1696                 0.8169

                     40                     41                     42
                      A                      A                      A
 Frequencies --   1352.6246              1437.5522              1440.6369
 Red. masses --      2.5769                 1.5465                 1.7985
 Frc consts  --      2.7778                 1.8830                 2.1992
 IR Inten    --      9.3262                 4.5136                 5.8168

                     43                     44                     45
                      A                      A                      A
 Frequencies --   1456.5472              1472.7099              1501.1963
 Red. masses --      3.2380                 2.6662                 1.0421
 Frc consts  --      4.0474                 3.4071                 1.3837
 IR Inten    --     37.0515                12.2302                 6.6140

                     46                     47                     48
                      A                      A                      A
 Frequencies --   1509.2778              1522.1883              1534.4207
 Red. masses --      1.4863                 2.0934                 7.4217
 Frc consts  --      1.9948                 2.8578                10.2954
 IR Inten    --     15.8561                34.0574                 2.8062

                     49                     50                     51
                      A                      A                      A
 Frequencies --   1588.6296              1637.0969              1654.0220
 Red. masses --      5.2018                 5.8461                 6.5343
 Frc consts  --      7.7348                 9.2313                10.5324
 IR Inten    --     15.7168                16.3401                 2.8450

                     52                     53                     54
                      A                      A                      A
 Frequencies --   1693.9984              3056.2628              3112.5320
 Red. masses --      7.9796                 1.0368                 1.1016
 Frc consts  --     13.4915                 5.7059                 6.2879
 IR Inten    --     55.7937                22.5255                 7.8894

                     55                     56                     57
                      A                      A                      A
 Frequencies --   3147.5191              3174.5239              3185.5449
 Red. masses --      1.1011                 1.0891                 1.0878
 Frc consts  --      6.4272                 6.4664                 6.5037
 IR Inten    --      8.3961                21.0946                 0.8858

                     58                     59                     60
                      A                      A                      A
 Frequencies --   3188.5764              3207.0912              3214.8541
 Red. masses --      1.0885                 1.0959                 1.0961
 Frc consts  --      6.5201                 6.6413                 6.6746
 IR Inten    --     13.6593                21.2288                25.1795

 - Thermochemistry -
 -------------------
 Temperature   298.150 Kelvin.  Pressure   1.00000 Atm.
 Atom     1 has atomic number  6 and mass  12.00000

 Molecular mass:   184.06366 amu.
 Principal axes and moments of inertia in atomic units:
                           1         2         3
     Eigenvalues --  1014.371773521.361304524.47015
           X            0.99991   0.01331  -0.00000
           Y           -0.01331   0.99991   0.00000
           Z            0.00000  -0.00000   1.00000
 This molecule is an asymmetric top.
 Rotational symmetry number  1.
 Warning -- assumption of classical behavior for rotation
           may cause significant error
 Rotational temperatures (Kelvin)      0.08539     0.02460     0.01914
 Rotational constants (GHZ):           1.77917     0.51251     0.39888
 Zero-point vibrational energy     441880.1 (Joules/Mol)
                                  105.61188 (Kcal/Mol)
 Warning -- explicit consideration of  14 degrees of freedom as
           vibrations may cause significant error
 Vibrational temperatures:    105.47   129.55   176.35   277.90   308.91
          (Kelvin)            378.63   444.17   492.89   615.58   624.13
                              702.99   771.98   781.20   838.85   906.18
                              908.10   976.06  1015.79  1037.79  1134.89
                             1170.45  1189.31  1217.35  1274.22  1328.14
                             1380.67  1392.80  1426.78  1454.03  1474.08
                             1544.18  1559.19  1617.32  1683.40  1720.97
                             1796.11  1805.10  1848.87  1910.27  1946.13
                             2068.32  2072.76  2095.65  2118.90  2159.89
                             2171.51  2190.09  2207.69  2285.68  2355.42
                             2379.77  2437.29  4397.28  4478.24  4528.58
                             4567.43  4583.29  4587.65  4614.29  4625.46

 Zero-point correction=                           0.168303 (Hartree/Particle)
 Thermal correction to Energy=                    0.178522
 Thermal correction to Enthalpy=                  0.179466
 Thermal correction to Gibbs Free Energy=         0.132096
 Sum of electronic and zero-point Energies=           -608.554832
 Sum of electronic and thermal Energies=              -608.544613
 Sum of electronic and thermal Enthalpies=            -608.543669
 Sum of electronic and thermal Free Energies=         -608.591039

                     E (Thermal)             CV                S
                      KCal/Mol        Cal/Mol-Kelvin    Cal/Mol-Kelvin
 Total                  112.024             40.644             99.698
 Electronic               0.000              0.000              0.000
 Translational            0.889              2.981             41.537
 Rotational               0.889              2.981             31.158
 Vibrational            110.247             34.682             27.003
 Vibration     1          0.599              1.967              4.063
 Vibration     2          0.602              1.956              3.659
 Vibration     3          0.610              1.930              3.059
 Vibration     4          0.635              1.849              2.197
 Vibration     5          0.645              1.819              2.003
 Vibration     6          0.670              1.740              1.641
 Vibration     7          0.698              1.657              1.369
 Vibration     8          0.722              1.590              1.200
 Vibration     9          0.789              1.410              0.866
 Vibration    10          0.795              1.397              0.846
 Vibration    11          0.844              1.275              0.687
 Vibration    12          0.892              1.169              0.573
 Vibration    13          0.898              1.155              0.559
 Vibration    14          0.940              1.068              0.480

 Optimization completed.
    -- Stationary point found.
 Normal termination of Gaussian 16 at Thu Dec 10 09:20:56 2020.

 ----------------------------------------------------------------------
 # B3LYP/6-311++G(d,p) empiricaldispersion=gd3bj scf=xqc pop=npa geom=c
 heck
 ----------------------------------------------------------------------

 --------------------------------------
 CID_85561873_JID_4087_Energie_neutraal
 --------------------------------------
 Structure from the checkpoint file:  "JID_4087.chk"
 Charge =  0 Multiplicity = 1

 SCF Done:  E(RB3LYP) =  -608.873571022     A.U. after   16 cycles
 Normal termination of Gaussian 16 at Thu Dec 10 09:22:56 2020.

 ----------------------------------------------------------------------
 # B3LYP/6-311++G(d,p) empiricaldispersion=gd3bj scf=xqc pop=npa geom=c
 heck
 ----------------------------------------------------------------------

 ------------------------------------
 CID_85561873_JID_4087_Energie_kation
 ------------------------------------
 Structure from the checkpoint file:  "JID_4087.chk"
 Charge =  1 Multiplicity = 2

 SCF Done:  E(UB3LYP) =  -608.580317228     A.U. after   24 cycles
 Normal termination of Gaussian 16 at Thu Dec 10 09:26:40 2020.
 Gaussian 16:  ES64L-G16RevA.03 25-Dec-2016

 ----------------------------------------------------------------------
 # B3LYP/6-311++G(d,p) empiricaldispersion=gd3bj scf=xqc pop=npa geom=c
 heck
 ----------------------------------------------------------------------

 -----------------------------------
 CID_85561873_JID_4087_Energie_anion
 -----------------------------------
 Structure from the checkpoint file:  "JID_4087.chk"
 Charge = -1 Multiplicity = 2

                         Standard orientation:
 ---------------------------------------------------------------------
 Center     Atomic      Atomic             Coordinates (Angstroms)
 Number     Number       Type             X           Y           Z
 ---------------------------------------------------------------------
      1          6           0        4.011345    0.463560   -0.000064
      2          6           0        2.630061   -0.085063   -0.000028
      3          6           0        1.379989    0.487417   -0.000054
      4          6           0        0.882273    1.829829    0.000040
      5          6           0       -0.462901    2.022390    0.000045
      6          6           0       -1.397959    0.915555    0.000011
      7          6           0       -0.949191   -0.436469   -0.000018
      8          6           0        0.488410   -0.639242   -0.000019
      9          7           0        1.135963   -1.790818    0.000056
     10          8           0        2.491472   -1.424200    0.000073
     11          7           0       -1.777809   -1.496132   -0.000017
     12          6           0       -3.084818   -1.257480   -0.000015
     13          6           0       -3.642669    0.031574   -0.000021
     14          6           0       -2.790417    1.121458   -0.000005
     15          1           0        4.566711    0.131498   -0.884598
     16          1           0        4.566811    0.131495    0.884428
     17          1           0        3.980446    1.556127   -0.000039
     18          1           0        1.569446    2.670702    0.000081
     19          1           0       -0.874229    3.028157    0.000088
     20          1           0       -3.731108   -2.133342   -0.000023
     21          1           0       -4.720519    0.160474   -0.000037
     22          1           0       -3.181153    2.135978    0.000000
 ---------------------------------------------------------------------

 SCF Done:  E(UB3LYP) =  -608.885726326     A.U. after   28 cycles

 The electronic state is 2-A.
 Alpha  occ. eigenvalues --  -19.03373 -14.18429 -14.16257 -10.07159 -10.06055
 Alpha  occ. eigenvalues --  -10.05603 -10.05098 -10.04975 -10.04678 -10.03690
 Alpha  occ. eigenvalues --  -10.03476 -10.02732 -10.02449 -10.02361  -0.97604
 Alpha  occ. eigenvalues --   -0.79830  -0.71673  -0.69254  -0.66409  -0.62911
 Alpha  occ. eigenvalues --   -0.60697  -0.57391  -0.50970  -0.49702  -0.46475
 Alpha  occ. eigenvalues --   -0.42158  -0.40250  -0.37677  -0.34718  -0.33355
 Alpha  occ. eigenvalues --   -0.33260  -0.32637  -0.29404  -0.29056  -0.28695
 Alpha  occ. eigenvalues --   -0.26625  -0.26309  -0.26177  -0.24057  -0.22329
 Alpha  occ. eigenvalues --   -0.20954  -0.19831  -0.16985  -0.14601  -0.13529
 Alpha  occ. eigenvalues --   -0.11375  -0.11198  -0.07444   0.04635
 Alpha virt. eigenvalues --    0.08204   0.08693   0.09200   0.09932   0.11004
 Alpha virt. eigenvalues --    0.11871   0.11949   0.13405   0.14054   0.14522
 Alpha virt. eigenvalues --    0.15554   0.16406   0.16485   0.17317   0.17817

  Beta  occ. eigenvalues --  -19.02962 -14.18141 -14.16343 -10.06762 -10.06087
  Beta  occ. eigenvalues --  -10.05449 -10.05022 -10.04808 -10.04744 -10.03586
  Beta  occ. eigenvalues --  -10.03333 -10.02855 -10.02353 -10.02107  -0.96931
  Beta  occ. eigenvalues --   -0.79653  -0.71346  -0.68821  -0.66154  -0.62550
  Beta  occ. eigenvalues --   -0.60307  -0.57150  -0.50644  -0.49267  -0.46292
  Beta  occ. eigenvalues --   -0.41922  -0.39962  -0.37488  -0.34490  -0.33035
  Beta  occ. eigenvalues --   -0.32420  -0.32289  -0.29241  -0.28972  -0.28026
  Beta  occ. eigenvalues --   -0.26569  -0.26047  -0.25381  -0.23867  -0.22060
  Beta  occ. eigenvalues --   -0.20776  -0.18805  -0.16190  -0.14255  -0.12259
  Beta  occ. eigenvalues --   -0.11207  -0.10340  -0.05658
  Beta virt. eigenvalues --    0.08159   0.08664   0.09627   0.09903   0.10242
  Beta virt. eigenvalues --    0.10973   0.11923   0.12137   0.13321   0.14461
  Beta virt. eigenvalues --    0.14908   0.16476   0.16526   0.16683   0.17261

 Mulliken charges and spin densities:
               1          2
     1  C   -0.336317  -0.018350
     2  C   -0.141684   0.264009
     3  C    1.136462  -0.082973
     4  C   -1.205463   0.255222
     5  C   -0.175905  -0.014922
     6  C    1.764824   0.131317
     7  C   -2.025629   0.160252
     8  C   -0.441771  -0.074857
     9  N   -0.514726   0.140203
    10  O    0.196653   0.095833
    11  N    0.071617  -0.049878
    12  C    0.187014   0.122349
    13  C   -0.473050   0.076643
    14  C    0.072774  -0.027404
    15  H    0.120483   0.029690
    16  H    0.120453   0.029707
    17  H    0.148499   0.000313
    18  H    0.049449  -0.019670
    19  H    0.079052  -0.005031
    20  H    0.146114  -0.008857
    21  H    0.120373  -0.007377
    22  H    0.100777   0.003783
 Sum of Mulliken charges =  -1.00000   1.00000

 Dipole moment (field-independent basis, Debye):
    X=              0.0469    Y=              4.4425    Z=             -0.0001  Tot=              4.4428
 Quadrupole moment (field-independent basis, Debye-Ang):
   XX=           -101.9344   YY=           -102.0530   ZZ=            -89.6269
   XY=              3.2560   XZ=             -0.0005   YZ=              0.0005

 Summary of Natural Population Analysis:

                                       Natural Population
                Natural  -----------------------------------------------
    Atom  No    Charge         Core      Valence    Rydberg      Total
 -----------------------------------------------------------------------
      C    1   -0.30745      0.99964     2.30348    0.00433     3.30745
      C    2    0.23649      0.99947     1.75077    0.01327     2.76351
      C    3   -0.11274      0.99945     2.10526    0.00803     3.11274
      C    4   -0.03329      0.99955     2.02542    0.00832     3.03329
      C    5   -0.11235      0.99956     2.10341    0.00938     3.11235
      C    6   -0.01986      0.99951     2.01118    0.00916     3.01986
      C    7    0.14112      0.99937     1.84656    0.01295     2.85888
      C    8    0.05286      0.99953     1.93372    0.01389     2.94714
      N    9   -0.04309      0.99968     2.53005    0.01336     3.54309
      O   10   -0.13740      0.99985     3.12623    0.01132     4.13740
      N   11   -0.23484      0.99969     2.72421    0.01093     3.73484
      C   12    0.04213      0.99961     1.94308    0.01518     2.95787
      C   13   -0.12118      0.99957     2.11255    0.00906     3.12118
      C   14   -0.09155      0.99954     2.08330    0.00872     3.09155
      H   15    0.10401      0.00000     0.39483    0.00115     0.39599
      H   16    0.10401      0.00000     0.39483    0.00115     0.39599
      H   17    0.10155      0.00000     0.39763    0.00081     0.39845
      H   18    0.08673      0.00000     0.41155    0.00171     0.41327
      H   19    0.08690      0.00000     0.41132    0.00178     0.41310
      H   20    0.07667      0.00000     0.42201    0.00132     0.42333
      H   21    0.09071      0.00000     0.40804    0.00126     0.40929
      H   22    0.09056      0.00000     0.40785    0.00158     0.40944
 =======================================================================
   * Total *    0.00000     13.99401    33.84731    0.15868    48.00000

 Normal termination of Gaussian 16 at Thu Dec 10 09:31:23 2020.
