 Gaussian 16, Revision A.03,

 -----------------------------------------------------------
 # opt freq B3LYP/6-31G(d) empiricaldispersion=gd3bj scf=xqc
 -----------------------------------------------------------

 ------------------------------
 CID_85979027_JID_9063_neutraal
 ------------------------------
 Symbolic Z-matrix:
 Charge =  0 Multiplicity = 1

 SCF Done:  E(RB3LYP) =  -806.726035032     A.U. after   15 cycles
 SCF Done:  E(RB3LYP) =  -806.729624144     A.U. after   13 cycles
 SCF Done:  E(RB3LYP) =  -806.729774370     A.U. after   12 cycles
 SCF Done:  E(RB3LYP) =  -806.730349146     A.U. after   12 cycles
 SCF Done:  E(RB3LYP) =  -806.730240386     A.U. after   11 cycles
 SCF Done:  E(RB3LYP) =  -806.730469269     A.U. after   11 cycles
 SCF Done:  E(RB3LYP) =  -806.730572601     A.U. after   12 cycles
 SCF Done:  E(RB3LYP) =  -806.730591796     A.U. after   12 cycles
 SCF Done:  E(RB3LYP) =  -806.730601281     A.U. after   10 cycles
 SCF Done:  E(RB3LYP) =  -806.730602918     A.U. after    9 cycles
 SCF Done:  E(RB3LYP) =  -806.730603322     A.U. after    8 cycles
 SCF Done:  E(RB3LYP) =  -806.730603455     A.U. after    8 cycles
 SCF Done:  E(RB3LYP) =  -806.730603501     A.U. after    7 cycles
 Optimization completed.
    -- Stationary point found.
 Normal termination of Gaussian 16 at Sun Dec 13 16:08:50 2020.

 --------------------------------------------------------------------
 #N Geom=AllCheck Guess=TCheck SCRF=Check GenChk RB3LYP/6-31G(d) Freq
 --------------------------------------------------------------------

 Structure from the checkpoint file:  "JID_9063.chk"
 ------------------------------
 CID_85979027_JID_9063_neutraal
 ------------------------------
 Charge =  0 Multiplicity = 1

 SCF Done:  E(RB3LYP) =  -806.730603501     A.U. after    1 cycles

  Exact polarizability: 271.649  -9.134 157.092  12.056   0.834 108.889
 Approx polarizability: 346.902  -7.392 293.502  25.695   1.469 190.099

                      1                      2                      3
                      A                      A                      A
 Frequencies --     15.2718                28.0546                39.0534
 Red. masses --      4.5083                 4.0307                 3.8153
 Frc consts  --      0.0006                 0.0019                 0.0034
 IR Inten    --      0.4168                 0.4513                 0.3525

                      4                      5                      6
                      A                      A                      A
 Frequencies --     55.6824                67.4673                98.5054
 Red. masses --      4.8814                 4.4684                 4.7203
 Frc consts  --      0.0089                 0.0120                 0.0270
 IR Inten    --      0.5483                 0.8576                 0.6774

                      7                      8                      9
                      A                      A                      A
 Frequencies --    149.4000               169.6314               218.3378
 Red. masses --      5.6502                 5.6787                 5.3033
 Frc consts  --      0.0743                 0.0963                 0.1490
 IR Inten    --      2.0680                 1.1218                 0.3113

                     10                     11                     12
                      A                      A                      A
 Frequencies --    226.6984               290.5711               328.7858
 Red. masses --      5.3880                 5.2690                 5.1998
 Frc consts  --      0.1631                 0.2621                 0.3312
 IR Inten    --      2.2541                 5.6985                 0.7548

                     13                     14                     15
                      A                      A                      A
 Frequencies --    372.8802               409.8921               414.0992
 Red. masses --      5.6852                 4.7855                 3.1465
 Frc consts  --      0.4657                 0.4737                 0.3179
 IR Inten    --      0.7612                 4.3217                 3.1409

                     16                     17                     18
                      A                      A                      A
 Frequencies --    426.7141               442.5006               473.8916
 Red. masses --      3.0924                 2.6461                 4.6059
 Frc consts  --      0.3318                 0.3053                 0.6094
 IR Inten    --      0.0473                18.4119                 7.1770

                     19                     20                     21
                      A                      A                      A
 Frequencies --    526.6591               586.5053               633.8431
 Red. masses --      4.2821                 4.1795                 6.4054
 Frc consts  --      0.6998                 0.8471                 1.5162
 IR Inten    --      4.3075                 0.8041                 0.4662

                     22                     23                     24
                      A                      A                      A
 Frequencies --    647.1819               651.2127               681.0190
 Red. masses --      5.0921                 6.4559                 4.6264
 Frc consts  --      1.2566                 1.6131                 1.2642
 IR Inten    --      6.8593                 8.1421                16.3767

                     25                     26                     27
                      A                      A                      A
 Frequencies --    700.3901               715.9411               720.7522
 Red. masses --      3.9884                 1.6347                 1.2564
 Frc consts  --      1.1527                 0.4937                 0.3845
 IR Inten    --      4.9999                56.5465                33.5768

                     28                     29                     30
                      A                      A                      A
 Frequencies --    728.5722               758.9233               811.2071
 Red. masses --      4.7072                 2.9063                 2.3489
 Frc consts  --      1.4722                 0.9863                 0.9107
 IR Inten    --      3.5192                21.9215                 8.0051

                     31                     32                     33
                      A                      A                      A
 Frequencies --    815.3413               841.3773               860.5320
 Red. masses --      3.8464                 5.7652                 1.3959
 Frc consts  --      1.5066                 2.4046                 0.6090
 IR Inten    --      5.6162                 0.0406                10.6902

                     34                     35                     36
                      A                      A                      A
 Frequencies --    870.3977               873.6723               911.9177
 Red. masses --      1.2474                 1.6726                 1.3409
 Frc consts  --      0.5568                 0.7522                 0.6570
 IR Inten    --      1.1663                15.3467                 2.9704

                     37                     38                     39
                      A                      A                      A
 Frequencies --    942.3834               951.2333               959.6814
 Red. masses --      2.6282                 2.2931                 2.2359
 Frc consts  --      1.3752                 1.2225                 1.2133
 IR Inten    --     85.5751                14.5929                24.5738

                     40                     41                     42
                      A                      A                      A
 Frequencies --    965.9634               974.6070               984.5421
 Red. masses --      2.3554                 1.3567                 1.3339
 Frc consts  --      1.2949                 0.7593                 0.7618
 IR Inten    --     20.7378                 3.1918                 1.5546

                     43                     44                     45
                      A                      A                      A
 Frequencies --    990.1308              1005.2721              1019.0488
 Red. masses --      1.3424                 1.2678                 2.9781
 Frc consts  --      0.7754                 0.7549                 1.8221
 IR Inten    --      4.2742                 1.0540                13.0573

                     46                     47                     48
                      A                      A                      A
 Frequencies --   1022.6115              1036.9626              1044.2604
 Red. masses --      6.1334                 2.5082                 2.6495
 Frc consts  --      3.7790                 1.5890                 1.7023
 IR Inten    --      0.9611                 4.7980                 6.5964

                     49                     50                     51
                      A                      A                      A
 Frequencies --   1059.8805              1093.5896              1115.5801
 Red. masses --      2.1451                 2.6795                 1.5614
 Frc consts  --      1.4197                 1.8880                 1.1449
 IR Inten    --      2.0571               127.1506                 3.8326

                     52                     53                     54
                      A                      A                      A
 Frequencies --   1146.9800              1173.0799              1180.3034
 Red. masses --      1.3439                 1.2872                 3.1696
 Frc consts  --      1.0417                 1.0437                 2.6016
 IR Inten    --      4.6124                52.3810                 8.1136

                     55                     56                     57
                      A                      A                      A
 Frequencies --   1194.2529              1195.5284              1211.3367
 Red. masses --      1.3810                 1.1079                 1.1380
 Frc consts  --      1.1605                 0.9329                 0.9838
 IR Inten    --     35.5567                 0.5512                40.2273

                     58                     59                     60
                      A                      A                      A
 Frequencies --   1218.5352              1243.1298              1306.1275
 Red. masses --      1.2004                 2.2367                 1.4310
 Frc consts  --      1.0501                 2.0365                 1.4384
 IR Inten    --      1.1904                 2.6151                10.9381

                     61                     62                     63
                      A                      A                      A
 Frequencies --   1307.2688              1328.9516              1339.3771
 Red. masses --      3.8365                 1.2818                 1.5155
 Frc consts  --      3.8629                 1.3338                 1.6018
 IR Inten    --    322.2456                 2.9355                18.5427

                     64                     65                     66
                      A                      A                      A
 Frequencies --   1353.2906              1355.1960              1369.6280
 Red. masses --      2.0355                 3.9468                 2.7532
 Frc consts  --      2.1964                 4.2707                 3.0430
 IR Inten    --     31.9576                20.6848                 2.4216

                     67                     68                     69
                      A                      A                      A
 Frequencies --   1379.0567              1407.9087              1460.4317
 Red. masses --      1.5852                 1.8629                 2.6053
 Frc consts  --      1.7762                 2.1756                 3.2739
 IR Inten    --     10.8562                 6.4357                28.7274

                     70                     71                     72
                      A                      A                      A
 Frequencies --   1495.0473              1527.8879              1540.5553
 Red. masses --      2.2493                 1.0979                 2.1924
 Frc consts  --      2.9621                 1.5101                 3.0656
 IR Inten    --     14.8494                 0.3465                 1.0553

                     73                     74                     75
                      A                      A                      A
 Frequencies --   1557.5111              1625.4356              1638.9708
 Red. masses --      2.4982                 6.4329                 5.4559
 Frc consts  --      3.5706                10.0138                 8.6350
 IR Inten    --      1.9268                 3.9043                 5.7685

                     76                     77                     78
                      A                      A                      A
 Frequencies --   1660.9151              1670.5466              1707.0659
 Red. masses --      5.5488                 5.7673                 5.6265
 Frc consts  --      9.0187                 9.4828                 9.6603
 IR Inten    --     18.3174                67.0815                71.3656

                     79                     80                     81
                      A                      A                      A
 Frequencies --   1741.8285              3040.5075              3050.1972
 Red. masses --     12.2399                 1.0637                 1.0878
 Frc consts  --     21.8796                 5.7935                 5.9631
 IR Inten    --    156.1157                27.5168                20.5412

                     82                     83                     84
                      A                      A                      A
 Frequencies --   3082.7387              3180.5867              3186.6353
 Red. masses --      1.0994                 1.0890                 1.0855
 Frc consts  --      6.1556                 6.4907                 6.4943
 IR Inten    --     37.9404                14.6273                 0.0423

                     85                     86                     87
                      A                      A                      A
 Frequencies --   3197.4319              3208.0784              3215.0759
 Red. masses --      1.0892                 1.0934                 1.0876
 Frc consts  --      6.5612                 6.6302                 6.6235
 IR Inten    --     12.6952                34.6112                 1.6601

                     88                     89                     90
                      A                      A                      A
 Frequencies --   3216.8455              3220.9578              3224.8083
 Red. masses --      1.0933                 1.0924                 1.0938
 Frc consts  --      6.6655                 6.6776                 6.7018
 IR Inten    --      6.2855                 9.7062                 8.3619

                     91                     92                     93
                      A                      A                      A
 Frequencies --   3228.9421              3247.2519              3271.5458
 Red. masses --      1.0943                 1.0874                 1.1069
 Frc consts  --      6.7220                 6.7559                 6.9798
 IR Inten    --      4.9892                 2.8499                14.0257

 - Thermochemistry -
 -------------------
 Temperature   298.150 Kelvin.  Pressure   1.00000 Atm.
 Atom     1 has atomic number  6 and mass  12.00000

 Molecular mass:   250.09938 amu.
 Principal axes and moments of inertia in atomic units:
                           1         2         3
     Eigenvalues --  1402.70655********************
           X            0.99999  -0.00447  -0.00298
           Y            0.00444   0.99995  -0.00866
           Z            0.00302   0.00865   0.99996
 This molecule is an asymmetric top.
 Rotational symmetry number  1.
 Warning -- assumption of classical behavior for rotation
           may cause significant error
 Rotational temperatures (Kelvin)      0.06175     0.00719     0.00681
 Rotational constants (GHZ):           1.28661     0.14985     0.14195
 Zero-point vibrational energy     697640.5 (Joules/Mol)
                                  166.74008 (Kcal/Mol)
 Warning -- explicit consideration of  20 degrees of freedom as
           vibrations may cause significant error
 Vibrational temperatures:     21.97    40.36    56.19    80.11    97.07
          (Kelvin)            141.73   214.95   244.06   314.14   326.17
                              418.07   473.05   536.49   589.74   595.80
                              613.95   636.66   681.82   757.75   843.85
                              911.96   931.15   936.95   979.83  1007.71
                             1030.08  1037.00  1048.25  1091.92  1167.15
                             1173.09  1210.55  1238.11  1252.31  1257.02
                             1312.05  1355.88  1368.61  1380.77  1389.81
                             1402.24  1416.54  1424.58  1446.36  1466.18
                             1471.31  1491.96  1502.46  1524.93  1573.43
                             1605.07  1650.25  1687.80  1698.19  1718.26
                             1720.10  1742.84  1753.20  1788.59  1879.23
                             1880.87  1912.06  1927.06  1947.08  1949.82
                             1970.59  1984.15  2025.67  2101.24  2151.04
                             2198.29  2216.52  2240.91  2338.64  2358.11
                             2389.69  2403.54  2456.09  2506.10  4374.61
                             4388.55  4435.37  4576.15  4584.86  4600.39
                             4615.71  4625.78  4628.32  4634.24  4639.78
                             4645.73  4672.07  4707.02

 Zero-point correction=                           0.265717 (Hartree/Particle)
 Thermal correction to Energy=                    0.281083
 Thermal correction to Enthalpy=                  0.282027
 Thermal correction to Gibbs Free Energy=         0.219739
 Sum of electronic and zero-point Energies=           -806.464886
 Sum of electronic and thermal Energies=              -806.449521
 Sum of electronic and thermal Enthalpies=            -806.448576
 Sum of electronic and thermal Free Energies=         -806.510864

                     E (Thermal)             CV                S
                      KCal/Mol        Cal/Mol-Kelvin    Cal/Mol-Kelvin
 Total                  176.382             59.773            131.095
 Electronic               0.000              0.000              0.000
 Translational            0.889              2.981             42.450
 Rotational               0.889              2.981             33.729
 Vibrational            174.605             53.811             54.916
 Vibration     1          0.593              1.986              7.170
 Vibration     2          0.593              1.984              5.962
 Vibration     3          0.594              1.981              5.307
 Vibration     4          0.596              1.975              4.605
 Vibration     5          0.598              1.970              4.226
 Vibration     6          0.604              1.950              3.484
 Vibration     7          0.618              1.903              2.680
 Vibration     8          0.625              1.880              2.440
 Vibration     9          0.646              1.813              1.973
 Vibration    10          0.650              1.800              1.905
 Vibration    11          0.687              1.691              1.471
 Vibration    12          0.712              1.618              1.266
 Vibration    13          0.744              1.528              1.068
 Vibration    14          0.774              1.449              0.927
 Vibration    15          0.778              1.440              0.912
 Vibration    16          0.788              1.412              0.869
 Vibration    17          0.802              1.377              0.819
 Vibration    18          0.831              1.308              0.727
 Vibration    19          0.882              1.191              0.595
 Vibration    20          0.944              1.061              0.473

 Optimization completed on the basis of negligible forces.
    -- Stationary point found.
 Normal termination of Gaussian 16 at Sun Dec 13 16:23:09 2020.

 ----------------------------------------------------------------------
 # B3LYP/6-311++G(d,p) empiricaldispersion=gd3bj scf=xqc pop=npa geom=c
 heck
 ----------------------------------------------------------------------

 --------------------------------------
 CID_85979027_JID_9063_Energie_neutraal
 --------------------------------------
 Structure from the checkpoint file:  "JID_9063.chk"
 Charge =  0 Multiplicity = 1

 SCF Done:  E(RB3LYP) =  -806.942280227     A.U. after   16 cycles
 Normal termination of Gaussian 16 at Sun Dec 13 16:29:48 2020.

 ----------------------------------------------------------------------
 # B3LYP/6-311++G(d,p) empiricaldispersion=gd3bj scf=xqc pop=npa geom=c
 heck
 ----------------------------------------------------------------------

 ------------------------------------
 CID_85979027_JID_9063_Energie_kation
 ------------------------------------
 Structure from the checkpoint file:  "JID_9063.chk"
 Charge =  1 Multiplicity = 2

 SCF Done:  E(UB3LYP) =  -806.626202867     A.U. after   33 cycles
 SCF Done:  E(UB3LYP) =  -806.646559500     a.u. after    9 cycles
 Normal termination of Gaussian 16 at Sun Dec 13 18:22:34 2020.
 Gaussian 16:  ES64L-G16RevA.03 25-Dec-2016

 ----------------------------------------------------------------------
 # B3LYP/6-311++G(d,p) empiricaldispersion=gd3bj scf=xqc pop=npa geom=c
 heck
 ----------------------------------------------------------------------

 -----------------------------------
 CID_85979027_JID_9063_Energie_anion
 -----------------------------------
 Structure from the checkpoint file:  "JID_9063.chk"
 Charge = -1 Multiplicity = 2

                         Standard orientation:
 ---------------------------------------------------------------------
 Center     Atomic      Atomic             Coordinates (Angstroms)
 Number     Number       Type             X           Y           Z
 ---------------------------------------------------------------------
      1          6           0       -4.320719   -0.399221    1.294527
      2          6           0       -5.603194    0.118368    0.687139
      3          6           0       -5.484388    0.099325   -0.639358
      4          8           0       -4.299035   -0.395042   -1.118399
      5          6           0       -3.540518   -0.872876    0.026517
      6          6           0       -2.122246   -0.368987   -0.038230
      7          6           0       -1.828765    0.888502   -0.580801
      8          6           0       -0.527043    1.372261   -0.564902
      9          6           0        0.516813    0.602551   -0.029345
     10          6           0        0.220721   -0.653734    0.517600
     11          6           0       -1.088114   -1.130415    0.513435
     12          6           0        1.887927    1.199675   -0.000203
     13          8           0        2.025498    2.417836    0.034963
     14          6           0        3.093024    0.311122   -0.012013
     15          6           0        4.272986    0.798786    0.568995
     16          6           0        5.434449    0.033883    0.552406
     17          6           0        5.437904   -1.218108   -0.069471
     18          6           0        4.276308   -1.699487   -0.674204
     19          6           0        3.105928   -0.941998   -0.641341
     20          1           0       -4.469767   -1.227653    1.996423
     21          1           0       -3.770629    0.384719    1.831796
     22          1           0       -6.451087    0.493280    1.244013
     23          1           0       -6.172469    0.421125   -1.411317
     24          1           0       -3.546820   -1.967810   -0.030737
     25          1           0       -2.628779    1.473475   -1.021332
     26          1           0       -0.291382    2.351948   -0.966979
     27          1           0        1.009069   -1.251036    0.962785
     28          1           0       -1.307688   -2.104564    0.943921
     29          1           0        4.253997    1.782126    1.026858
     30          1           0        6.340121    0.412802    1.017317
     31          1           0        6.346698   -1.813191   -0.088089
     32          1           0        4.281368   -2.663474   -1.174788
     33          1           0        2.209225   -1.311986   -1.126888
 ---------------------------------------------------------------------

 SCF Done:  E(UB3LYP) =  -806.964650931     A.U. after   24 cycles

 The electronic state is 2-A.
 Alpha  occ. eigenvalues --  -19.05508 -18.91835 -10.13845 -10.13379 -10.08914
 Alpha  occ. eigenvalues --  -10.08006 -10.06562 -10.04888 -10.04831 -10.04742
 Alpha  occ. eigenvalues --  -10.04739 -10.04447 -10.04258 -10.04076 -10.04008
 Alpha  occ. eigenvalues --  -10.03457 -10.03406 -10.03363 -10.03239  -0.97538
 Alpha  occ. eigenvalues --   -0.86092  -0.73342  -0.72404  -0.70259  -0.67075
 Alpha  occ. eigenvalues --   -0.62733  -0.61735  -0.61718  -0.60408  -0.52928
 Alpha  occ. eigenvalues --   -0.50295  -0.49401  -0.47807  -0.46997  -0.45870
 Alpha  occ. eigenvalues --   -0.43098  -0.42045  -0.40032  -0.38125  -0.36132
 Alpha  occ. eigenvalues --   -0.34246  -0.32306  -0.32173  -0.31855  -0.31358
 Alpha  occ. eigenvalues --   -0.30051  -0.29640  -0.29547  -0.29358  -0.28965
 Alpha  occ. eigenvalues --   -0.27525  -0.26357  -0.25758  -0.24905  -0.23549
 Alpha  occ. eigenvalues --   -0.23125  -0.22146  -0.21685  -0.20887  -0.20375
 Alpha  occ. eigenvalues --   -0.13486  -0.13212  -0.12876  -0.12509  -0.12051
 Alpha  occ. eigenvalues --   -0.08541   0.03294
 Alpha virt. eigenvalues --    0.06276   0.07844   0.08246   0.08513   0.09583
 Alpha virt. eigenvalues --    0.09827   0.10057   0.10318   0.10454   0.10982
 Alpha virt. eigenvalues --    0.11230   0.11542   0.11943   0.12365   0.13166

  Beta  occ. eigenvalues --  -19.05499 -18.91214 -10.13843 -10.13395 -10.08888
  Beta  occ. eigenvalues --  -10.08004 -10.06242 -10.04884 -10.04794 -10.04769
  Beta  occ. eigenvalues --  -10.04628 -10.04503 -10.04063 -10.03984 -10.03917
  Beta  occ. eigenvalues --  -10.03409 -10.03296 -10.03239 -10.03184  -0.97520
  Beta  occ. eigenvalues --   -0.84985  -0.73103  -0.72204  -0.70222  -0.66898
  Beta  occ. eigenvalues --   -0.62411  -0.61557  -0.61500  -0.60205  -0.52694
  Beta  occ. eigenvalues --   -0.49938  -0.49184  -0.47676  -0.46862  -0.45658
  Beta  occ. eigenvalues --   -0.43064  -0.41750  -0.39958  -0.37958  -0.35980
  Beta  occ. eigenvalues --   -0.34052  -0.32184  -0.32043  -0.31718  -0.31222
  Beta  occ. eigenvalues --   -0.29975  -0.29587  -0.29489  -0.29291  -0.28712
  Beta  occ. eigenvalues --   -0.27267  -0.26204  -0.25326  -0.24043  -0.23036
  Beta  occ. eigenvalues --   -0.22903  -0.21979  -0.21193  -0.20693  -0.18752
  Beta  occ. eigenvalues --   -0.13418  -0.12756  -0.12421  -0.11613  -0.10632
  Beta  occ. eigenvalues --   -0.07841
  Beta virt. eigenvalues --    0.06257   0.07809   0.08219   0.08476   0.09028
  Beta virt. eigenvalues --    0.09609   0.09795   0.10262   0.10469   0.10829
  Beta virt. eigenvalues --    0.11213   0.11537   0.11763   0.12121   0.12359

 Mulliken charges and spin densities:
               1          2
     1  C   -0.617404  -0.000063
     2  C   -0.137240  -0.000489
     3  C   -0.139616   0.000775
     4  O   -0.079642   0.000689
     5  C   -0.016754  -0.019515
     6  C    0.586772   0.155151
     7  C   -0.314738  -0.044529
     8  C    0.121044   0.145489
     9  C    1.331800   0.043858
    10  C   -1.156682   0.061791
    11  C   -0.496218  -0.015272
    12  C   -1.610984   0.142031
    13  O   -0.343117   0.229323
    14  C    1.387122   0.034050
    15  C    0.270519   0.125109
    16  C   -0.320171  -0.031971
    17  C   -0.381559   0.154820
    18  C   -0.244605  -0.031302
    19  C   -0.946544   0.059329
    20  H    0.117370   0.004820
    21  H    0.165534  -0.001239
    22  H    0.141588   0.000765
    23  H    0.161203   0.000005
    24  H    0.209025   0.012116
    25  H    0.144610   0.003247
    26  H    0.194816  -0.008443
    27  H    0.155918  -0.004038
    28  H    0.122702   0.000929
    29  H    0.183215  -0.008029
    30  H    0.121451   0.003050
    31  H    0.106260  -0.012225
    32  H    0.124919   0.003450
    33  H    0.159406  -0.003683
 Sum of Mulliken charges =  -1.00000   1.00000

 Dipole moment (field-independent basis, Debye):
    X=             -7.0813    Y=             -4.0652    Z=              1.0852  Tot=              8.2370
 Quadrupole moment (field-independent basis, Debye-Ang):
   XX=           -164.1542   YY=           -131.0625   ZZ=           -120.5719
   XY=             -8.5903   XZ=             -1.5486   YZ=             -1.1525

 Summary of Natural Population Analysis:

                                       Natural Population
                Natural  -----------------------------------------------
    Atom  No    Charge         Core      Valence    Rydberg      Total
 -----------------------------------------------------------------------
      C    1   -0.20511      0.99963     2.19862    0.00687     3.20511
      C    2   -0.15936      0.99955     2.15097    0.00884     3.15936
      C    3    0.07792      0.99946     1.90900    0.01362     2.92208
      O    4   -0.28001      0.99988     3.27047    0.00965     4.28001
      C    5    0.06852      0.99952     1.91972    0.01224     2.93148
      C    6    0.00429      0.99948     1.98698    0.00926     2.99571
      C    7   -0.12013      0.99952     2.11231    0.00830     3.12013
      C    8   -0.05214      0.99954     2.04324    0.00937     3.05214
      C    9   -0.04589      0.99948     2.03671    0.00969     3.04589
      C   10   -0.07453      0.99954     2.06696    0.00803     3.07453
      C   11   -0.11905      0.99953     2.11123    0.00830     3.11905
      C   12    0.29328      0.99958     1.68650    0.02064     2.70672
      O   13   -0.23607      0.99988     3.23017    0.00602     4.23607
      C   14   -0.04731      0.99948     2.03792    0.00990     3.04731
      C   15   -0.05945      0.99953     2.05052    0.00940     3.05945
      C   16   -0.12506      0.99957     2.11612    0.00936     3.12506
      C   17   -0.07395      0.99958     2.06475    0.00963     3.07395
      C   18   -0.12160      0.99957     2.11254    0.00949     3.12160
      C   19   -0.07921      0.99954     2.07168    0.00799     3.07921
      H   20    0.09843      0.00000     0.40032    0.00125     0.40157
      H   21    0.10558      0.00000     0.39322    0.00120     0.39442
      H   22    0.10183      0.00000     0.39719    0.00097     0.39817
      H   23    0.09022      0.00000     0.40885    0.00092     0.40978
      H   24    0.08707      0.00000     0.41161    0.00131     0.41293
      H   25    0.09815      0.00000     0.40049    0.00136     0.40185
      H   26    0.10515      0.00000     0.39359    0.00126     0.39485
      H   27    0.10078      0.00000     0.39783    0.00139     0.39922
      H   28    0.09036      0.00000     0.40821    0.00143     0.40964
      H   29    0.10526      0.00000     0.39347    0.00127     0.39474
      H   30    0.09138      0.00000     0.40757    0.00105     0.40862
      H   31    0.08821      0.00000     0.41076    0.00103     0.41179
      H   32    0.09146      0.00000     0.40746    0.00108     0.40854
      H   33    0.10097      0.00000     0.39773    0.00130     0.39903
 =======================================================================
   * Total *   -0.00000     18.99187    46.80470    0.20343    66.00000

 Normal termination of Gaussian 16 at Sun Dec 13 18:36:55 2020.
