 Gaussian 16, Revision A.03,

 -----------------------------------------------------------
 # opt freq B3LYP/6-31G(d) empiricaldispersion=gd3bj scf=xqc
 -----------------------------------------------------------

 --------------------------------
 CID_145616061_JID_10024_neutraal
 --------------------------------
 Symbolic Z-matrix:
 Charge =  0 Multiplicity = 1

 SCF Done:  E(RB3LYP) =  -1183.74124793     A.U. after   16 cycles
 SCF Done:  E(RB3LYP) =  -1183.77966757     A.U. after   15 cycles
 SCF Done:  E(RB3LYP) =  -1183.80023521     A.U. after   16 cycles
 SCF Done:  E(RB3LYP) =  -1183.80283600     A.U. after   15 cycles
 SCF Done:  E(RB3LYP) =  -1183.79812571     A.U. after   15 cycles
 SCF Done:  E(RB3LYP) =  -1183.80164719     A.U. after   14 cycles
 SCF Done:  E(RB3LYP) =  -1183.80535705     A.U. after   11 cycles
 SCF Done:  E(RB3LYP) =  -1183.80579735     A.U. after   13 cycles
 SCF Done:  E(RB3LYP) =  -1183.80632294     A.U. after   12 cycles
 SCF Done:  E(RB3LYP) =  -1183.80633258     A.U. after   13 cycles
 SCF Done:  E(RB3LYP) =  -1183.80678995     A.U. after   10 cycles
 SCF Done:  E(RB3LYP) =  -1183.80679237     A.U. after    9 cycles
 SCF Done:  E(RB3LYP) =  -1183.80679361     A.U. after    9 cycles
 SCF Done:  E(RB3LYP) =  -1183.80679441     A.U. after    8 cycles
 SCF Done:  E(RB3LYP) =  -1183.80679504     A.U. after    9 cycles
 SCF Done:  E(RB3LYP) =  -1183.80679511     A.U. after    7 cycles
 Optimization completed.
    -- Stationary point found.
 Normal termination of Gaussian 16 at Sun Dec 13 12:46:41 2020.

 --------------------------------------------------------------------
 #N Geom=AllCheck Guess=TCheck SCRF=Check GenChk RB3LYP/6-31G(d) Freq
 --------------------------------------------------------------------

 Structure from the checkpoint file:  "JID_10024.chk"
 --------------------------------
 CID_145616061_JID_10024_neutraal
 --------------------------------
 Charge =  0 Multiplicity = 1

 SCF Done:  E(RB3LYP) =  -1183.80679511     A.U. after    1 cycles

  Exact polarizability: 336.661 -36.155 181.068 -18.233 -38.347 131.408
 Approx polarizability: 487.748 -70.865 320.678 -26.917-101.299 235.018

                      1                      2                      3
                      A                      A                      A
 Frequencies --     20.5897                22.8682                35.7662
 Red. masses --      7.5441                 6.9175                 5.2499
 Frc consts  --      0.0019                 0.0021                 0.0040
 IR Inten    --      0.2193                 0.3706                 0.3004

                      4                      5                      6
                      A                      A                      A
 Frequencies --     55.8300                64.6799                81.3009
 Red. masses --     10.5775                 6.0462                 4.9564
 Frc consts  --      0.0194                 0.0149                 0.0193
 IR Inten    --      0.1026                 0.1316                 0.3927

                      7                      8                      9
                      A                      A                      A
 Frequencies --     89.1953               108.4964               120.2673
 Red. masses --      5.3817                 5.2978                 5.7222
 Frc consts  --      0.0252                 0.0367                 0.0488
 IR Inten    --      0.5773                 3.4592                 0.4569

                     10                     11                     12
                      A                      A                      A
 Frequencies --    163.1875               224.6483               245.5207
 Red. masses --      4.1988                 3.3291                 4.9635
 Frc consts  --      0.0659                 0.0990                 0.1763
 IR Inten    --      2.2357                 1.1437                 3.2263

                     13                     14                     15
                      A                      A                      A
 Frequencies --    270.4516               312.2635               341.6647
 Red. masses --      6.2709                 4.2204                 3.9515
 Frc consts  --      0.2702                 0.2425                 0.2718
 IR Inten    --      0.1663                 1.3003                 4.2802

                     16                     17                     18
                      A                      A                      A
 Frequencies --    386.2773               416.1584               422.8606
 Red. masses --      3.9786                 3.0507                 3.1332
 Frc consts  --      0.3498                 0.3113                 0.3301
 IR Inten    --      2.1023                 0.7213                 0.0268

                     19                     20                     21
                      A                      A                      A
 Frequencies --    442.0901               448.8770               451.7332
 Red. masses --      9.1735                 8.0131                 5.1986
 Frc consts  --      1.0563                 0.9513                 0.6250
 IR Inten    --      3.7568                 9.5652                 0.4520

                     22                     23                     24
                      A                      A                      A
 Frequencies --    472.9004               520.7411               570.5595
 Red. masses --      5.7031                 3.5763                 2.9006
 Frc consts  --      0.7515                 0.5714                 0.5563
 IR Inten    --      7.0046                 9.3077                20.1694

                     25                     26                     27
                      A                      A                      A
 Frequencies --    581.3341               629.1673               634.4400
 Red. masses --      6.7449                 6.6320                 6.4374
 Frc consts  --      1.3430                 1.5468                 1.5267
 IR Inten    --     40.9881                 6.4921                 0.2876

                     28                     29                     30
                      A                      A                      A
 Frequencies --    655.5503               700.5926               713.3644
 Red. masses --      6.9049                 8.0046                 1.9283
 Frc consts  --      1.7483                 2.3149                 0.5781
 IR Inten    --      0.1844                42.3092                21.0335

                     31                     32                     33
                      A                      A                      A
 Frequencies --    724.2510               736.7522               740.8492
 Red. masses --      5.3192                 3.0742                 5.4683
 Frc consts  --      1.6439                 0.9832                 1.7683
 IR Inten    --     46.6301                 9.9309                11.0104

                     34                     35                     36
                      A                      A                      A
 Frequencies --    777.4170               816.6464               846.4166
 Red. masses --      1.8337                 1.6557                 3.9791
 Frc consts  --      0.6530                 0.6506                 1.6796
 IR Inten    --     36.9420                 3.8953                 7.8980

                     37                     38                     39
                      A                      A                      A
 Frequencies --    855.4153               860.6402               868.5399
 Red. masses --      1.3495                 1.3066                 1.4778
 Frc consts  --      0.5818                 0.5702                 0.6568
 IR Inten    --      4.7071                 3.0149                25.9684

                     40                     41                     42
                      A                      A                      A
 Frequencies --    925.3307               931.8675               947.7916
 Red. masses --      1.3029                 1.4455                 4.7531
 Frc consts  --      0.6573                 0.7396                 2.5157
 IR Inten    --     16.9226                 5.3959                28.3343

                     43                     44                     45
                      A                      A                      A
 Frequencies --    966.0957               969.9119               990.6649
 Red. masses --      1.3379                 1.3447                 1.3069
 Frc consts  --      0.7357                 0.7453                 0.7557
 IR Inten    --      0.8030                 0.7444                 0.6246

                     46                     47                     48
                      A                      A                      A
 Frequencies --    995.5108              1020.8464              1028.3345
 Red. masses --      1.2496                 6.0011                 5.6493
 Frc consts  --      0.7297                 3.6847                 3.5198
 IR Inten    --      0.1597                 1.7557                 8.3078

                     49                     50                     51
                      A                      A                      A
 Frequencies --   1047.9584              1071.5336              1076.0676
 Red. masses --      2.9863                 2.2395                 3.1680
 Frc consts  --      1.9323                 1.5150                 2.1613
 IR Inten    --      4.8624                40.8257               142.5722

                     52                     53                     54
                      A                      A                      A
 Frequencies --   1096.6323              1116.2138              1139.6766
 Red. masses --      2.1508                 1.5967                 4.2245
 Frc consts  --      1.5239                 1.1721                 3.2329
 IR Inten    --      5.4254                 3.3056                25.1752

                     55                     56                     57
                      A                      A                      A
 Frequencies --   1151.1183              1194.6480              1196.0863
 Red. masses --      1.4053                 1.1180                 2.4603
 Frc consts  --      1.0972                 0.9401                 2.0738
 IR Inten    --      5.3673                 8.2344               225.7276

                     58                     59                     60
                      A                      A                      A
 Frequencies --   1215.7596              1222.5615              1249.5424
 Red. masses --      1.1522                 1.1993                 1.6772
 Frc consts  --      1.0034                 1.0562                 1.5429
 IR Inten    --     12.3271                16.0121                 5.8696

                     61                     62                     63
                      A                      A                      A
 Frequencies --   1317.2632              1323.3489              1325.6578
 Red. masses --      2.9183                 3.3113                 1.1756
 Frc consts  --      2.9835                 3.4167                 1.2173
 IR Inten    --      5.8326                 0.2721                 8.7899

                     64                     65                     66
                      A                      A                      A
 Frequencies --   1331.8043              1355.1818              1367.4783
 Red. masses --      1.5594                 2.8931                 1.5103
 Frc consts  --      1.6296                 3.1304                 1.6640
 IR Inten    --     23.7791                 0.1260                14.4348

                     67                     68                     69
                      A                      A                      A
 Frequencies --   1377.2250              1430.8664              1451.8643
 Red. masses --      1.6433                 1.3235                 2.3133
 Frc consts  --      1.8364                 1.5965                 2.8730
 IR Inten    --     15.2077                61.6736                20.7030

                     70                     71                     72
                      A                      A                      A
 Frequencies --   1483.6357              1503.4328              1517.7301
 Red. masses --      2.2009                 2.2658                 1.1617
 Frc consts  --      2.8544                 3.0175                 1.5766
 IR Inten    --     18.7966                 5.6915                 7.6091

                     73                     74                     75
                      A                      A                      A
 Frequencies --   1541.3570              1568.9721              1616.0073
 Red. masses --      2.1735                 2.6962                 5.5278
 Frc consts  --      3.0424                 3.9105                 8.5053
 IR Inten    --     29.5961                 2.9495                 3.3221

                     76                     77                     78
                      A                      A                      A
 Frequencies --   1641.8480              1663.9920              1670.5519
 Red. masses --      5.8085                 5.5344                 5.7507
 Frc consts  --      9.2253                 9.0286                 9.4556
 IR Inten    --      1.2656                 0.0640                26.5004

                     79                     80                     81
                      A                      A                      A
 Frequencies --   2050.2855              2138.3905              3077.6383
 Red. masses --     10.7210                11.8852                 1.0585
 Frc consts  --     26.5529                32.0207                 5.9073
 IR Inten    --    131.6873               853.9386                44.1001

                     82                     83                     84
                      A                      A                      A
 Frequencies --   3119.3042              3135.2248              3179.8071
 Red. masses --      1.0866                 1.1083                 1.0878
 Frc consts  --      6.2292                 6.4185                 6.4804
 IR Inten    --     17.1167                16.7762                19.4989

                     85                     86                     87
                      A                      A                      A
 Frequencies --   3182.6907              3189.3221              3198.7356
 Red. masses --      1.0848                 1.0875                 1.0908
 Frc consts  --      6.4742                 6.5173                 6.5757
 IR Inten    --      3.0414                 4.6356                22.9095

                     88                     89                     90
                      A                      A                      A
 Frequencies --   3202.2521              3205.6342              3207.4340
 Red. masses --      1.0918                 1.0912                 1.0921
 Frc consts  --      6.5963                 6.6064                 6.6194
 IR Inten    --      7.1356                 2.9854                38.4644

                     91                     92                     93
                      A                      A                      A
 Frequencies --   3208.3964              3213.5874              3223.4252
 Red. masses --      1.0906                 1.0976                 1.0929
 Frc consts  --      6.6147                 6.6787                 6.6909
 IR Inten    --     10.5875                24.0899                 3.5063

 - Thermochemistry -
 -------------------
 Temperature   298.150 Kelvin.  Pressure   1.00000 Atm.
 Atom     1 has atomic number  6 and mass  12.00000

 Molecular mass:   279.07179 amu.
 Principal axes and moments of inertia in atomic units:
                           1         2         3
     Eigenvalues --  2917.25377********************
           X            0.99997  -0.00808   0.00003
           Y            0.00808   0.99970  -0.02318
           Z            0.00016   0.02318   0.99973
 This molecule is an asymmetric top.
 Rotational symmetry number  1.
 Warning -- assumption of classical behavior for rotation
           may cause significant error
 Rotational temperatures (Kelvin)      0.02969     0.00691     0.00603
 Rotational constants (GHZ):           0.61864     0.14406     0.12573
 Zero-point vibrational energy     669937.5 (Joules/Mol)
                                  160.11890 (Kcal/Mol)
 Warning -- explicit consideration of  25 degrees of freedom as
           vibrations may cause significant error
 Vibrational temperatures:     29.62    32.90    51.46    80.33    93.06
          (Kelvin)            116.97   128.33   156.10   173.04   234.79
                              323.22   353.25   389.12   449.28   491.58
                              555.77   598.76   608.40   636.07   645.83
                              649.94   680.40   749.23   820.91   836.41
                              905.23   912.82   943.19  1008.00  1026.37
                             1042.04  1060.02  1065.92  1118.53  1174.97
                             1217.80  1230.75  1238.27  1249.64  1331.34
                             1340.75  1363.66  1390.00  1395.49  1425.35
                             1432.32  1468.77  1479.54  1507.78  1541.70
                             1548.22  1577.81  1605.98  1639.74  1656.20
                             1718.83  1720.90  1749.21  1758.99  1797.81
                             1895.25  1904.00  1907.33  1916.17  1949.80
                             1967.50  1981.52  2058.70  2088.91  2134.62
                             2163.10  2183.68  2217.67  2257.40  2325.07
                             2362.25  2394.11  2403.55  2949.90  3076.67
                             4428.04  4487.98  4510.89  4575.03  4579.18
                             4588.72  4602.27  4607.33  4612.19  4614.78
                             4616.17  4623.64  4637.79

 Zero-point correction=                           0.255166 (Hartree/Particle)
 Thermal correction to Energy=                    0.272683
 Thermal correction to Enthalpy=                  0.273627
 Thermal correction to Gibbs Free Energy=         0.206147
 Sum of electronic and zero-point Energies=          -1183.551629
 Sum of electronic and thermal Energies=             -1183.534112
 Sum of electronic and thermal Enthalpies=           -1183.533168
 Sum of electronic and thermal Free Energies=        -1183.600648

                     E (Thermal)             CV                S
                      KCal/Mol        Cal/Mol-Kelvin    Cal/Mol-Kelvin
 Total                  171.111             65.786            142.024
 Electronic               0.000              0.000              0.000
 Translational            0.889              2.981             42.777
 Rotational               0.889              2.981             34.616
 Vibrational            169.334             59.824             64.631
 Vibration     1          0.593              1.986              6.576
 Vibration     2          0.593              1.985              6.368
 Vibration     3          0.594              1.982              5.481
 Vibration     4          0.596              1.975              4.599
 Vibration     5          0.597              1.971              4.309
 Vibration     6          0.600              1.962              3.859
 Vibration     7          0.602              1.957              3.678
 Vibration     8          0.606              1.942              3.296
 Vibration     9          0.609              1.932              3.096
 Vibration    10          0.623              1.888              2.513
 Vibration    11          0.649              1.804              1.921
 Vibration    12          0.660              1.770              1.763
 Vibration    13          0.674              1.728              1.593
 Vibration    14          0.701              1.650              1.350
 Vibration    15          0.721              1.592              1.204
 Vibration    16          0.755              1.499              1.014
 Vibration    17          0.779              1.435              0.905
 Vibration    18          0.785              1.421              0.882
 Vibration    19          0.802              1.378              0.820
 Vibration    20          0.808              1.363              0.799
 Vibration    21          0.810              1.357              0.791
 Vibration    22          0.830              1.310              0.729
 Vibration    23          0.876              1.204              0.608
 Vibration    24          0.927              1.095              0.503
 Vibration    25          0.938              1.072              0.483

                           ! Non-Optimized Parameters !
 Normal termination of Gaussian 16 at Sun Dec 13 13:03:32 2020.

 ----------------------------------------------------------------------
 # B3LYP/6-311++G(d,p) empiricaldispersion=gd3bj scf=xqc pop=npa geom=c
 heck
 ----------------------------------------------------------------------

 ----------------------------------------
 CID_145616061_JID_10024_Energie_neutraal
 ----------------------------------------
 Structure from the checkpoint file:  "JID_10024.chk"
 Charge =  0 Multiplicity = 1

 SCF Done:  E(RB3LYP) =  -1184.03508709     A.U. after   17 cycles
 Normal termination of Gaussian 16 at Sun Dec 13 13:11:55 2020.

 ----------------------------------------------------------------------
 # B3LYP/6-311++G(d,p) empiricaldispersion=gd3bj scf=xqc pop=npa geom=c
 heck
 ----------------------------------------------------------------------

 --------------------------------------
 CID_145616061_JID_10024_Energie_kation
 --------------------------------------
 Structure from the checkpoint file:  "JID_10024.chk"
 Charge =  1 Multiplicity = 2

 SCF Done:  E(UB3LYP) =  -1183.75560375     A.U. after   30 cycles
 Normal termination of Gaussian 16 at Sun Dec 13 13:33:00 2020.
 Gaussian 16:  ES64L-G16RevA.03 25-Dec-2016

 ----------------------------------------------------------------------
 # B3LYP/6-311++G(d,p) empiricaldispersion=gd3bj scf=xqc pop=npa geom=c
 heck
 ----------------------------------------------------------------------

 -------------------------------------
 CID_145616061_JID_10024_Energie_anion
 -------------------------------------
 Structure from the checkpoint file:  "JID_10024.chk"
 Charge = -1 Multiplicity = 2

                         Standard orientation:
 ---------------------------------------------------------------------
 Center     Atomic      Atomic             Coordinates (Angstroms)
 Number     Number       Type             X           Y           Z
 ---------------------------------------------------------------------
      1          6           0       -5.922318    0.846935    0.080223
      2          6           0       -5.099323    1.152974   -1.004694
      3          6           0       -3.799111    0.656211   -1.061074
      4          6           0       -3.293049   -0.156901   -0.033951
      5          6           0       -4.131933   -0.455577    1.052003
      6          6           0       -5.432493    0.040245    1.108519
      7          6           0       -1.911661   -0.684652   -0.094794
      8          6           0       -0.865129    0.084942   -0.635402
      9          6           0        0.430178   -0.405769   -0.694019
     10          6           0        0.735733   -1.685206   -0.203337
     11          6           0       -0.304077   -2.457828    0.333908
     12          6           0       -1.604404   -1.967454    0.385056
     13          6           0        2.105648   -2.217309   -0.219141
     14          6           0        3.174944   -1.580784   -0.649416
     15          6           0        4.204310   -0.901664   -1.084600
     16          8           0        5.018371   -0.068131   -0.332549
     17          6           0        4.643804    0.101246    1.012279
     18          7           0        3.486847    0.939890    1.181975
     19          6           0        2.871331    1.813488    0.636540
     20         16           0        1.978403    2.964118    0.009252
     21          1           0       -6.936124    1.234429    0.124426
     22          1           0       -5.473188    1.773831   -1.814134
     23          1           0       -3.174908    0.877503   -1.921623
     24          1           0       -3.749267   -1.058062    1.870472
     25          1           0       -6.061487   -0.195981    1.962369
     26          1           0       -1.065888    1.093244   -0.983720
     27          1           0        1.222076    0.208628   -1.108422
     28          1           0       -0.088585   -3.455289    0.709429
     29          1           0       -2.398044   -2.594393    0.780002
     30          1           0        2.221079   -3.228329    0.178072
     31          1           0        4.554165   -0.926992   -2.112184
     32          1           0        4.430034   -0.863943    1.482761
     33          1           0        5.496087    0.577905    1.502480
 ---------------------------------------------------------------------

 SCF Done:  E(UB3LYP) =  -1184.05163056     A.U. after   26 cycles

 The electronic state is 2-A.
 Alpha  occ. eigenvalues --  -88.74308 -19.04822 -14.24632 -10.18095 -10.17350
 Alpha  occ. eigenvalues --  -10.10523 -10.06470 -10.06427 -10.06025 -10.05772
 Alpha  occ. eigenvalues --  -10.05575 -10.05554 -10.05106 -10.04112 -10.04059
 Alpha  occ. eigenvalues --  -10.03946 -10.03924 -10.03864 -10.03146 -10.02899
 Alpha  occ. eigenvalues --   -7.83048  -5.79433  -5.78808  -5.78675  -0.96982
 Alpha  occ. eigenvalues --   -0.85813  -0.74820  -0.72503  -0.69182  -0.67460
 Alpha  occ. eigenvalues --   -0.65090  -0.63549  -0.63279  -0.61419  -0.60003
 Alpha  occ. eigenvalues --   -0.55775  -0.50234  -0.49923  -0.47724  -0.46858
 Alpha  occ. eigenvalues --   -0.45105  -0.42403  -0.41493  -0.41237  -0.37986
 Alpha  occ. eigenvalues --   -0.36057  -0.35130  -0.34568  -0.33719  -0.33163
 Alpha  occ. eigenvalues --   -0.32203  -0.31265  -0.30812  -0.29975  -0.29649
 Alpha  occ. eigenvalues --   -0.28836  -0.28032  -0.26853  -0.26041  -0.25050
 Alpha  occ. eigenvalues --   -0.24561  -0.24292  -0.23551  -0.21738  -0.20790
 Alpha  occ. eigenvalues --   -0.18548  -0.16574  -0.15188  -0.14659  -0.14349
 Alpha  occ. eigenvalues --   -0.12720  -0.11450  -0.09370   0.03207
 Alpha virt. eigenvalues --    0.06081   0.07357   0.07693   0.08678   0.09058
 Alpha virt. eigenvalues --    0.09382   0.09442   0.09567   0.09777   0.10133
 Alpha virt. eigenvalues --    0.10732   0.11150   0.11488   0.12064   0.12445

  Beta  occ. eigenvalues --  -88.74305 -19.04713 -14.24642 -10.18082 -10.17282
  Beta  occ. eigenvalues --  -10.10560 -10.06501 -10.06454 -10.05976 -10.05620
  Beta  occ. eigenvalues --  -10.05496 -10.05480 -10.05007 -10.04041 -10.03953
  Beta  occ. eigenvalues --  -10.03934 -10.03902 -10.03638 -10.03043 -10.02557
  Beta  occ. eigenvalues --   -7.83045  -5.79434  -5.78795  -5.78673  -0.96753
  Beta  occ. eigenvalues --   -0.85756  -0.74613  -0.72237  -0.69082  -0.66990
  Beta  occ. eigenvalues --   -0.64825  -0.63421  -0.63067  -0.61205  -0.59607
  Beta  occ. eigenvalues --   -0.55523  -0.50044  -0.49714  -0.47487  -0.46772
  Beta  occ. eigenvalues --   -0.44860  -0.42249  -0.41314  -0.41153  -0.37797
  Beta  occ. eigenvalues --   -0.35869  -0.34985  -0.34475  -0.33534  -0.32985
  Beta  occ. eigenvalues --   -0.32062  -0.31230  -0.30661  -0.29837  -0.29545
  Beta  occ. eigenvalues --   -0.28695  -0.27921  -0.26713  -0.25584  -0.24913
  Beta  occ. eigenvalues --   -0.24381  -0.23755  -0.23358  -0.21565  -0.20696
  Beta  occ. eigenvalues --   -0.17317  -0.16495  -0.15105  -0.14319  -0.13474
  Beta  occ. eigenvalues --   -0.12110  -0.11209  -0.08051
  Beta virt. eigenvalues --    0.06329   0.07300   0.07340   0.08119   0.08643
  Beta virt. eigenvalues --    0.09049   0.09526   0.09588   0.09676   0.09822
  Beta virt. eigenvalues --    0.10703   0.10801   0.11377   0.11876   0.12077

 Mulliken charges and spin densities:
               1          2
     1  C   -0.327580   0.115294
     2  C   -0.431952  -0.019376
     3  C   -0.470168   0.051028
     4  C    1.227981   0.020450
     5  C   -0.436687   0.068414
     6  C   -0.321987  -0.020439
     7  C    0.774678   0.111579
     8  C   -0.585038  -0.001733
     9  C   -0.550240   0.106954
    10  C    0.654260   0.105232
    11  C   -0.333142   0.048027
    12  C   -0.676664   0.058419
    13  C   -0.441097   0.063429
    14  C    0.772722   0.298428
    15  C   -0.859654  -0.103006
    16  O   -0.018234  -0.035883
    17  C   -0.355971   0.048503
    18  N    0.084863  -0.004386
    19  C    0.110015   0.011157
    20  S   -0.325508   0.010752
    21  H    0.107570  -0.009451
    22  H    0.134682   0.001842
    23  H    0.137274  -0.002881
    24  H    0.124120  -0.003408
    25  H    0.135011   0.001898
    26  H    0.063640   0.002178
    27  H    0.049969  -0.011293
    28  H    0.108060  -0.000217
    29  H    0.099088   0.000678
    30  H    0.139038  -0.006496
    31  H    0.083725   0.070716
    32  H    0.193857  -0.004846
    33  H    0.133369   0.028436
 Sum of Mulliken charges =  -1.00000   1.00000

 Dipole moment (field-independent basis, Debye):
    X=              0.5832    Y=              0.3451    Z=              1.7129  Tot=              1.8421
 Quadrupole moment (field-independent basis, Debye-Ang):
   XX=           -187.6736   YY=           -145.3273   ZZ=           -131.8041
   XY=             -1.0200   XZ=              7.3891   YZ=             -6.4627

 Summary of Natural Population Analysis:

                                       Natural Population
                Natural  -----------------------------------------------
    Atom  No    Charge         Core      Valence    Rydberg      Total
 -----------------------------------------------------------------------
      C    1   -0.07802      0.99944     2.06887    0.00972     3.07802
      C    2   -0.11803      0.99960     2.10817    0.01026     3.11803
      C    3   -0.08253      0.99953     2.07535    0.00764     3.08253
      C    4   -0.00925      0.99950     2.00057    0.00918     3.00925
      C    5   -0.08268      0.99953     2.07546    0.00768     3.08268
      C    6   -0.11900      0.99960     2.10913    0.01026     3.11900
      C    7    0.00689      0.99949     1.98357    0.01005     2.99311
      C    8   -0.09965      0.99954     2.09276    0.00735     3.09965
      C    9   -0.07089      0.99953     2.06364    0.00772     3.07089
      C   10   -0.01326      0.99949     2.00387    0.00990     3.01326
      C   11   -0.08591      0.99954     2.07854    0.00783     3.08591
      C   12   -0.09607      0.99954     2.08896    0.00757     3.09607
      C   13   -0.10113      0.99947     2.09382    0.00784     3.10113
      C   14    0.03505      0.99947     1.95853    0.00695     2.96495
      C   15    0.01615      0.99935     1.97086    0.01364     2.98385
      O   16   -0.27338      0.99988     3.26420    0.00931     4.27338
      C   17    0.07380      0.99958     1.91121    0.01541     2.92620
      N   18   -0.23969      0.99947     2.72800    0.01221     3.73969
      C   19    0.13345      0.99952     1.85248    0.01455     2.86655
      S   20   -0.02353      4.99946     3.00801    0.01607     8.02353
      H   21    0.09057      0.00000     0.40825    0.00118     0.40943
      H   22    0.09325      0.00000     0.40569    0.00106     0.40675
      H   23    0.09841      0.00000     0.40028    0.00131     0.40159
      H   24    0.09760      0.00000     0.40102    0.00138     0.40240
      H   25    0.09296      0.00000     0.40598    0.00107     0.40704
      H   26    0.09642      0.00000     0.40224    0.00133     0.40358
      H   27    0.10055      0.00000     0.39774    0.00171     0.39945
      H   28    0.08942      0.00000     0.40911    0.00147     0.41058
      H   29    0.09310      0.00000     0.40554    0.00136     0.40690
      H   30    0.09592      0.00000     0.40237    0.00170     0.40408
      H   31    0.09408      0.00000     0.40378    0.00214     0.40592
      H   32    0.09504      0.00000     0.40389    0.00106     0.40496
      H   33    0.09036      0.00000     0.40872    0.00092     0.40964
 =======================================================================
   * Total *    0.00001     23.99054    48.79062    0.21883    72.99999

 Normal termination of Gaussian 16 at Sun Dec 13 13:51:41 2020.
