 Gaussian 16, Revision A.03,

 -----------------------------------------------------------
 # opt freq B3LYP/6-31G(d) empiricaldispersion=gd3bj scf=xqc
 -----------------------------------------------------------

 -------------------------------
 CID_115872973_JID_3181_neutraal
 -------------------------------
 Symbolic Z-matrix:
 Charge =  0 Multiplicity = 1

 SCF Done:  E(RB3LYP) =  -596.444723236     A.U. after   15 cycles
 SCF Done:  E(RB3LYP) =  -596.467904151     A.U. after   13 cycles
 SCF Done:  E(RB3LYP) =  -596.467647875     A.U. after   13 cycles
 SCF Done:  E(RB3LYP) =  -596.464650857     A.U. after   14 cycles
 SCF Done:  E(RB3LYP) =  -596.465531107     A.U. after   13 cycles
 SCF Done:  E(RB3LYP) =  -596.469291658     A.U. after   11 cycles
 SCF Done:  E(RB3LYP) =  -596.470277014     A.U. after   12 cycles
 SCF Done:  E(RB3LYP) =  -596.470964772     A.U. after   12 cycles
 SCF Done:  E(RB3LYP) =  -596.470170709     A.U. after   13 cycles
 SCF Done:  E(RB3LYP) =  -596.471276570     A.U. after   12 cycles
 SCF Done:  E(RB3LYP) =  -596.471529144     A.U. after    9 cycles
 SCF Done:  E(RB3LYP) =  -596.471529230     A.U. after    8 cycles
 SCF Done:  E(RB3LYP) =  -596.471529211     A.U. after    8 cycles
 SCF Done:  E(RB3LYP) =  -596.471529194     A.U. after    8 cycles
 SCF Done:  E(RB3LYP) =  -596.471529175     A.U. after    7 cycles
 Optimization completed.
    -- Stationary point found.
 Normal termination of Gaussian 16 at Wed Dec  9 22:39:40 2020.

 --------------------------------------------------------------------
 #N Geom=AllCheck Guess=TCheck SCRF=Check GenChk RB3LYP/6-31G(d) Freq
 --------------------------------------------------------------------

 Structure from the checkpoint file:  "JID_3181.chk"
 -------------------------------
 CID_115872973_JID_3181_neutraal
 -------------------------------
 Charge =  0 Multiplicity = 1

 SCF Done:  E(RB3LYP) =  -596.471529175     A.U. after    1 cycles

  Exact polarizability: 117.000   4.212 103.555  -7.040  -5.769 115.268
 Approx polarizability: 158.756  13.790 143.002 -13.923 -10.886 174.917

                      1                      2                      3
                      A                      A                      A
 Frequencies --     25.1226                36.3668                58.0035
 Red. masses --      4.8838                 3.9771                 5.0136
 Frc consts  --      0.0018                 0.0031                 0.0099
 IR Inten    --      5.3213                 1.5890                 0.7574

                      4                      5                      6
                      A                      A                      A
 Frequencies --     63.7117                77.5759               105.8328
 Red. masses --      3.6246                 4.6691                 2.5586
 Frc consts  --      0.0087                 0.0166                 0.0169
 IR Inten    --      1.1303                 0.3624                 0.4264

                      7                      8                      9
                      A                      A                      A
 Frequencies --    139.5265               144.6585               168.0593
 Red. masses --      1.4241                 2.4969                 2.8833
 Frc consts  --      0.0163                 0.0308                 0.0480
 IR Inten    --      0.7507                 0.6156                 0.6327

                     10                     11                     12
                      A                      A                      A
 Frequencies --    176.7941               202.0142               221.2425
 Red. masses --      2.7644                 2.1721                 1.4321
 Frc consts  --      0.0509                 0.0522                 0.0413
 IR Inten    --      1.4275                 7.7270                 1.2933

                     13                     14                     15
                      A                      A                      A
 Frequencies --    273.7706               302.3410               367.2356
 Red. masses --      2.5714                 3.4014                 2.9812
 Frc consts  --      0.1136                 0.1832                 0.2369
 IR Inten    --      0.9670                12.4599                 4.4077

                     16                     17                     18
                      A                      A                      A
 Frequencies --    372.0944               415.3636               426.8455
 Red. masses --      2.3892                 2.5696                 2.5519
 Frc consts  --      0.1949                 0.2612                 0.2739
 IR Inten    --      1.0733                 2.4516                11.8035

                     19                     20                     21
                      A                      A                      A
 Frequencies --    450.0259               484.9352               574.0105
 Red. masses --      2.1830                 2.4535                 3.3421
 Frc consts  --      0.2605                 0.3399                 0.6488
 IR Inten    --      2.9742                 0.8229                 0.9458

                     22                     23                     24
                      A                      A                      A
 Frequencies --    602.1425               611.3845               619.1231
 Red. masses --      1.2043                 1.2041                 3.9639
 Frc consts  --      0.2573                 0.2652                 0.8952
 IR Inten    --     52.7362                44.1043                 3.1394

                     25                     26                     27
                      A                      A                      A
 Frequencies --    720.9303               748.6963               791.8425
 Red. masses --      2.5632                 2.3931                 2.0502
 Frc consts  --      0.7849                 0.7903                 0.7574
 IR Inten    --      2.1879                 2.2022                 0.0553

                     28                     29                     30
                      A                      A                      A
 Frequencies --    841.8879               864.3146               926.0188
 Red. masses --      3.1347                 2.9382                 2.2921
 Frc consts  --      1.3090                 1.2932                 1.1581
 IR Inten    --      3.1672                19.6014                 1.8202

                     31                     32                     33
                      A                      A                      A
 Frequencies --    938.4263               955.5376              1014.8285
 Red. masses --      2.9627                 2.5864                 2.0811
 Frc consts  --      1.5372                 1.3913                 1.2628
 IR Inten    --      7.3141                 0.2359                23.0374

                     34                     35                     36
                      A                      A                      A
 Frequencies --   1044.2402              1063.2715              1074.7112
 Red. masses --      2.5554                 2.0789                 2.9985
 Frc consts  --      1.6417                 1.3848                 2.0405
 IR Inten    --     27.6757                 8.2455                 5.6025

                     37                     38                     39
                      A                      A                      A
 Frequencies --   1094.1576              1111.1220              1156.2440
 Red. masses --      2.6759                 1.8494                 1.3316
 Frc consts  --      1.8875                 1.3453                 1.0489
 IR Inten    --     30.0649                51.4017                10.8224

                     40                     41                     42
                      A                      A                      A
 Frequencies --   1179.4068              1187.5296              1205.1465
 Red. masses --      1.5557                 1.2921                 1.5240
 Frc consts  --      1.2750                 1.0736                 1.3041
 IR Inten    --    119.1566                 7.4888                17.6066

                     43                     44                     45
                      A                      A                      A
 Frequencies --   1219.2016              1236.8759              1246.0729
 Red. masses --      1.4652                 1.2533                 1.3774
 Frc consts  --      1.2832                 1.1297                 1.2600
 IR Inten    --      2.9694                24.5053                17.2282

                     46                     47                     48
                      A                      A                      A
 Frequencies --   1276.6712              1316.6145              1364.3257
 Red. masses --      1.9351                 1.3146                 1.9790
 Frc consts  --      1.8583                 1.3426                 2.1703
 IR Inten    --    122.2256                 7.0455               115.9432

                     49                     50                     51
                      A                      A                      A
 Frequencies --   1374.7057              1392.1942              1411.6274
 Red. masses --      1.3700                 1.5182                 1.2855
 Frc consts  --      1.5254                 1.7338                 1.5093
 IR Inten    --      8.0877                 5.0924                31.9879

                     52                     53                     54
                      A                      A                      A
 Frequencies --   1419.0078              1426.9072              1435.7164
 Red. masses --      1.3115                 1.5737                 1.4299
 Frc consts  --      1.5559                 1.8878                 1.7366
 IR Inten    --      9.0983                37.3554                29.4476

                     55                     56                     57
                      A                      A                      A
 Frequencies --   1483.5181              1489.7857              1497.2604
 Red. masses --      1.1064                 1.1877                 1.0822
 Frc consts  --      1.4346                 1.5531                 1.4294
 IR Inten    --      3.1244                 6.0602                 6.0851

                     58                     59                     60
                      A                      A                      A
 Frequencies --   1505.9424              1509.0020              1511.8569
 Red. masses --      1.1082                 1.0769                 1.0684
 Frc consts  --      1.4808                 1.4448                 1.4389
 IR Inten    --      2.8489                 9.1318                 9.5838

                     61                     62                     63
                      A                      A                      A
 Frequencies --   1512.8752              1523.4605              1525.4939
 Red. masses --      1.0819                 1.0616                 1.0904
 Frc consts  --      1.4589                 1.4516                 1.4950
 IR Inten    --      9.9289                 1.7444                 7.7899

                     64                     65                     66
                      A                      A                      A
 Frequencies --   1529.1842              1560.2357              1818.9695
 Red. masses --      1.1375                 1.0621                10.7130
 Frc consts  --      1.5672                 1.5233                20.8839
 IR Inten    --      7.5514                11.9677               194.2489

                     67                     68                     69
                      A                      A                      A
 Frequencies --   2235.4960              2953.2784              2961.3857
 Red. masses --      5.9948                 1.0668                 1.0667
 Frc consts  --     17.6511                 5.4819                 5.5117
 IR Inten    --      2.3154               139.9293                46.7321

                     70                     71                     72
                      A                      A                      A
 Frequencies --   3027.3486              3030.2915              3043.6104
 Red. masses --      1.0777                 1.0647                 1.0641
 Frc consts  --      5.8194                 5.7605                 5.8080
 IR Inten    --     52.7696                53.8299                13.9737

                     73                     74                     75
                      A                      A                      A
 Frequencies --   3052.3553              3067.7729              3074.6817
 Red. masses --      1.0610                 1.0682                 1.0300
 Frc consts  --      5.8243                 5.9234                 5.7371
 IR Inten    --     49.8809                14.1206                31.2441

                     76                     77                     78
                      A                      A                      A
 Frequencies --   3081.5765              3089.6194              3096.8124
 Red. masses --      1.1002                 1.1001                 1.0956
 Frc consts  --      6.1557                 6.1872                 6.1909
 IR Inten    --     19.3166                 5.2892                 6.2696

                     79                     80                     81
                      A                      A                      A
 Frequencies --   3105.4035              3112.4335              3149.7731
 Red. masses --      1.0932                 1.0965                 1.1068
 Frc consts  --      6.2111                 6.2583                 6.4693
 IR Inten    --     50.1949                18.9277                21.5595

                     82                     83                     84
                      A                      A                      A
 Frequencies --   3161.0061              3182.3731              3495.9706
 Red. masses --      1.0962                 1.1073                 1.1592
 Frc consts  --      6.4537                 6.6069                 8.3469
 IR Inten    --      2.2002                16.1602                55.2348

 - Thermochemistry -
 -------------------
 Temperature   298.150 Kelvin.  Pressure   1.00000 Atm.
 Atom     1 has atomic number  6 and mass  12.00000

 Molecular mass:   183.12593 amu.
 Principal axes and moments of inertia in atomic units:
                           1         2         3
     Eigenvalues --  1823.972853182.282963610.08809
           X            0.99972  -0.01926  -0.01410
           Y            0.01919   0.99980  -0.00517
           Z            0.01420   0.00490   0.99989
 This molecule is an asymmetric top.
 Rotational symmetry number  1.
 Warning -- assumption of classical behavior for rotation
           may cause significant error
 Rotational temperatures (Kelvin)      0.04749     0.02722     0.02399
 Rotational constants (GHZ):           0.98946     0.56712     0.49992
 Zero-point vibrational energy     683936.1 (Joules/Mol)
                                  163.46465 (Kcal/Mol)
 Warning -- explicit consideration of  24 degrees of freedom as
           vibrations may cause significant error
 Vibrational temperatures:     36.15    52.32    83.45    91.67   111.61
          (Kelvin)            152.27   200.75   208.13   241.80   254.37
                              290.65   318.32   393.89   435.00   528.37
                              535.36   597.62   614.14   647.49   697.71
                              825.87   866.35   879.65   890.78  1037.26
                             1077.21  1139.28  1211.29  1243.56  1332.33
                             1350.19  1374.81  1460.11  1502.43  1529.81
                             1546.27  1574.25  1598.66  1663.58  1696.90
                             1708.59  1733.94  1754.16  1779.59  1792.82
                             1836.85  1894.31  1962.96  1977.89  2003.06
                             2031.02  2041.64  2053.00  2065.68  2134.45
                             2143.47  2154.22  2166.72  2171.12  2175.22
                             2176.69  2191.92  2194.85  2200.16  2244.83
                             2617.09  3216.38  4249.11  4260.77  4355.68
                             4359.91  4379.08  4391.66  4413.84  4423.78
                             4433.70  4445.27  4455.62  4467.98  4478.10
                             4531.82  4547.98  4578.73  5029.92

 Zero-point correction=                           0.260498 (Hartree/Particle)
 Thermal correction to Energy=                    0.276049
 Thermal correction to Enthalpy=                  0.276993
 Thermal correction to Gibbs Free Energy=         0.216258
 Sum of electronic and zero-point Energies=           -596.211032
 Sum of electronic and thermal Energies=              -596.195480
 Sum of electronic and thermal Enthalpies=            -596.194536
 Sum of electronic and thermal Free Energies=         -596.255271

                     E (Thermal)             CV                S
                      KCal/Mol        Cal/Mol-Kelvin    Cal/Mol-Kelvin
 Total                  173.223             54.878            127.827
 Electronic               0.000              0.000              0.000
 Translational            0.889              2.981             41.521
 Rotational               0.889              2.981             31.416
 Vibrational            171.446             48.917             54.889
 Vibration     1          0.593              1.985              6.181
 Vibration     2          0.594              1.982              5.448
 Vibration     3          0.596              1.974              4.524
 Vibration     4          0.597              1.972              4.339
 Vibration     5          0.599              1.964              3.951
 Vibration     6          0.605              1.945              3.344
 Vibration     7          0.615              1.914              2.810
 Vibration     8          0.616              1.908              2.741
 Vibration     9          0.625              1.882              2.457
 Vibration    10          0.628              1.871              2.362
 Vibration    11          0.639              1.837              2.115
 Vibration    12          0.648              1.809              1.949
 Vibration    13          0.676              1.722              1.572
 Vibration    14          0.694              1.669              1.404
 Vibration    15          0.740              1.540              1.091
 Vibration    16          0.744              1.529              1.071
 Vibration    17          0.779              1.437              0.908
 Vibration    18          0.789              1.412              0.869
 Vibration    19          0.809              1.361              0.796
 Vibration    20          0.841              1.283              0.697
 Vibration    21          0.930              1.087              0.497
 Vibration    22          0.960              1.027              0.446
 Vibration    23          0.971              1.008              0.430
 Vibration    24          0.979              0.992              0.418

                           ! Non-Optimized Parameters !
 Normal termination of Gaussian 16 at Wed Dec  9 22:48:48 2020.

 ----------------------------------------------------------------------
 # B3LYP/6-311++G(d,p) empiricaldispersion=gd3bj scf=xqc pop=npa geom=c
 heck
 ----------------------------------------------------------------------

 ---------------------------------------
 CID_115872973_JID_3181_Energie_neutraal
 ---------------------------------------
 Structure from the checkpoint file:  "JID_3181.chk"
 Charge =  0 Multiplicity = 1

 SCF Done:  E(RB3LYP) =  -596.647348819     A.U. after   14 cycles
 Normal termination of Gaussian 16 at Wed Dec  9 22:52:52 2020.

 ----------------------------------------------------------------------
 # B3LYP/6-311++G(d,p) empiricaldispersion=gd3bj scf=xqc pop=npa geom=c
 heck
 ----------------------------------------------------------------------

 -------------------------------------
 CID_115872973_JID_3181_Energie_kation
 -------------------------------------
 Structure from the checkpoint file:  "JID_3181.chk"
 Charge =  1 Multiplicity = 2

 SCF Done:  E(UB3LYP) =  -596.374371469     A.U. after   19 cycles
 Normal termination of Gaussian 16 at Wed Dec  9 23:00:48 2020.
 Gaussian 16:  ES64L-G16RevA.03 25-Dec-2016

 ----------------------------------------------------------------------
 # B3LYP/6-311++G(d,p) empiricaldispersion=gd3bj scf=xqc pop=npa geom=c
 heck
 ----------------------------------------------------------------------

 ------------------------------------
 CID_115872973_JID_3181_Energie_anion
 ------------------------------------
 Structure from the checkpoint file:  "JID_3181.chk"
 Charge = -1 Multiplicity = 2

                         Standard orientation:
 ---------------------------------------------------------------------
 Center     Atomic      Atomic             Coordinates (Angstroms)
 Number     Number       Type             X           Y           Z
 ---------------------------------------------------------------------
      1          6           0        0.434472    2.038075   -0.867981
      2          7           0       -0.453579    1.607844    0.182823
      3          6           0       -1.855103    1.452367   -0.137602
      4          6           0       -2.184781    0.485938   -1.288381
      5          6           0       -1.740636   -0.969902   -1.050836
      6          6           0       -2.331718   -1.554589    0.152412
      7          6           0       -2.822188   -2.003656    1.161358
      8          6           0        0.089971    1.184673    1.446134
      9          6           0        0.702770   -0.242326    1.514971
     10          6           0        1.895526   -0.353078    0.600471
     11          8           0        2.916877    0.292771    0.709423
     12          8           0        1.686000   -1.234329   -0.409676
     13          6           0        2.753907   -1.331157   -1.364501
     14          1           0       -0.035195    2.843194   -1.451989
     15          1           0        0.718652    1.242128   -1.579938
     16          1           0        1.360377    2.428454   -0.433215
     17          1           0       -2.373800    1.114441    0.765239
     18          1           0       -2.284463    2.434152   -0.407126
     19          1           0       -3.268819    0.514899   -1.455269
     20          1           0       -1.713667    0.838281   -2.214340
     21          1           0       -2.014534   -1.578781   -1.922474
     22          1           0       -0.648053   -1.014168   -0.973733
     23          1           0       -3.258851   -2.418077    2.041047
     24          1           0        0.876971    1.888532    1.749993
     25          1           0       -0.702567    1.237886    2.200639
     26          1           0        1.060848   -0.405798    2.538742
     27          1           0       -0.046808   -1.000282    1.284091
     28          1           0        3.683574   -1.626426   -0.872152
     29          1           0        2.438480   -2.089563   -2.081320
     30          1           0        2.906580   -0.369388   -1.862206
 ---------------------------------------------------------------------

 SCF Done:  E(UB3LYP) =  -596.632580110     A.U. after   33 cycles
 SCF Done:  E(UB3LYP) =  -596.632580110     a.u. after    1 cycles

 The electronic state is 2-A.
 Alpha  occ. eigenvalues --  -19.07424 -19.01561 -14.20139 -10.20363 -10.12406
 Alpha  occ. eigenvalues --  -10.10832 -10.09644 -10.08958 -10.08808 -10.08019
 Alpha  occ. eigenvalues --  -10.07891 -10.07212 -10.06456  -1.01207  -0.92473
 Alpha  occ. eigenvalues --   -0.82699  -0.71025  -0.68811  -0.64711  -0.62854
 Alpha  occ. eigenvalues --   -0.60685  -0.57816  -0.52940  -0.48140  -0.46292
 Alpha  occ. eigenvalues --   -0.43273  -0.41459  -0.40160  -0.39220  -0.38359
 Alpha  occ. eigenvalues --   -0.37754  -0.36503  -0.35538  -0.33856  -0.33532
 Alpha  occ. eigenvalues --   -0.31783  -0.31361  -0.29215  -0.28182  -0.27250
 Alpha  occ. eigenvalues --   -0.27222  -0.26159  -0.26080  -0.25314  -0.24781
 Alpha  occ. eigenvalues --   -0.21462  -0.18785  -0.17748  -0.17413  -0.10143
 Alpha  occ. eigenvalues --    0.04399
 Alpha virt. eigenvalues --    0.06254   0.07012   0.07285   0.08414   0.08971
 Alpha virt. eigenvalues --    0.09439   0.09629   0.10138   0.10353   0.11296
 Alpha virt. eigenvalues --    0.11652   0.12005   0.12242   0.12676   0.13456

  Beta  occ. eigenvalues --  -19.07417 -19.01549 -14.20138 -10.20352 -10.12360
  Beta  occ. eigenvalues --  -10.10819 -10.09630 -10.08939 -10.08775 -10.08011
  Beta  occ. eigenvalues --  -10.07894 -10.07191 -10.06431  -1.01188  -0.92453
  Beta  occ. eigenvalues --   -0.82687  -0.70995  -0.68783  -0.64681  -0.62802
  Beta  occ. eigenvalues --   -0.60644  -0.57769  -0.52890  -0.48085  -0.46250
  Beta  occ. eigenvalues --   -0.43219  -0.41430  -0.40126  -0.39192  -0.38324
  Beta  occ. eigenvalues --   -0.37723  -0.36465  -0.35503  -0.33827  -0.33504
  Beta  occ. eigenvalues --   -0.31748  -0.31322  -0.29184  -0.28147  -0.27224
  Beta  occ. eigenvalues --   -0.27189  -0.26131  -0.26050  -0.25287  -0.24746
  Beta  occ. eigenvalues --   -0.21424  -0.18770  -0.17714  -0.17394  -0.10114
  Beta virt. eigenvalues --    0.06556   0.07276   0.07726   0.07808   0.08970
  Beta virt. eigenvalues --    0.09322   0.09702   0.09975   0.10562   0.10752
  Beta virt. eigenvalues --    0.11505   0.12057   0.12241   0.12534   0.13024

 Mulliken charges and spin densities:
               1          2
     1  C    0.370318  -0.766123
     2  N   -0.112813   0.136537
     3  C    0.307316  -0.580143
     4  C    0.066635  -0.428275
     5  C   -2.021722   1.654124
     6  C    2.840464  -2.667895
     7  C   -0.349494   0.076011
     8  C    0.225958  -0.687813
     9  C   -0.113297   0.087863
    10  C   -0.447461   0.082648
    11  O   -0.246569   0.030731
    12  O   -0.042747   0.055541
    13  C    0.834932  -1.065616
    14  H   -0.273874   0.428186
    15  H   -0.112741   0.260201
    16  H    0.056152   0.086554
    17  H    0.070423   0.024010
    18  H   -0.073553   0.240849
    19  H   -0.157459   0.302254
    20  H   -0.300234   0.463932
    21  H   -0.445642   0.678622
    22  H    0.515844  -0.399018
    23  H   -0.829247   1.032031
    24  H    0.151875   0.027599
    25  H   -0.127664   0.280490
    26  H   -0.156473   0.349722
    27  H    0.267203  -0.101675
    28  H   -0.176126   0.335716
    29  H   -0.562395   0.724113
    30  H   -0.157608   0.338824
 Sum of Mulliken charges =  -1.00000   1.00000

 Dipole moment (field-independent basis, Debye):
    X=              0.8575    Y=              2.0883    Z=              3.0195  Tot=              3.7701
 Quadrupole moment (field-independent basis, Debye-Ang):
   XX=           -140.8870   YY=           -126.0711   ZZ=           -129.0098
   XY=             -4.1123   XZ=              4.4881   YZ=              0.2693

 Summary of Natural Population Analysis:

                                       Natural Population
                Natural  -----------------------------------------------
    Atom  No    Charge         Core      Valence    Rydberg      Total
 -----------------------------------------------------------------------
      C    1   -0.17698      0.99964     2.16871    0.00862     3.17698
      N    2   -0.29069      0.99971     2.77745    0.01353     3.79069
      C    3   -0.07699      0.99960     2.06607    0.01132     3.07699
      C    4   -0.18781      0.99962     2.17932    0.00886     3.18781
      C    5   -0.24359      0.99955     2.23311    0.01092     3.24359
      C    6    0.00425      0.99938     1.98759    0.00878     2.99575
      C    7   -0.13130      0.99926     2.12817    0.00387     3.13130
      C    8   -0.06772      0.99960     2.05686    0.01126     3.06772
      C    9   -0.24770      0.99956     2.23947    0.00867     3.24770
      C   10    0.41180      0.99968     1.56419    0.02433     2.58820
      O   11   -0.31157      0.99987     3.30590    0.00580     4.31157
      O   12   -0.27872      0.99986     3.27005    0.00881     4.27872
      C   13   -0.10610      0.99959     2.09685    0.00966     3.10610
      H   14    0.09271      0.00000     0.40616    0.00113     0.40729
      H   15    0.08478      0.00000     0.41330    0.00192     0.41522
      H   16    0.09905      0.00000     0.39994    0.00101     0.40095
      H   17    0.09922      0.00000     0.39937    0.00140     0.40078
      H   18    0.08673      0.00000     0.41207    0.00121     0.41327
      H   19    0.09746      0.00000     0.40111    0.00144     0.40254
      H   20    0.10087      0.00000     0.39729    0.00184     0.39913
      H   21    0.11566      0.00000     0.38263    0.00171     0.38434
      H   22    0.12147      0.00000     0.37530    0.00323     0.37853
      H   23    0.11160      0.00000     0.38659    0.00182     0.38840
      H   24    0.09320      0.00000     0.40553    0.00127     0.40680
      H   25    0.09725      0.00000     0.40165    0.00111     0.40275
      H   26    0.10919      0.00000     0.38947    0.00135     0.39081
      H   27    0.11494      0.00000     0.38245    0.00261     0.38506
      H   28    0.09057      0.00000     0.40832    0.00111     0.40943
      H   29    0.09527      0.00000     0.40287    0.00185     0.40473
      H   30    0.09314      0.00000     0.40527    0.00160     0.40686
 =======================================================================
   * Total *   -0.00000     12.99493    36.84303    0.16204    50.00000

 Normal termination of Gaussian 16 at Wed Dec  9 23:14:21 2020.
