 Gaussian 16, Revision A.03,

 -----------------------------------------------------------
 # opt freq B3LYP/6-31G(d) empiricaldispersion=gd3bj scf=xqc
 -----------------------------------------------------------

 -------------------------------
 CID_154400807_JID_3867_neutraal
 -------------------------------
 Symbolic Z-matrix:
 Charge =  0 Multiplicity = 1

 SCF Done:  E(RB3LYP) =  -540.969256713     A.U. after   14 cycles
 SCF Done:  E(RB3LYP) =  -540.972089950     A.U. after   13 cycles
 SCF Done:  E(RB3LYP) =  -540.972275383     A.U. after   13 cycles
 SCF Done:  E(RB3LYP) =  -540.971715481     A.U. after   14 cycles
 SCF Done:  E(RB3LYP) =  -540.973153087     A.U. after   13 cycles
 SCF Done:  E(RB3LYP) =  -540.973375516     A.U. after   13 cycles
 SCF Done:  E(RB3LYP) =  -540.973411749     A.U. after   12 cycles
 SCF Done:  E(RB3LYP) =  -540.973416834     A.U. after   10 cycles
 SCF Done:  E(RB3LYP) =  -540.973418304     A.U. after    9 cycles
 SCF Done:  E(RB3LYP) =  -540.973418524     A.U. after    8 cycles
 SCF Done:  E(RB3LYP) =  -540.973418559     A.U. after    7 cycles
 Optimization completed.
    -- Stationary point found.
 Normal termination of Gaussian 16 at Mon Dec 14 16:33:32 2020.

 --------------------------------------------------------------------
 #N Geom=AllCheck Guess=TCheck SCRF=Check GenChk RB3LYP/6-31G(d) Freq
 --------------------------------------------------------------------

 Structure from the checkpoint file:  "JID_3867.chk"
 -------------------------------
 CID_154400807_JID_3867_neutraal
 -------------------------------
 Charge =  0 Multiplicity = 1

 SCF Done:  E(RB3LYP) =  -540.973418559     A.U. after    1 cycles

  Exact polarizability: 243.508  -4.069 130.595   0.001  -0.005  59.926
 Approx polarizability: 355.906 -25.426 216.846   0.006  -0.011  92.049

                      1                      2                      3
                      A                      A                      A
 Frequencies --     35.8506                78.1803                86.8520
 Red. masses --      4.4892                 2.3964                 5.7715
 Frc consts  --      0.0034                 0.0086                 0.0257
 IR Inten    --      1.5628                 0.5451                 3.0411

                      4                      5                      6
                      A                      A                      A
 Frequencies --    109.5271               133.8548               165.7220
 Red. masses --      1.8455                 3.4225                 1.3109
 Frc consts  --      0.0130                 0.0361                 0.0212
 IR Inten    --      1.8255                 2.4940                 1.8170

                      7                      8                      9
                      A                      A                      A
 Frequencies --    202.6107               207.6690               249.9011
 Red. masses --      1.9698                 3.4225                 2.1172
 Frc consts  --      0.0476                 0.0870                 0.0779
 IR Inten    --      1.9699                 0.7432                 0.0012

                     10                     11                     12
                      A                      A                      A
 Frequencies --    270.8978               301.2159               303.9893
 Red. masses --      4.5007                 3.6969                 1.3106
 Frc consts  --      0.1946                 0.1976                 0.0714
 IR Inten    --      7.0966                 0.0086                 0.0203

                     13                     14                     15
                      A                      A                      A
 Frequencies --    379.9499               388.2649               450.4504
 Red. masses --      4.0090                 2.7435                 2.8200
 Frc consts  --      0.3410                 0.2437                 0.3371
 IR Inten    --      0.5913                 3.5454                 0.9611

                     16                     17                     18
                      A                      A                      A
 Frequencies --    484.1405               518.2509               580.4027
 Red. masses --      3.3256                 4.7408                 2.9177
 Frc consts  --      0.4593                 0.7502                 0.5791
 IR Inten    --      4.9937                 3.0979                 0.7417

                     19                     20                     21
                      A                      A                      A
 Frequencies --    592.8527               610.2392               711.3159
 Red. masses --      4.7133                 3.8982                 2.3144
 Frc consts  --      0.9760                 0.8553                 0.6900
 IR Inten    --     16.3057                 1.2190                 0.0789

                     22                     23                     24
                      A                      A                      A
 Frequencies --    751.9799               769.9890               793.7438
 Red. masses --      3.7614                 5.3442                 1.3535
 Frc consts  --      1.2532                 1.8668                 0.5024
 IR Inten    --      1.2543                 3.2468                 1.9241

                     25                     26                     27
                      A                      A                      A
 Frequencies --    838.8376               877.7887               899.9464
 Red. masses --      1.3555                 1.5163                 1.5127
 Frc consts  --      0.5620                 0.6883                 0.7218
 IR Inten    --     22.8823                 0.0629                 5.1291

                     28                     29                     30
                      A                      A                      A
 Frequencies --    959.2809               986.9873              1004.3620
 Red. masses --      1.3092                 3.0219                 1.9094
 Frc consts  --      0.7098                 1.7344                 1.1348
 IR Inten    --      0.7424                 0.0209                 2.7971

                     31                     32                     33
                      A                      A                      A
 Frequencies --   1005.4159              1041.0460              1042.2003
 Red. masses --      1.4436                 1.3403                 1.6466
 Frc consts  --      0.8598                 0.8559                 1.0537
 IR Inten    --     21.4689                 9.3669                 4.0666

                     34                     35                     36
                      A                      A                      A
 Frequencies --   1072.0881              1084.0565              1117.6436
 Red. masses --      1.4890                 2.1042                 1.5788
 Frc consts  --      1.0084                 1.4570                 1.1619
 IR Inten    --      3.2871                 0.2548                 0.0098

                     37                     38                     39
                      A                      A                      A
 Frequencies --   1147.2485              1155.7804              1203.1359
 Red. masses --      2.5082                 3.1908                 1.5904
 Frc consts  --      1.9451                 2.5113                 1.3564
 IR Inten    --      1.3856               255.4704                 0.3517

                     40                     41                     42
                      A                      A                      A
 Frequencies --   1228.1636              1266.6427              1297.6186
 Red. masses --      1.5219                 1.6901                 2.5981
 Frc consts  --      1.3525                 1.5976                 2.5775
 IR Inten    --      0.8402                 1.0533                21.4871

                     43                     44                     45
                      A                      A                      A
 Frequencies --   1316.9899              1329.1541              1345.2281
 Red. masses --      1.1464                 1.4031                 3.1468
 Frc consts  --      1.1715                 1.4605                 3.3551
 IR Inten    --      0.0722                 0.3726                19.6209

                     46                     47                     48
                      A                      A                      A
 Frequencies --   1365.4298              1398.4165              1439.6914
 Red. masses --      1.7104                 1.7807                 1.3759
 Frc consts  --      1.8788                 2.0517                 1.6803
 IR Inten    --      5.2563                20.1299                 9.2377

                     49                     50                     51
                      A                      A                      A
 Frequencies --   1442.6165              1448.2233              1469.9688
 Red. masses --      1.2475                 1.2376                 2.4179
 Frc consts  --      1.5296                 1.5293                 3.0782
 IR Inten    --      0.2965                 2.7064                13.0985

                     52                     53                     54
                      A                      A                      A
 Frequencies --   1501.8409              1515.5517              1525.4275
 Red. masses --      1.1244                 1.0447                 1.2119
 Frc consts  --      1.4942                 1.4138                 1.6615
 IR Inten    --      8.3684                 7.8696                 7.5255

                     55                     56                     57
                      A                      A                      A
 Frequencies --   1532.3707              1539.3748              1551.5778
 Red. masses --      1.0397                 1.0646                 2.2016
 Frc consts  --      1.4384                 1.4863                 3.1227
 IR Inten    --      7.2112                 7.6564                11.1670

                     58                     59                     60
                      A                      A                      A
 Frequencies --   1618.2914              1668.9390              1697.5625
 Red. masses --      5.7734                 5.4855                 5.3303
 Frc consts  --      8.9084                 9.0022                 9.0500
 IR Inten    --      9.1078                99.4866               116.7808

                     61                     62                     63
                      A                      A                      A
 Frequencies --   1785.6669              2885.2025              3020.7320
 Red. masses --      9.3351                 1.0828                 1.0606
 Frc consts  --     17.5375                 5.3109                 5.7019
 IR Inten    --    442.1134               150.5711                21.1722

                     64                     65                     66
                      A                      A                      A
 Frequencies --   3042.2493              3042.5645              3054.3546
 Red. masses --      1.0385                 1.1006                 1.0358
 Frc consts  --      5.6632                 6.0027                 5.6933
 IR Inten    --     30.2849                14.8605                24.3023

                     67                     68                     69
                      A                      A                      A
 Frequencies --   3090.3967              3120.8610              3125.5720
 Red. masses --      1.1001                 1.1029                 1.1021
 Frc consts  --      6.1905                 6.3291                 6.3433
 IR Inten    --     18.0106                31.6450                36.4014

                     70                     71                     72
                      A                      A                      A
 Frequencies --   3132.8087              3137.9916              3185.2358
 Red. masses --      1.1000                 1.0874                 1.0890
 Frc consts  --      6.3607                 6.3088                 6.5094
 IR Inten    --     16.4903                15.9818                10.9857

                     73                     74                     75
                      A                      A                      A
 Frequencies --   3192.7391              3205.3009              3219.4663
 Red. masses --      1.0901                 1.0898                 1.0915
 Frc consts  --      6.5472                 6.5966                 6.6659
 IR Inten    --      4.9125                11.1563                15.9998

 - Thermochemistry -
 -------------------
 Temperature   298.150 Kelvin.  Pressure   1.00000 Atm.
 Atom     1 has atomic number  6 and mass  12.00000

 Molecular mass:   174.10447 amu.
 Principal axes and moments of inertia in atomic units:
                           1         2         3
     Eigenvalues --   821.486615716.904736505.01418
           X            0.99999   0.00399  -0.00000
           Y           -0.00399   0.99999  -0.00000
           Z            0.00000   0.00000   1.00000
 This molecule is an asymmetric top.
 Rotational symmetry number  1.
 Warning -- assumption of classical behavior for rotation
           may cause significant error
 Rotational temperatures (Kelvin)      0.10544     0.01515     0.01331
 Rotational constants (GHZ):           2.19692     0.31569     0.27744
 Zero-point vibrational energy     600249.6 (Joules/Mol)
                                  143.46309 (Kcal/Mol)
 Warning -- explicit consideration of  20 degrees of freedom as
           vibrations may cause significant error
 Vibrational temperatures:     51.58   112.48   124.96   157.59   192.59
          (Kelvin)            238.44   291.51   298.79   359.55   389.76
                              433.38   437.37   546.66   558.63   648.10
                              696.57   745.65   835.07   852.98   878.00
                             1023.42  1081.93  1107.84  1142.02  1206.90
                             1262.94  1294.82  1380.19  1420.05  1445.05
                             1446.57  1497.83  1499.49  1542.50  1559.72
                             1608.04  1650.63  1662.91  1731.04  1767.05
                             1822.42  1866.98  1894.85  1912.36  1935.48
                             1964.55  2012.01  2071.39  2075.60  2083.67
                             2114.96  2160.81  2180.54  2194.75  2204.74
                             2214.82  2232.37  2328.36  2401.23  2442.41
                             2569.18  4151.16  4346.16  4377.12  4377.57
                             4394.53  4446.39  4490.22  4497.00  4507.41
                             4514.87  4582.84  4593.64  4611.71  4632.09

 Zero-point correction=                           0.228623 (Hartree/Particle)
 Thermal correction to Energy=                    0.241643
 Thermal correction to Enthalpy=                  0.242587
 Thermal correction to Gibbs Free Energy=         0.188668
 Sum of electronic and zero-point Energies=           -540.744796
 Sum of electronic and thermal Energies=              -540.731776
 Sum of electronic and thermal Enthalpies=            -540.730832
 Sum of electronic and thermal Free Energies=         -540.784751

                     E (Thermal)             CV                S
                      KCal/Mol        Cal/Mol-Kelvin    Cal/Mol-Kelvin
 Total                  151.633             48.442            113.482
 Electronic               0.000              0.000              0.000
 Translational            0.889              2.981             41.371
 Rotational               0.889              2.981             31.791
 Vibrational            149.856             42.481             40.320
 Vibration     1          0.594              1.982              5.476
 Vibration     2          0.599              1.964              3.936
 Vibration     3          0.601              1.958              3.730
 Vibration     4          0.606              1.942              3.277
 Vibration     5          0.613              1.920              2.890
 Vibration     6          0.624              1.885              2.483
 Vibration     7          0.639              1.836              2.109
 Vibration     8          0.641              1.829              2.064
 Vibration     9          0.663              1.763              1.731
 Vibration    10          0.675              1.727              1.590
 Vibration    11          0.693              1.671              1.410
 Vibration    12          0.695              1.666              1.395
 Vibration    13          0.750              1.513              1.039
 Vibration    14          0.756              1.495              1.007
 Vibration    15          0.809              1.360              0.794
 Vibration    16          0.840              1.285              0.699
 Vibration    17          0.873              1.210              0.614
 Vibration    18          0.937              1.074              0.485
 Vibration    19          0.950              1.047              0.462
 Vibration    20          0.969              1.010              0.432

 Optimization completed.
    -- Stationary point found.
 Normal termination of Gaussian 16 at Mon Dec 14 16:39:49 2020.

 ----------------------------------------------------------------------
 # B3LYP/6-311++G(d,p) empiricaldispersion=gd3bj scf=xqc pop=npa geom=c
 heck
 ----------------------------------------------------------------------

 ---------------------------------------
 CID_154400807_JID_3867_Energie_neutraal
 ---------------------------------------
 Structure from the checkpoint file:  "JID_3867.chk"
 Charge =  0 Multiplicity = 1

 SCF Done:  E(RB3LYP) =  -541.120068434     A.U. after   15 cycles
 Normal termination of Gaussian 16 at Mon Dec 14 16:42:55 2020.

 ----------------------------------------------------------------------
 # B3LYP/6-311++G(d,p) empiricaldispersion=gd3bj scf=xqc pop=npa geom=c
 heck
 ----------------------------------------------------------------------

 -------------------------------------
 CID_154400807_JID_3867_Energie_kation
 -------------------------------------
 Structure from the checkpoint file:  "JID_3867.chk"
 Charge =  1 Multiplicity = 2

 SCF Done:  E(UB3LYP) =  -540.817014287     A.U. after   24 cycles
 Normal termination of Gaussian 16 at Mon Dec 14 16:49:50 2020.
 Gaussian 16:  ES64L-G16RevA.03 25-Dec-2016

 ----------------------------------------------------------------------
 # B3LYP/6-311++G(d,p) empiricaldispersion=gd3bj scf=xqc pop=npa geom=c
 heck
 ----------------------------------------------------------------------

 ------------------------------------
 CID_154400807_JID_3867_Energie_anion
 ------------------------------------
 Structure from the checkpoint file:  "JID_3867.chk"
 Charge = -1 Multiplicity = 2

                         Standard orientation:
 ---------------------------------------------------------------------
 Center     Atomic      Atomic             Coordinates (Angstroms)
 Number     Number       Type             X           Y           Z
 ---------------------------------------------------------------------
      1          6           0        4.497211   -1.010445   -0.000103
      2          6           0        3.595444    0.224307   -0.000129
      3          6           0        2.102936   -0.034953   -0.000056
      4          6           0        1.205553    1.061352    0.000044
      5          6           0       -0.164551    0.823944    0.000144
      6          6           0       -0.697049   -0.478563    0.000135
      7          6           0        0.202963   -1.552863    0.000054
      8          6           0        1.576903   -1.329528   -0.000047
      9          6           0       -2.128965   -0.749219    0.000210
     10          6           0       -3.145414    0.138679   -0.000162
     11          6           0       -4.533666   -0.320546    0.000035
     12          8           0       -5.507204    0.412958   -0.000241
     13          6           0        1.721001    2.479329    0.000113
     14          1           0        5.549264   -0.708335   -0.000167
     15          1           0        4.329381   -1.632572   -0.886090
     16          1           0        4.329463   -1.632464    0.885978
     17          1           0        3.843073    0.848015   -0.871245
     18          1           0        3.843148    0.848103    0.870902
     19          1           0       -0.838924    1.675293    0.000260
     20          1           0       -0.178980   -2.570649    0.000050
     21          1           0        2.246391   -2.182564   -0.000105
     22          1           0       -2.395880   -1.807632    0.000625
     23          1           0       -2.992058    1.214414   -0.000615
     24          1           0       -4.653488   -1.428914    0.000477
     25          1           0        0.895405    3.196320   -0.000013
     26          1           0        2.343170    2.684189    0.880374
     27          1           0        2.343467    2.684168   -0.879932
 ---------------------------------------------------------------------

 SCF Done:  E(UB3LYP) =  -541.145291477     A.U. after   22 cycles

 The electronic state is 2-A.
 Alpha  occ. eigenvalues --  -18.92482 -10.07077 -10.06863 -10.06590 -10.06060
 Alpha  occ. eigenvalues --  -10.05086 -10.03857 -10.03788 -10.03085 -10.03021
 Alpha  occ. eigenvalues --  -10.02732 -10.00974  -9.99734  -0.86045  -0.73284
 Alpha  occ. eigenvalues --   -0.67971  -0.65285  -0.63153  -0.59056  -0.56681
 Alpha  occ. eigenvalues --   -0.53374  -0.47632  -0.46297  -0.42406  -0.39956
 Alpha  occ. eigenvalues --   -0.36826  -0.35473  -0.34879  -0.31861  -0.31604
 Alpha  occ. eigenvalues --   -0.31128  -0.29702  -0.27882  -0.27424  -0.27119
 Alpha  occ. eigenvalues --   -0.26253  -0.25922  -0.24404  -0.23562  -0.22323
 Alpha  occ. eigenvalues --   -0.22268  -0.20555  -0.19878  -0.15501  -0.12048
 Alpha  occ. eigenvalues --   -0.08679  -0.08394   0.03448
 Alpha virt. eigenvalues --    0.06654   0.08113   0.09431   0.09783   0.10661
 Alpha virt. eigenvalues --    0.11254   0.11659   0.12272   0.12324   0.12648
 Alpha virt. eigenvalues --    0.14053   0.14191   0.14342   0.14869   0.15934

  Beta  occ. eigenvalues --  -18.92010 -10.07077 -10.06887 -10.06429 -10.06055
  Beta  occ. eigenvalues --  -10.05179 -10.03858 -10.03536 -10.03034 -10.02888
  Beta  occ. eigenvalues --  -10.02552 -10.00611  -9.99590  -0.85211  -0.73025
  Beta  occ. eigenvalues --   -0.67722  -0.65149  -0.62724  -0.58649  -0.56460
  Beta  occ. eigenvalues --   -0.53136  -0.46891  -0.46195  -0.42060  -0.39611
  Beta  occ. eigenvalues --   -0.36653  -0.35338  -0.34777  -0.31633  -0.31487
  Beta  occ. eigenvalues --   -0.31132  -0.29536  -0.27800  -0.27389  -0.26816
  Beta  occ. eigenvalues --   -0.26150  -0.25736  -0.24061  -0.22443  -0.22105
  Beta  occ. eigenvalues --   -0.20532  -0.20345  -0.19752  -0.13762  -0.11386
  Beta  occ. eigenvalues --   -0.07956  -0.06880
  Beta virt. eigenvalues --    0.06616   0.08073   0.09213   0.09399   0.10037
  Beta virt. eigenvalues --    0.10640   0.11227   0.11760   0.12294   0.12373
  Beta virt. eigenvalues --    0.12626   0.14023   0.14277   0.14836   0.15903

 Mulliken charges and spin densities:
               1          2
     1  C   -0.631076   0.005009
     2  C   -0.513719  -0.029857
     3  C    1.244923   0.202070
     4  C    0.029988  -0.058531
     5  C   -1.121127   0.154208
     6  C    1.222723   0.001900
     7  C   -0.534407   0.134269
     8  C   -0.876182  -0.026051
     9  C   -0.016782   0.202748
    10  C   -0.015649   0.113736
    11  C   -0.222427   0.163477
    12  O   -0.392342   0.151975
    13  C   -0.505964   0.017049
    14  H    0.131643  -0.000360
    15  H    0.143294  -0.001175
    16  H    0.143286  -0.001170
    17  H    0.111177   0.017810
    18  H    0.111219   0.017777
    19  H   -0.063616  -0.013245
    20  H    0.127220  -0.005107
    21  H    0.057375   0.001808
    22  H    0.013715  -0.022746
    23  H    0.128563  -0.009997
    24  H    0.014179  -0.009240
    25  H    0.165743   0.000221
    26  H    0.124131  -0.003288
    27  H    0.124112  -0.003292
 Sum of Mulliken charges =  -1.00000   1.00000

 Dipole moment (field-independent basis, Debye):
    X=             11.9431    Y=             -0.3186    Z=              0.0007  Tot=             11.9473
 Quadrupole moment (field-independent basis, Debye-Ang):
   XX=           -166.7477   YY=            -85.1768   ZZ=            -88.2874
   XY=              6.9620   XZ=             -0.0035   YZ=             -0.0001

 Summary of Natural Population Analysis:

                                       Natural Population
                Natural  -----------------------------------------------
    Atom  No    Charge         Core      Valence    Rydberg      Total
 -----------------------------------------------------------------------
      C    1   -0.28532      0.99968     2.28138    0.00426     3.28532
      C    2   -0.19715      0.99962     2.19113    0.00639     3.19715
      C    3    0.03255      0.99948     1.96028    0.00769     2.96745
      C    4   -0.04329      0.99950     2.03554    0.00825     3.04329
      C    5   -0.04461      0.99942     2.03702    0.00817     3.04461
      C    6   -0.03894      0.99953     2.03014    0.00927     3.03894
      C    7   -0.05614      0.99944     2.04722    0.00948     3.05614
      C    8   -0.13408      0.99956     2.12540    0.00913     3.13408
      C    9   -0.00569      0.99953     1.99688    0.00928     3.00569
      C   10   -0.12402      0.99951     2.11531    0.00919     3.12402
      C   11    0.20911      0.99971     1.76973    0.02145     2.79089
      O   12   -0.26130      0.99988     3.25273    0.00869     4.26130
      C   13   -0.28982      0.99964     2.28557    0.00461     3.28982
      H   14    0.09270      0.00000     0.40641    0.00088     0.40730
      H   15    0.09598      0.00000     0.40283    0.00119     0.40402
      H   16    0.09598      0.00000     0.40283    0.00119     0.40402
      H   17    0.09621      0.00000     0.40239    0.00140     0.40379
      H   18    0.09621      0.00000     0.40239    0.00140     0.40379
      H   19    0.09192      0.00000     0.40653    0.00155     0.40808
      H   20    0.09270      0.00000     0.40673    0.00057     0.40730
      H   21    0.09428      0.00000     0.40472    0.00099     0.40572
      H   22    0.07915      0.00000     0.41872    0.00212     0.42085
      H   23    0.08798      0.00000     0.41006    0.00196     0.41202
      H   24    0.02611      0.00000     0.47083    0.00306     0.47389
      H   25    0.09982      0.00000     0.39930    0.00088     0.40018
      H   26    0.09485      0.00000     0.40392    0.00123     0.40515
      H   27    0.09485      0.00000     0.40392    0.00123     0.40515
 =======================================================================
   * Total *    0.00007     12.99449    33.86991    0.13552    46.99993

 Normal termination of Gaussian 16 at Mon Dec 14 16:56:10 2020.
